/*--------------------------------*- C++ -*----------------------------------*\
| =========                 |                                                 |
| \\      /  F ield         | OpenFOAM: The Open Source CFD Toolbox           |
|  \\    /   O peration     | Version:  2512                                  |
|   \\  /    A nd           | Website:  www.openfoam.com                      |
|    \\/     M anipulation  |                                                 |
\*---------------------------------------------------------------------------*/
FoamFile
{
    version     2.0;
    format      ascii;
    arch        "LSB;label=32;scalar=64";
    class       volScalarField;
    location    "220";
    object      k;
}
// * * * * * * * * * * * * * * * * * * * * * * * * * * * * * * * * * * * * * //

dimensions      [0 2 -2 0 0 0 0];

internalField   nonuniform List<scalar> 
84826
(
0.231933
0.224218
0.216975
0.21016
0.203735
0.197667
0.191935
0.186506
0.181413
0.176631
0.172156
0.167979
0.164035
0.160294
0.156692
0.153213
0.149824
0.146556
0.143398
0.140351
0.137419
0.1346
0.13189
0.129284
0.126773
0.124354
0.122021
0.119768
0.117592
0.115489
0.231933
0.22422
0.21698
0.210169
0.20375
0.197691
0.191968
0.186549
0.18147
0.176703
0.172247
0.16809
0.164166
0.160438
0.156841
0.153363
0.149968
0.146693
0.143527
0.140471
0.137531
0.134706
0.131991
0.129379
0.126864
0.12444
0.122102
0.119844
0.117663
0.115554
0.231934
0.224222
0.216984
0.210178
0.203765
0.197716
0.192006
0.186605
0.18155
0.176816
0.172402
0.168289
0.164411
0.160712
0.157127
0.153652
0.150244
0.146952
0.143766
0.140696
0.137745
0.13491
0.132186
0.129566
0.127044
0.124612
0.122266
0.120001
0.117811
0.115693
0.231934
0.224223
0.216988
0.210185
0.203778
0.197739
0.192045
0.186664
0.181644
0.176963
0.172625
0.168594
0.164792
0.16114
0.157578
0.154108
0.150682
0.147363
0.144152
0.141061
0.13809
0.135238
0.132498
0.129864
0.127326
0.124879
0.122517
0.120235
0.118028
0.115893
0.231935
0.224225
0.216991
0.210191
0.20379
0.19776
0.192082
0.186727
0.181754
0.17715
0.172847
0.168872
0.165231
0.161667
0.158149
0.154693
0.151242
0.147889
0.144649
0.14153
0.138541
0.13568
0.132938
0.130306
0.127776
0.125341
0.122996
0.120735
0.118555
0.116452
0.231935
0.224225
0.216993
0.210195
0.203798
0.197778
0.192117
0.186794
0.181884
0.177275
0.173052
0.169241
0.165675
0.162237
0.158791
0.155342
0.151863
0.14848
0.145204
0.142074
0.139152
0.136476
0.13405
0.131873
0.129935
0.128219
0.126706
0.125368
0.124218
0.123213
0.231935
0.224225
0.216993
0.210197
0.203805
0.197793
0.19215
0.186882
0.181972
0.177415
0.173631
0.170375
0.167328
0.163923
0.160541
0.157136
0.153774
0.150651
0.148312
0.148046
0.149978
0.153756
0.158922
0.165059
0.171789
0.178778
0.18572
0.192474
0.198801
0.205003
0.231935
0.224225
0.216993
0.210198
0.203809
0.197805
0.192181
0.186967
0.182021
0.177609
0.173477
0.166943
0.161614
0.1559
0.18392
0.187795
0.196358
0.219976
0.258009
0.303317
0.349433
0.392263
0.429905
0.461714
0.4877
0.508261
0.523804
0.535465
0.542581
0.549433
0.231934
0.224224
0.216992
0.210198
0.203812
0.197815
0.192208
0.187029
0.18213
0.177883
0.1743
0.175346
0.203013
0.248488
1.14034
1.14478
1.17097
1.19766
1.21929
1.2312
1.23079
1.21871
1.19722
1.1686
1.13506
1.09868
1.06131
1.02464
0.991962
0.962969
0.231936
0.224226
0.216995
0.210202
0.203819
0.197826
0.192229
0.187031
0.182184
0.178202
0.175775
0.181029
0.62677
2.64702
2.7376
2.49381
2.34064
2.17166
2.01841
1.88253
1.76161
1.65341
1.55568
1.46638
1.38392
1.30717
1.23545
1.1679
1.10512
1.04426
0.231937
0.224229
0.216999
0.210207
0.203824
0.197825
0.192229
0.187032
0.182185
0.178207
0.176215
0.180557
3.56789
2.69804
2.33554
2.10559
1.92305
1.77392
1.65057
1.54671
1.45823
1.38201
1.31536
1.25617
1.20286
1.1543
1.10926
1.06777
1.02704
0.231937
0.224226
0.216995
0.210202
0.203817
0.197815
0.192209
0.187031
0.182134
0.177891
0.174734
0.175478
0.250148
1.61483
2.21883
1.95677
1.73829
1.55279
1.39685
1.26805
1.16191
1.07421
1.00151
0.941813
0.893213
0.854091
0.822857
0.798278
0.777802
0.762952
0.231936
0.224224
0.216991
0.210197
0.203809
0.197806
0.192184
0.186973
0.182029
0.17762
0.173712
0.169072
0.179251
0.409539
0.357736
0.326932
0.306207
0.286964
0.270824
0.258529
0.249606
0.24376
0.241009
0.241359
0.244685
0.250739
0.25909
0.26948
0.2806
0.2941
0.231934
0.224224
0.216992
0.210196
0.203804
0.197794
0.192153
0.18689
0.181981
0.177429
0.173653
0.170446
0.168921
0.167674
0.164084
0.160447
0.156802
0.153274
0.149933
0.14677
0.143753
0.140866
0.138116
0.135543
0.133226
0.131319
0.130004
0.12954
0.13001
0.131236
0.231934
0.224224
0.216991
0.210193
0.203798
0.197779
0.19212
0.186801
0.181898
0.17729
0.17308
0.169284
0.165828
0.162452
0.159102
0.155741
0.152414
0.149215
0.146131
0.143136
0.140213
0.137362
0.134586
0.131887
0.129268
0.126734
0.12429
0.121948
0.119721
0.117631
0.231934
0.224224
0.21699
0.210189
0.203789
0.197761
0.192085
0.186733
0.181766
0.17717
0.172868
0.168891
0.165255
0.161761
0.158331
0.15495
0.151639
0.148476
0.145426
0.142475
0.13961
0.13683
0.134128
0.131497
0.128931
0.126432
0.123997
0.12163
0.119329
0.117095
0.231934
0.224223
0.216987
0.210184
0.203778
0.19774
0.192047
0.186668
0.181652
0.176977
0.172649
0.168633
0.16486
0.161259
0.157762
0.154349
0.151023
0.147835
0.144751
0.141765
0.138867
0.136057
0.13333
0.13068
0.128105
0.125605
0.123184
0.120843
0.118583
0.116403
0.231934
0.224221
0.216984
0.210177
0.203765
0.197716
0.192007
0.186606
0.181553
0.176822
0.172416
0.168315
0.164461
0.160802
0.157271
0.153847
0.150519
0.147323
0.144235
0.141247
0.138355
0.135556
0.132848
0.130226
0.127688
0.125231
0.122853
0.120552
0.118326
0.11617
0.231933
0.22422
0.21698
0.210169
0.20375
0.197691
0.191967
0.186547
0.181468
0.176703
0.172252
0.168105
0.164204
0.160513
0.156966
0.153537
0.15021
0.147012
0.143923
0.140935
0.138044
0.135249
0.132547
0.129932
0.127401
0.124952
0.122582
0.120289
0.118071
0.115925
0.231932
0.224217
0.216975
0.210159
0.203734
0.197664
0.191929
0.186497
0.181403
0.176622
0.172151
0.167986
0.164065
0.160362
0.156808
0.15338
0.150057
0.146859
0.14377
0.140784
0.137895
0.135102
0.132402
0.129791
0.127265
0.124821
0.122459
0.120175
0.117968
0.115833
0.238839
0.237494
0.236014
0.234426
0.232752
0.231009
0.229221
0.227416
0.225627
0.223892
0.222206
0.220472
0.218602
0.216688
0.214822
0.212985
0.211146
0.209288
0.207433
0.205584
0.20374
0.201906
0.200087
0.198282
0.196491
0.194722
0.192973
0.191243
0.189533
0.187849
0.238839
0.237494
0.236014
0.234426
0.232752
0.23101
0.229223
0.227425
0.225653
0.223958
0.22234
0.220679
0.218873
0.216997
0.215151
0.213323
0.211485
0.209625
0.207764
0.205906
0.204051
0.202204
0.200372
0.198552
0.196749
0.194967
0.193203
0.191459
0.189734
0.188035
0.238839
0.237494
0.236014
0.234426
0.232752
0.231011
0.229228
0.227447
0.22572
0.224128
0.222701
0.221237
0.219593
0.21781
0.216007
0.214194
0.212347
0.210472
0.208588
0.206698
0.204809
0.202929
0.201061
0.199209
0.197377
0.195565
0.193772
0.191998
0.190244
0.188514
0.23884
0.237494
0.236014
0.234426
0.232753
0.231014
0.229241
0.227494
0.225864
0.224515
0.223529
0.222528
0.221224
0.219606
0.217871
0.216063
0.214185
0.212261
0.210308
0.208342
0.206376
0.204422
0.202477
0.200555
0.19865
0.196764
0.194895
0.193045
0.191213
0.189405
0.23884
0.237495
0.236014
0.234427
0.232754
0.231021
0.229267
0.227587
0.226161
0.225332
0.225173
0.225026
0.224384
0.223045
0.221422
0.219579
0.217585
0.215525
0.21343
0.211328
0.209226
0.207137
0.205071
0.203033
0.201018
0.199025
0.197051
0.195093
0.193152
0.191225
0.23884
0.237497
0.236016
0.234427
0.232756
0.231032
0.229313
0.227761
0.226734
0.226739
0.227906
0.228651
0.228968
0.228299
0.227022
0.225246
0.223088
0.220768
0.21843
0.216123
0.213874
0.211689
0.209562
0.207481
0.20544
0.203437
0.201474
0.199552
0.197686
0.195841
0.23884
0.237497
0.236019
0.234431
0.232761
0.23105
0.229387
0.228063
0.227743
0.228978
0.232495
0.236171
0.23771
0.237614
0.237284
0.236734
0.235876
0.234785
0.233854
0.23327
0.233011
0.233212
0.233662
0.234251
0.234934
0.235922
0.237348
0.239317
0.241621
0.244379
0.23884
0.237497
0.236019
0.234435
0.23277
0.231077
0.229491
0.228522
0.229007
0.232449
0.23445
0.244342
0.249571
0.250171
0.290663
0.308717
0.330324
0.354567
0.381852
0.412311
0.446483
0.482348
0.516765
0.548049
0.575208
0.598651
0.61807
0.633576
0.645607
0.65504
0.23884
0.237497
0.236019
0.234436
0.232778
0.231103
0.22961
0.229069
0.230435
0.237848
0.24687
0.281737
0.334656
0.36346
2.06402
2.02123
1.93726
1.85136
1.78463
1.74088
1.7162
1.7085
1.71432
1.72357
1.73064
1.73384
1.73234
1.72186
1.69696
1.65834
0.23884
0.237497
0.236019
0.234437
0.232781
0.231116
0.229691
0.22936
0.231647
0.242893
0.26632
0.835204
5.52647
5.36814
2.70923
2.81576
2.76665
2.617
2.45838
2.31249
2.18005
2.05859
1.94572
1.83976
1.73882
1.64178
1.5487
1.45914
1.37566
1.29192
0.23884
0.237497
0.236019
0.234437
0.232781
0.231118
0.229694
0.229363
0.23165
0.242862
0.268108
4.11459
2.94839
2.50713
2.2193
2.00041
1.83724
1.71683
1.62719
1.56026
1.51035
1.47237
1.44218
1.41661
1.39346
1.37009
1.34578
1.31682
0.23884
0.237497
0.236017
0.234436
0.232779
0.231105
0.229614
0.229074
0.230432
0.237767
0.254901
0.62138
5.21196
4.84206
1.40055
1.19382
1.06971
0.986291
0.934306
0.903867
0.88957
0.887268
0.896723
0.915571
0.942212
0.97498
1.01129
1.04829
1.08345
1.11965
0.238839
0.237497
0.236016
0.234435
0.23277
0.231079
0.229495
0.22853
0.229006
0.232387
0.237502
0.260347
0.279877
0.383416
0.317244
0.307048
0.298397
0.290219
0.283316
0.27814
0.27513
0.274687
0.277241
0.283058
0.292277
0.304768
0.320006
0.337212
0.355883
0.375872
0.238839
0.237497
0.236019
0.234431
0.232762
0.231051
0.229391
0.228074
0.227751
0.228964
0.232394
0.235983
0.238353
0.239436
0.239207
0.237839
0.236187
0.23448
0.232708
0.230912
0.229144
0.227448
0.225863
0.224404
0.223082
0.221892
0.22079
0.219814
0.21901
0.21848
0.23884
0.237497
0.236017
0.234428
0.232757
0.231033
0.229316
0.227771
0.22676
0.226773
0.227913
0.228618
0.229258
0.229041
0.227997
0.226459
0.224709
0.222843
0.220904
0.21892
0.2169
0.214857
0.212788
0.21069
0.208563
0.206415
0.204246
0.202074
0.199907
0.197754
0.23884
0.237495
0.236015
0.234427
0.232754
0.231022
0.229269
0.227595
0.226184
0.225395
0.225264
0.225131
0.224676
0.223579
0.222115
0.220512
0.218794
0.217015
0.215204
0.213366
0.211501
0.209615
0.207713
0.205806
0.203894
0.201982
0.200067
0.198148
0.196231
0.194318
0.23884
0.237494
0.236014
0.234427
0.232753
0.231015
0.229243
0.227499
0.22588
0.224562
0.223638
0.222725
0.221523
0.219983
0.218296
0.216594
0.214849
0.213077
0.211286
0.209478
0.207658
0.20583
0.203994
0.202161
0.200328
0.198498
0.196672
0.194843
0.193017
0.191202
0.238839
0.237494
0.236014
0.234427
0.232753
0.231012
0.229229
0.22745
0.22573
0.224159
0.222779
0.221382
0.219801
0.218037
0.216242
0.214484
0.21272
0.210942
0.209159
0.207371
0.20558
0.20379
0.201999
0.200213
0.198435
0.196666
0.194908
0.193162
0.191433
0.189722
0.238839
0.237494
0.236014
0.234427
0.232752
0.23101
0.229224
0.227426
0.22566
0.22398
0.222396
0.220784
0.219014
0.217136
0.215283
0.213488
0.211708
0.209918
0.208131
0.206344
0.204558
0.202774
0.200996
0.199221
0.197455
0.195703
0.193964
0.19224
0.190533
0.188848
0.238838
0.237493
0.236013
0.234425
0.232751
0.231008
0.22922
0.227415
0.22563
0.223908
0.222251
0.220559
0.218718
0.216797
0.214921
0.213111
0.211321
0.209523
0.207731
0.205942
0.204154
0.20237
0.200593
0.198824
0.197062
0.195315
0.193584
0.191869
0.190171
0.188498
0.239049
0.238078
0.237094
0.236095
0.235083
0.234061
0.233043
0.23205
0.231131
0.230319
0.229585
0.228774
0.227747
0.226612
0.2255
0.224403
0.223281
0.22212
0.220943
0.219753
0.218555
0.217352
0.216148
0.214942
0.213731
0.212522
0.211318
0.210116
0.208917
0.207729
0.239049
0.238078
0.237094
0.236096
0.235084
0.234063
0.233051
0.232071
0.231185
0.23044
0.229818
0.22913
0.228197
0.227124
0.226044
0.224962
0.223846
0.222685
0.221502
0.220306
0.219101
0.21789
0.216679
0.215464
0.214247
0.213034
0.211824
0.210616
0.20941
0.208214
0.239049
0.238078
0.237094
0.236096
0.235086
0.23407
0.233069
0.232124
0.231319
0.230746
0.230416
0.230036
0.229339
0.228407
0.227392
0.226335
0.225214
0.224039
0.222834
0.221612
0.220383
0.219151
0.217918
0.216686
0.215453
0.214228
0.213004
0.211783
0.210563
0.209354
0.23905
0.238078
0.237095
0.236098
0.23509
0.234082
0.233103
0.232222
0.231582
0.231372
0.231488
0.23163
0.231415
0.23077
0.2299
0.228887
0.227752
0.226541
0.225287
0.22401
0.222727
0.221447
0.220165
0.218891
0.217621
0.216357
0.215096
0.213836
0.212579
0.211331
0.239051
0.238079
0.237095
0.2361
0.235096
0.2341
0.233159
0.232395
0.232068
0.232306
0.233128
0.233993
0.234475
0.234433
0.233948
0.233076
0.231915
0.230623
0.229283
0.227933
0.226591
0.225262
0.223944
0.222643
0.221355
0.220073
0.218793
0.217511
0.216228
0.214944
0.239051
0.23808
0.237097
0.236102
0.235104
0.234127
0.233248
0.232686
0.232783
0.233761
0.235979
0.237946
0.239318
0.23988
0.24
0.239608
0.238542
0.237154
0.235661
0.234154
0.232661
0.231201
0.229782
0.228409
0.227064
0.22574
0.224429
0.223128
0.221838
0.220565
0.239051
0.238082
0.2371
0.236107
0.235114
0.234162
0.233376
0.233149
0.233782
0.236054
0.24076
0.245944
0.248785
0.250342
0.251487
0.251828
0.251519
0.250584
0.249619
0.24889
0.248409
0.248109
0.247896
0.247743
0.247608
0.247464
0.2473
0.247094
0.246893
0.246635
0.239051
0.238083
0.237102
0.236112
0.235128
0.234207
0.233537
0.233648
0.235079
0.239669
0.243093
0.256811
0.266208
0.270089
0.296339
0.302782
0.306615
0.310005
0.31397
0.319093
0.325482
0.332795
0.340653
0.348564
0.356115
0.363036
0.369207
0.374613
0.379525
0.384129
0.239051
0.238083
0.237105
0.236117
0.235143
0.234247
0.233711
0.234119
0.236502
0.245078
0.254727
0.296981
0.439389
0.421261
1.75364
1.53644
1.3991
1.30766
1.24355
1.1995
1.16751
1.14254
1.11947
1.09423
1.06356
1.02549
0.980114
0.928294
0.874276
0.820546
0.239051
0.238084
0.237105
0.236121
0.235152
0.234273
0.233828
0.234444
0.237801
0.250436
0.272082
0.786607
12.6263
5.57885
3.15945
2.55248
2.17405
1.9012
1.69108
1.52614
1.39152
1.27881
1.18217
1.09744
1.02187
0.953853
0.892296
0.836198
0.785344
0.738263
0.239051
0.238084
0.237106
0.236119
0.235149
0.234273
0.233829
0.234446
0.237804
0.250431
0.273608
4.95223
3.00638
2.31084
1.91061
1.63908
1.43828
1.28433
1.16254
1.06542
0.986886
0.923035
0.870844
0.827646
0.791365
0.760114
0.732734
0.707192
0.239051
0.238082
0.237102
0.236115
0.235141
0.234248
0.233716
0.234126
0.236508
0.245047
0.259774
0.655366
13.1952
6.28568
1.37443
1.15522
0.993059
0.872769
0.782448
0.714506
0.663658
0.626471
0.600915
0.585203
0.578363
0.578775
0.585304
0.595452
0.607278
0.617069
0.23905
0.238082
0.237099
0.236112
0.235129
0.23421
0.233544
0.233657
0.235088
0.239656
0.246247
0.276818
0.303591
0.317178
0.302674
0.305517
0.305442
0.302641
0.298661
0.294248
0.289807
0.285565
0.281849
0.278776
0.276611
0.275491
0.275528
0.276701
0.279025
0.28229
0.23905
0.238082
0.2371
0.236108
0.235116
0.234165
0.233383
0.233169
0.233806
0.236083
0.240797
0.24615
0.249646
0.252158
0.253455
0.253802
0.253699
0.25308
0.251944
0.25046
0.248759
0.246948
0.245116
0.243325
0.241634
0.240069
0.238662
0.237415
0.236348
0.235414
0.239051
0.238081
0.237098
0.236103
0.235106
0.23413
0.233255
0.232705
0.232814
0.233814
0.236064
0.238119
0.2398
0.240635
0.240835
0.240615
0.239992
0.239078
0.237987
0.23677
0.235453
0.234059
0.232605
0.231117
0.229607
0.228078
0.226522
0.22496
0.223405
0.221868
0.239051
0.23808
0.237096
0.236101
0.235097
0.234103
0.233166
0.232411
0.23211
0.232377
0.23325
0.234181
0.234803
0.234924
0.234692
0.234094
0.233204
0.232152
0.231
0.229775
0.228492
0.227165
0.225807
0.224432
0.223051
0.221669
0.220287
0.218904
0.217531
0.216176
0.23905
0.238079
0.237095
0.236099
0.235091
0.234085
0.233108
0.232235
0.231615
0.231455
0.23162
0.231834
0.231736
0.231244
0.230483
0.22959
0.228586
0.227505
0.22636
0.225166
0.223933
0.222675
0.221395
0.220104
0.218805
0.217503
0.216201
0.214896
0.213593
0.212299
0.23905
0.238078
0.237095
0.236097
0.235087
0.234073
0.233073
0.232133
0.231343
0.230808
0.230552
0.230279
0.229677
0.228791
0.227799
0.226787
0.225733
0.224632
0.223493
0.222323
0.221128
0.219915
0.218687
0.217449
0.216203
0.214957
0.213711
0.212466
0.211226
0.209996
0.239049
0.238078
0.237095
0.236096
0.235085
0.234066
0.233055
0.23208
0.231205
0.230489
0.229924
0.229314
0.228441
0.227376
0.226287
0.225225
0.22415
0.223044
0.221912
0.220756
0.219581
0.218389
0.217186
0.215973
0.214752
0.21353
0.21231
0.211092
0.209877
0.208674
0.239049
0.238078
0.237094
0.236095
0.235083
0.234062
0.233045
0.232056
0.231146
0.230358
0.229672
0.228926
0.227944
0.226804
0.225674
0.224588
0.223501
0.22239
0.221256
0.220102
0.21893
0.217743
0.216547
0.215344
0.214133
0.212921
0.211712
0.210504
0.209299
0.208107
0.239058
0.238111
0.237169
0.236233
0.235304
0.234386
0.23349
0.232641
0.231878
0.231225
0.230654
0.230027
0.229229
0.228342
0.227473
0.226619
0.225746
0.224847
0.223934
0.223011
0.222082
0.22115
0.220218
0.219284
0.21835
0.217413
0.216477
0.215542
0.214607
0.213682
0.239058
0.238111
0.237169
0.236233
0.235305
0.234389
0.233498
0.232663
0.23193
0.231339
0.230871
0.23036
0.229654
0.228826
0.227993
0.227159
0.226296
0.225399
0.224487
0.223563
0.222634
0.221702
0.22077
0.219836
0.2189
0.217964
0.217028
0.216094
0.215159
0.214234
0.239058
0.238111
0.23717
0.236234
0.235307
0.234396
0.233518
0.232714
0.232057
0.231623
0.231419
0.231192
0.230713
0.23002
0.229259
0.228457
0.2276
0.2267
0.225779
0.224846
0.223909
0.222972
0.222035
0.221099
0.220161
0.219226
0.218291
0.217358
0.216424
0.215498
0.239058
0.238111
0.23717
0.236236
0.235311
0.234408
0.233553
0.232807
0.2323
0.232188
0.23241
0.232655
0.232615
0.232193
0.231569
0.230815
0.229955
0.229038
0.228095
0.227138
0.226179
0.225223
0.22427
0.223318
0.222369
0.221422
0.220479
0.219538
0.218596
0.217664
0.239059
0.238112
0.237171
0.236238
0.235317
0.234426
0.233606
0.232966
0.232735
0.233043
0.233849
0.234693
0.235254
0.235363
0.23505
0.234417
0.233547
0.232598
0.23162
0.230647
0.229691
0.228747
0.22781
0.22688
0.225957
0.225036
0.224118
0.223199
0.222277
0.221357
0.239059
0.238112
0.237172
0.23624
0.235325
0.234451
0.233687
0.233226
0.233397
0.234306
0.236178
0.238049
0.239322
0.23996
0.24018
0.239942
0.239179
0.238203
0.237164
0.236127
0.235109
0.234111
0.233122
0.232154
0.231195
0.230253
0.229322
0.228399
0.227484
0.226583
0.239059
0.238113
0.237172
0.236243
0.235335
0.234483
0.233801
0.233623
0.234245
0.236168
0.239984
0.244116
0.24672
0.24809
0.248989
0.249281
0.248745
0.247755
0.246694
0.245715
0.244845
0.244068
0.243361
0.242711
0.242097
0.241512
0.240947
0.240391
0.239853
0.239317
0.23906
0.238115
0.237175
0.236246
0.235345
0.234519
0.233939
0.234094
0.235326
0.239068
0.242252
0.253368
0.261271
0.264627
0.273966
0.274714
0.273948
0.272442
0.271165
0.270406
0.270113
0.270169
0.270458
0.270868
0.271347
0.271818
0.27223
0.272522
0.272751
0.272714
0.239061
0.238116
0.237178
0.236251
0.235359
0.234553
0.23408
0.234483
0.236463
0.242998
0.250438
0.278955
0.33052
0.337427
0.509584
0.474904
0.446967
0.427819
0.4169
0.409946
0.403385
0.395185
0.384573
0.371782
0.357356
0.342332
0.327694
0.315339
0.30485
0.295816
0.239061
0.238117
0.23718
0.236257
0.23537
0.234581
0.234185
0.234752
0.237427
0.24702
0.261004
0.648063
13.5326
10.4588
2.58198
2.066
1.71124
1.4545
1.25976
1.11066
0.99103
0.89293
0.811669
0.742792
0.683628
0.632271
0.587347
0.547823
0.512885
0.4818
0.23906
0.238116
0.23718
0.236255
0.235365
0.23458
0.234185
0.234752
0.237428
0.247027
0.26244
0.686744
8.42316
8.92439
2.66518
2.13832
1.78266
1.52736
1.33492
1.18365
1.06053
0.958283
0.871523
0.796679
0.732028
0.675636
0.626305
0.583051
0.545041
0.511491
0.239059
0.238114
0.237176
0.236249
0.235354
0.234554
0.234084
0.234489
0.236469
0.242992
0.252915
0.503214
17.6086
4.94305
0.482361
0.452762
0.427477
0.405998
0.387932
0.372661
0.359639
0.34848
0.338858
0.330488
0.323319
0.317103
0.311763
0.307111
0.303019
0.299275
0.239058
0.238113
0.237174
0.236247
0.235346
0.234522
0.233945
0.234104
0.235336
0.239072
0.244486
0.264284
0.279649
0.287267
0.277981
0.278486
0.27808
0.276347
0.274047
0.271499
0.268847
0.266161
0.263539
0.261022
0.2587
0.256622
0.254839
0.253327
0.252107
0.251125
0.239059
0.238113
0.237173
0.236244
0.235336
0.234486
0.233808
0.233641
0.234268
0.236201
0.240048
0.244347
0.247348
0.249342
0.250474
0.250962
0.251057
0.25075
0.249987
0.248929
0.24768
0.246303
0.244856
0.243382
0.241922
0.240497
0.239135
0.237843
0.236634
0.235508
0.239059
0.238112
0.237172
0.236241
0.235327
0.234454
0.233694
0.233244
0.233426
0.234355
0.236268
0.238234
0.239689
0.240544
0.240903
0.240907
0.240533
0.239902
0.239104
0.238194
0.237203
0.236151
0.235045
0.233914
0.232762
0.231607
0.230447
0.22929
0.228145
0.227023
0.239059
0.238112
0.237171
0.236238
0.235319
0.234429
0.233612
0.232982
0.232773
0.233106
0.233957
0.234865
0.23552
0.235734
0.235666
0.23525
0.234599
0.233836
0.232986
0.232072
0.231107
0.230106
0.229076
0.228029
0.226975
0.225922
0.224873
0.223827
0.22279
0.221772
0.239058
0.238112
0.237171
0.236236
0.235313
0.234411
0.233558
0.23282
0.23233
0.232263
0.232526
0.232833
0.232895
0.232592
0.232079
0.231435
0.230687
0.229871
0.229001
0.228084
0.227133
0.226157
0.225166
0.224163
0.223153
0.222139
0.221132
0.220124
0.21912
0.21813
0.239058
0.238111
0.23717
0.236235
0.235309
0.234399
0.233523
0.232724
0.232081
0.231681
0.231542
0.231403
0.231005
0.230359
0.22963
0.228872
0.228069
0.227225
0.226348
0.225442
0.224512
0.223567
0.22261
0.221645
0.22067
0.219696
0.218722
0.217751
0.216784
0.215826
0.239058
0.238111
0.23717
0.236234
0.235306
0.234392
0.233503
0.232672
0.231951
0.231386
0.230967
0.230522
0.229869
0.229055
0.228225
0.22741
0.226581
0.225723
0.224846
0.223945
0.223027
0.222095
0.221154
0.220205
0.219249
0.218291
0.217333
0.216378
0.215426
0.214483
0.239058
0.238111
0.237169
0.236233
0.235304
0.234388
0.233493
0.232648
0.231894
0.231264
0.230735
0.230165
0.229407
0.228524
0.227648
0.226805
0.22596
0.225093
0.224209
0.223306
0.222387
0.221456
0.220518
0.219574
0.218627
0.217675
0.216725
0.215776
0.214829
0.213894
0.239058
0.238113
0.237174
0.236243
0.235323
0.234416
0.233531
0.232693
0.231927
0.231251
0.23064
0.229994
0.229233
0.228409
0.227598
0.2268
0.225993
0.225169
0.224339
0.223506
0.222672
0.221839
0.221009
0.220181
0.219355
0.218532
0.21771
0.216891
0.216074
0.215268
0.239058
0.238113
0.237174
0.236244
0.235324
0.234419
0.233538
0.232711
0.23197
0.231342
0.230809
0.230254
0.229566
0.228791
0.228011
0.227231
0.226434
0.225616
0.224791
0.223961
0.22313
0.2223
0.221473
0.220649
0.219827
0.219008
0.218189
0.217373
0.21656
0.215758
0.239058
0.238113
0.237175
0.236245
0.235326
0.234425
0.233554
0.232754
0.232072
0.231564
0.231232
0.230903
0.230391
0.22973
0.229014
0.228266
0.227484
0.22667
0.225848
0.225019
0.22419
0.223363
0.222541
0.221722
0.220906
0.220093
0.219282
0.218474
0.217669
0.216874
0.239058
0.238113
0.237175
0.236246
0.235329
0.234435
0.233584
0.232829
0.232263
0.232001
0.232084
0.232186
0.231999
0.231539
0.230923
0.230215
0.229439
0.228617
0.227786
0.226948
0.22611
0.225276
0.224449
0.223629
0.222813
0.222
0.221194
0.220391
0.219592
0.218803
0.239059
0.238113
0.237176
0.236247
0.235334
0.234449
0.233628
0.232955
0.232602
0.23275
0.233267
0.233854
0.234175
0.234148
0.233747
0.233124
0.232358
0.231536
0.230696
0.229854
0.22902
0.228198
0.227388
0.226588
0.225796
0.225012
0.224233
0.22346
0.222689
0.221927
0.239059
0.238114
0.237176
0.236249
0.23534
0.23447
0.233693
0.233155
0.233168
0.233754
0.23504
0.236426
0.237345
0.23778
0.237851
0.237467
0.236777
0.235985
0.235149
0.234313
0.23349
0.232678
0.231875
0.231081
0.230295
0.22952
0.228756
0.228
0.22725
0.22651
0.239059
0.238114
0.237177
0.236252
0.235348
0.234496
0.233781
0.233455
0.233827
0.235152
0.237854
0.240349
0.242153
0.24315
0.243649
0.243789
0.243435
0.24278
0.241989
0.24117
0.240367
0.239582
0.238817
0.23807
0.237342
0.23663
0.23594
0.235264
0.234605
0.233961
0.239059
0.238114
0.237179
0.236254
0.235357
0.234525
0.233888
0.233849
0.234673
0.237142
0.24231
0.248423
0.251884
0.253635
0.254473
0.254615
0.254051
0.25323
0.252366
0.251576
0.250902
0.250309
0.249752
0.249226
0.248734
0.248269
0.24783
0.247398
0.24698
0.246535
0.23906
0.238115
0.237181
0.236258
0.235366
0.234551
0.233989
0.234181
0.235503
0.23961
0.244092
0.260031
0.272167
0.276256
0.280473
0.279325
0.276977
0.274334
0.271756
0.269319
0.26699
0.264764
0.26255
0.260359
0.258208
0.256122
0.25411
0.252191
0.250378
0.248645
0.239061
0.238117
0.237184
0.236264
0.235376
0.234571
0.234059
0.234372
0.236135
0.241854
0.249597
0.298583
0.380038
0.379946
0.382298
0.378466
0.371175
0.362411
0.353096
0.343818
0.3348
0.32614
0.317721
0.309695
0.302117
0.294945
0.288184
0.281827
0.275863
0.270265
0.23906
0.238115
0.237182
0.236262
0.235374
0.234572
0.23406
0.234373
0.236136
0.241855
0.250012
0.317864
0.487088
0.54197
0.390569
0.387452
0.380558
0.372604
0.364283
0.355874
0.347426
0.3391
0.330794
0.322691
0.314777
0.307141
0.299781
0.292727
0.285998
0.279584
0.239059
0.238114
0.237178
0.236257
0.235364
0.234552
0.233992
0.234186
0.235508
0.239612
0.245808
0.271012
0.294978
0.299705
0.283999
0.284519
0.283261
0.28082
0.277941
0.275032
0.272109
0.269159
0.266192
0.263234
0.260337
0.257554
0.254921
0.252459
0.250187
0.248083
0.239059
0.238114
0.237178
0.236255
0.235358
0.234527
0.233894
0.233861
0.234686
0.237158
0.242358
0.248681
0.252602
0.255037
0.256341
0.256986
0.25735
0.257386
0.257015
0.256178
0.255016
0.253625
0.252083
0.250461
0.248824
0.247224
0.245697
0.244261
0.242931
0.24171
0.239059
0.238114
0.237177
0.236252
0.23535
0.234498
0.233787
0.233469
0.233848
0.235179
0.237901
0.240514
0.242537
0.24385
0.244565
0.24493
0.245031
0.244916
0.244446
0.243724
0.242834
0.241826
0.240741
0.239607
0.238455
0.237306
0.236176
0.235076
0.234013
0.232999
0.239059
0.238114
0.237177
0.23625
0.235342
0.234473
0.233698
0.23317
0.233202
0.233805
0.235121
0.236565
0.237574
0.238157
0.238377
0.238332
0.23794
0.237392
0.236719
0.235958
0.235132
0.234256
0.233342
0.232403
0.231448
0.230492
0.229537
0.228591
0.227658
0.226746
0.239059
0.238113
0.237176
0.236248
0.235335
0.234452
0.233634
0.232968
0.232633
0.232802
0.233355
0.233993
0.23437
0.234468
0.234247
0.233802
0.233205
0.232526
0.231783
0.230983
0.23014
0.229268
0.228376
0.227474
0.226566
0.225661
0.224764
0.223874
0.222996
0.222138
0.239059
0.238113
0.237175
0.236246
0.23533
0.234437
0.233588
0.23284
0.232289
0.232059
0.232176
0.232325
0.232238
0.231866
0.231335
0.230714
0.230022
0.229273
0.228492
0.227676
0.226834
0.225977
0.22511
0.224238
0.223364
0.222488
0.221619
0.220754
0.219896
0.219053
0.239059
0.238113
0.237175
0.236245
0.235327
0.234427
0.233558
0.232762
0.232092
0.23161
0.231326
0.23106
0.23061
0.229989
0.229306
0.228598
0.227858
0.227084
0.226291
0.225476
0.224646
0.223805
0.222958
0.222108
0.221256
0.220404
0.219555
0.218709
0.217872
0.217045
0.239058
0.238113
0.237175
0.236245
0.235325
0.234421
0.233542
0.23272
0.231988
0.231381
0.230885
0.23038
0.229732
0.228976
0.228207
0.227445
0.226674
0.225881
0.225077
0.224258
0.223429
0.222592
0.221751
0.220908
0.220064
0.219222
0.21838
0.217543
0.216711
0.21589
0.239058
0.238112
0.237174
0.236243
0.235323
0.234417
0.233533
0.232699
0.231941
0.231283
0.230704
0.230101
0.229372
0.228558
0.227751
0.226965
0.226177
0.225375
0.224563
0.223739
0.222906
0.222068
0.221227
0.220386
0.219544
0.218704
0.217866
0.217031
0.2162
0.215382
0.239058
0.238113
0.237174
0.236244
0.235324
0.234417
0.233529
0.232681
0.23189
0.231166
0.230488
0.22979
0.229018
0.228203
0.227396
0.226598
0.225797
0.224987
0.224175
0.223363
0.222553
0.221747
0.220945
0.220148
0.219355
0.218567
0.217783
0.217003
0.216226
0.215462
0.239058
0.238113
0.237175
0.236244
0.235324
0.234419
0.233534
0.232696
0.231923
0.231233
0.23061
0.229976
0.229257
0.22848
0.227696
0.226913
0.226121
0.225315
0.224508
0.223701
0.222894
0.222092
0.221294
0.220501
0.219713
0.218929
0.21815
0.217374
0.216603
0.215844
0.239058
0.238113
0.237175
0.236245
0.235326
0.234424
0.233547
0.232728
0.231999
0.231394
0.230909
0.230433
0.229843
0.229151
0.228417
0.22766
0.226883
0.226085
0.225285
0.224482
0.223682
0.222886
0.222096
0.221311
0.220533
0.219759
0.218989
0.218223
0.217462
0.216713
0.239059
0.238113
0.237175
0.236246
0.235329
0.234432
0.233569
0.232785
0.232138
0.231702
0.231499
0.231339
0.230994
0.230455
0.229799
0.22908
0.228317
0.227523
0.226726
0.225925
0.225126
0.224333
0.223548
0.22277
0.221999
0.221234
0.220473
0.219718
0.218968
0.218231
0.239059
0.238113
0.237176
0.236247
0.235333
0.234443
0.233604
0.232877
0.232377
0.232251
0.232475
0.232751
0.232836
0.232554
0.232018
0.231347
0.230592
0.229795
0.228989
0.228178
0.227374
0.226582
0.225803
0.225036
0.224281
0.223534
0.222794
0.222063
0.221338
0.220625
0.239059
0.238114
0.237176
0.236249
0.235338
0.234459
0.233652
0.233018
0.232766
0.233038
0.233762
0.234591
0.235107
0.235282
0.235007
0.234462
0.233749
0.232991
0.232196
0.231395
0.230605
0.22983
0.229071
0.228327
0.227597
0.226878
0.226169
0.22547
0.224779
0.2241
0.239059
0.238114
0.237177
0.236251
0.235344
0.234478
0.233715
0.233222
0.233332
0.234063
0.235636
0.237312
0.238436
0.239011
0.239182
0.239013
0.238514
0.237841
0.23706
0.236243
0.235425
0.234628
0.233852
0.233098
0.232363
0.231645
0.230946
0.230261
0.229592
0.228939
0.239059
0.238115
0.237179
0.236253
0.23535
0.234499
0.233789
0.233482
0.233894
0.235324
0.238324
0.241114
0.243088
0.244096
0.244588
0.244813
0.24475
0.244299
0.243597
0.242782
0.241937
0.241115
0.240328
0.239578
0.23886
0.238173
0.237511
0.236871
0.236248
0.235632
0.23906
0.238116
0.237183
0.236257
0.235356
0.234518
0.233859
0.233743
0.234478
0.23676
0.241562
0.247203
0.250459
0.251854
0.252462
0.252578
0.25237
0.25179
0.250962
0.249986
0.248926
0.247843
0.246755
0.245683
0.244627
0.243605
0.242623
0.241679
0.240768
0.239876
0.239061
0.238116
0.237185
0.236262
0.235362
0.234531
0.233906
0.233934
0.234887
0.238001
0.2449
0.253854
0.259614
0.26146
0.262425
0.262444
0.261772
0.260746
0.259455
0.257961
0.25634
0.254652
0.252894
0.251119
0.249326
0.247548
0.245797
0.244075
0.242385
0.240733