/*--------------------------------*- C++ -*----------------------------------*\
| =========                 |                                                 |
| \\      /  F ield         | OpenFOAM: The Open Source CFD Toolbox           |
|  \\    /   O peration     | Version:  2512                                  |
|   \\  /    A nd           | Website:  www.openfoam.com                      |
|    \\/     M anipulation  |                                                 |
\*---------------------------------------------------------------------------*/
FoamFile
{
    version     2.0;
    format      ascii;
    arch        "LSB;label=32;scalar=64";
    class       volScalarField;
    location    "220";
    object      k;
}
// * * * * * * * * * * * * * * * * * * * * * * * * * * * * * * * * * * * * * //

dimensions      [0 2 -2 0 0 0 0];

internalField   nonuniform List<scalar> 
90398
(
0.231943
0.224238
0.216996
0.210171
0.20375
0.197706
0.192
0.186638
0.181612
0.176906
0.172531
0.168458
0.164618
0.161028
0.157647
0.154462
0.151465
0.148705
0.146189
0.143924
0.141902
0.140125
0.138531
0.137425
0.147796
0.340706
1.46046
4.90121
10.3309
16.2221
0.231943
0.22424
0.217003
0.210184
0.203768
0.197729
0.19203
0.186676
0.181659
0.176963
0.172604
0.168545
0.164718
0.161137
0.157757
0.154571
0.15157
0.148813
0.146302
0.144046
0.142038
0.140278
0.138761
0.139903
0.20825
0.854684
3.03086
7.10414
12.3232
17.6648
0.231944
0.224243
0.217014
0.210201
0.203794
0.197764
0.192072
0.186736
0.181739
0.177068
0.172748
0.168725
0.164927
0.161369
0.158
0.154814
0.151811
0.149063
0.146564
0.144326
0.142345
0.140631
0.139509
0.152543
0.396941
1.81808
5.01572
9.46466
14.2864
19.037
0.231945
0.224246
0.217023
0.210219
0.203819
0.1978
0.192118
0.186803
0.181842
0.177225
0.172978
0.169018
0.165273
0.161762
0.158419
0.155245
0.152254
0.149529
0.14706
0.144862
0.142938
0.141335
0.141843
0.195421
0.786153
3.01922
6.74481
11.1615
15.6365
19.9456
0.231946
0.224249
0.217029
0.210234
0.203841
0.197834
0.192167
0.186882
0.181977
0.177438
0.173274
0.169428
0.165819
0.162413
0.159147
0.15603
0.1531
0.150453
0.148076
0.145991
0.144216
0.142963
0.148513
0.289988
1.3625
4.10585
7.94203
12.2184
16.4592
20.4449
0.231951
0.22425
0.217032
0.210247
0.20386
0.19786
0.192226
0.186976
0.182119
0.17763
0.173657
0.169907
0.166465
0.163251
0.160142
0.157158
0.154358
0.151863
0.149672
0.147848
0.146503
0.146282
0.161446
0.415118
1.7874
4.62051
8.43123
12.6542
16.7903
20.5936
0.231955
0.224259
0.217034
0.210255
0.203876
0.197885
0.192281
0.18707
0.1822
0.178069
0.175872
0.172534
0.168946
0.165652
0.162685
0.159966
0.157517
0.155403
0.153875
0.153207
0.153958
0.157565
0.180523
0.432885
1.66796
4.34684
8.18062
12.5273
16.7707
20.5388
0.231956
0.224267
0.217047
0.210276
0.203895
0.197912
0.192331
0.187092
0.182346
0.177844
0.178925
0.185492
0.172245
0.161114
0.185587
0.181412
0.179687
0.179524
0.180878
0.184411
0.194368
0.21128
0.242248
0.388767
1.23414
3.69326
7.74113
12.4431
16.924
20.6617
0.231956
0.224266
0.217058
0.210295
0.203925
0.197933
0.192368
0.18714
0.182012
0.174445
0.431603
0.719461
0.540063
0.364241
0.448908
0.45066
0.459395
0.465763
0.470416
0.473624
0.474016
0.480078
0.500667
0.642378
1.57502
4.34912
8.81714
13.6573
17.9904
21.3734
0.231955
0.224265
0.217053
0.210285
0.203928
0.197942
0.192391
0.187203
0.182285
0.175425
2.3256
3.60526
2.70171
1.31707
1.57913
1.37908
1.2332
1.12748
1.0537
1.00398
0.970619
0.943731
0.964635
1.41435
3.35692
7.08563
11.6078
15.9494
19.6777
22.4856
0.231955
0.224263
0.217049
0.210279
0.203919
0.197928
0.192372
0.187163
0.182259
0.175988
4.0136
3.363
2.57281
2.67923
2.22862
1.90328
1.66942
1.49762
1.36619
1.26101
1.18766
1.30779
2.38251
5.21843
9.38917
13.8498
17.8714
21.1911
23.5617
0.231954
0.224261
0.217048
0.210278
0.2039
0.197895
0.192312
0.187059
0.181935
0.174871
0.18665
0.703406
2.09091
2.32787
1.9233
1.83489
1.71305
1.58615
1.46296
1.33029
1.18289
1.03524
1.22513
2.98429
6.69442
11.2972
15.7584
19.5482
22.541
24.5338
0.231954
0.224259
0.217031
0.210251
0.203856
0.197854
0.192242
0.187008
0.182102
0.17712
0.169029
0.171846
0.192241
0.220652
0.229445
0.261852
0.289598
0.303097
0.300742
0.291022
0.278419
0.297499
0.986843
3.71936
8.09833
12.9138
17.3114
20.8979
23.6284
25.3064
0.231953
0.22425
0.217015
0.210224
0.203828
0.197813
0.192171
0.186894
0.181974
0.17741
0.173181
0.16927
0.165842
0.162359
0.158985
0.155732
0.152717
0.149938
0.14734
0.145105
0.145113
0.21232
1.12806
4.41063
9.13438
14.0516
18.3968
21.8465
24.4
25.8423
0.231949
0.224241
0.217014
0.210215
0.203808
0.197781
0.192106
0.186786
0.181844
0.177234
0.172911
0.168874
0.165017
0.16126
0.157571
0.153974
0.150534
0.147345
0.144521
0.142202
0.142079
0.201748
1.04002
4.45237
9.38079
14.4596
18.8905
22.3478
24.8465
26.1498
0.231944
0.224241
0.217012
0.210203
0.20379
0.197755
0.192045
0.186694
0.181679
0.176983
0.172604
0.168441
0.164504
0.160678
0.156967
0.153385
0.14998
0.146906
0.144195
0.141943
0.141458
0.186435
0.884654
4.18323
9.21463
14.4594
19.0295
22.5604
25.0666
26.2891
0.231944
0.22424
0.217008
0.210191
0.203773
0.197727
0.192002
0.186621
0.181559
0.176783
0.172311
0.168078
0.164035
0.160155
0.156439
0.152893
0.149538
0.146497
0.1438
0.141533
0.140535
0.170488
0.707562
3.69766
8.69704
14.0797
18.8267
22.491
25.0639
26.2652
0.231943
0.224238
0.217002
0.210179
0.203755
0.197698
0.191964
0.186563
0.181468
0.176649
0.172122
0.167842
0.16375
0.159839
0.156105
0.152558
0.149211
0.14617
0.143464
0.141166
0.139756
0.1574
0.537093
3.09478
7.91595
13.3746
18.3112
22.1545
24.847
26.1117
0.231943
0.224237
0.216995
0.210167
0.203736
0.19767
0.191929
0.186507
0.18139
0.176549
0.171993
0.167688
0.163569
0.159641
0.155888
0.152324
0.148969
0.145912
0.143185
0.140851
0.139147
0.148233
0.396327
2.43697
6.97519
12.4312
17.5425
21.5863
24.4366
25.8208
0.231944
0.224238
0.216994
0.210162
0.203726
0.197654
0.191901
0.186467
0.181338
0.176487
0.171918
0.167602
0.163472
0.159534
0.155767
0.152175
0.148799
0.145721
0.142971
0.140604
0.138717
0.1428
0.299732
1.89925
6.11756
11.4975
16.7161
20.9191
23.9244
25.4533
0.238838
0.237494
0.236013
0.234423
0.23275
0.231023
0.229257
0.227496
0.22578
0.224127
0.222483
0.220765
0.21896
0.217133
0.215334
0.213601
0.211986
0.210532
0.209319
0.208378
0.207799
0.207621
0.207993
0.220034
0.499797
2.54351
9.31293
22.7985
39.8663
52.6505
0.238838
0.237493
0.236013
0.234424
0.232752
0.231025
0.229259
0.227508
0.225813
0.224207
0.222623
0.220939
0.219152
0.217323
0.215517
0.213782
0.212172
0.210724
0.209517
0.208585
0.208021
0.207919
0.210375
0.286934
1.24401
5.49674
15.0216
29.093
44.0093
55.1168
0.238838
0.237494
0.236014
0.234426
0.232755
0.231029
0.229267
0.227539
0.225906
0.224428
0.223006
0.221419
0.219694
0.217874
0.216063
0.214334
0.212735
0.211307
0.21012
0.209221
0.208711
0.208983
0.222417
0.521234
2.75517
9.90426
21.9772
35.3934
47.8217
57.4349
0.238838
0.237494
0.236016
0.234428
0.232757
0.231037
0.229287
0.227609
0.226123
0.224959
0.223926
0.222599
0.221026
0.219254
0.217458
0.215751
0.214185
0.212797
0.211666
0.210851
0.2105
0.212196
0.26664
1.05126
5.09731
14.7992
27.2831
39.3954
50.4492
59.0951
0.238838
0.237494
0.236016
0.23443
0.232766
0.231054
0.229331
0.227759
0.226616
0.226167
0.225924
0.225183
0.223918
0.2223
0.220599
0.218941
0.217413
0.216074
0.21504
0.214402
0.214448
0.220435
0.373685
1.89412
7.83376
18.9
30.6006
41.9004
52.1102
60.1487
0.238838
0.237494
0.236016
0.234432
0.232773
0.23109
0.22943
0.228073
0.227647
0.228128
0.229029
0.229134
0.228723
0.227562
0.226114
0.224752
0.223548
0.22258
0.222065
0.222291
0.224021
0.239696
0.539513
2.83783
10.0997
20.9539
32.3649
43.3071
53.0994
60.7787
0.238839
0.237494
0.236018
0.234437
0.232779
0.231125
0.229604
0.228708
0.229171
0.231203
0.234446
0.236393
0.237217
0.237393
0.236929
0.23633
0.23645
0.237724
0.241001
0.247312
0.258089
0.290912
0.674401
3.37532
10.9473
21.5918
33.1204
44.1134
53.7821
61.2221
0.23884
0.237496
0.236023
0.234452
0.232786
0.231147
0.229802
0.229564
0.231356
0.232399
0.239513
0.246361
0.247327
0.246326
0.26563
0.271393
0.286445
0.309888
0.341929
0.380981
0.425324
0.483804
0.787795
3.18415
10.4389
21.6251
33.7945
45.0478
54.6227
61.766
0.23884
0.237499
0.236027
0.234459
0.232802
0.231162
0.230022
0.230216
0.23056
0.237718
0.298353
0.315756
0.294006
0.27752
0.983043
1.02807
1.04478
1.05357
1.05646
1.0492
1.02879
1.00747
1.24827
3.69879
11.5482
23.5474
35.964
46.9462
56.0417
62.7008
0.23884
0.237498
0.236027
0.234461
0.232827
0.231197
0.230243
0.230852
0.232249
0.239502
0.784822
1.88979
1.52113
3.80921
1.87285
1.42779
1.17025
1.0093
0.903204
0.831959
0.79103
0.860028
1.88774
6.63779
16.3603
28.2428
39.7374
49.8073
58.1327
64.1842
0.23884
0.237498
0.236027
0.23446
0.232823
0.231186
0.230173
0.230713
0.232413
0.24367
2.46043
2.32401
1.80832
1.53802
1.38123
1.28438
1.21719
1.17128
1.35172
3.28825
9.90809
20.7088
32.585
43.5846
53.0037
60.6336
66.0454
0.23884
0.237498
0.236025
0.234455
0.232793
0.231134
0.229887
0.229867
0.230584
0.240005
0.277484
0.637673
3.08818
2.68428
1.77635
1.66746
1.55492
1.4475
1.34
1.22023
1.09428
1.30985
4.52567
13.3884
25.151
36.9047
47.3963
56.1878
63.1542
67.9381
0.23884
0.237495
0.236021
0.234446
0.232774
0.231106
0.229667
0.229086
0.230138
0.231672
0.235104
0.239546
0.247792
0.27125
0.270735
0.278416
0.282939
0.285273
0.284556
0.280873
0.298054
0.998532
5.90183
16.5832
28.7849
40.3705
50.5011
58.8394
65.302
69.5734
0.238839
0.237493
0.236016
0.234431
0.232764
0.231081
0.229467
0.228234
0.228039
0.228803
0.229839
0.230168
0.22991
0.2291
0.227482
0.226094
0.225033
0.224146
0.22345
0.223935
0.264931
1.1109
6.29054
18.1642
30.818
42.5367
52.6181
60.7569
66.9276
70.8404
0.238838
0.237493
0.236014
0.234426
0.232756
0.231047
0.229312
0.227726
0.226709
0.226331
0.226057
0.225432
0.224622
0.223391
0.221715
0.219837
0.218021
0.216537
0.215356
0.21546
0.252574
1.02746
6.0109
18.2411
31.492
43.5437
53.8166
62.0002
68.062
71.754
0.238838
0.237493
0.236014
0.234424
0.232751
0.231014
0.22923
0.227503
0.225973
0.224796
0.223761
0.222552
0.22121
0.219723
0.218069
0.2163
0.214622
0.213195
0.212105
0.212163
0.24037
0.873461
5.35919
17.2833
31.1386
43.6633
54.2618
62.6538
68.7597
72.357
0.238838
0.237493
0.236013
0.234422
0.232742
0.231
0.229199
0.227406
0.225675
0.224066
0.222511
0.220887
0.219258
0.217622
0.215942
0.21423
0.212608
0.211229
0.210204
0.210125
0.228748
0.696308
4.48545
15.6086
29.8801
42.9579
54.0493
62.7778
69.0515
72.6519
0.238838
0.237493
0.236013
0.234421
0.232741
0.230995
0.229189
0.227369
0.225558
0.223786
0.222018
0.220202
0.218407
0.216657
0.214938
0.213245
0.211651
0.210285
0.209276
0.209057
0.220023
0.531866
3.53063
13.5209
27.8908
41.4955
53.2195
62.4245
68.9739
72.6428
0.238838
0.237493
0.236012
0.234419
0.232739
0.230993
0.229187
0.227356
0.225517
0.223685
0.221834
0.219951
0.218072
0.216259
0.214512
0.212823
0.211244
0.20988
0.208878
0.208573
0.214522
0.403318
2.63836
11.3353
25.4541
39.485
51.8962
61.6742
68.5885
72.3841
0.238839
0.237495
0.236014
0.234421
0.232741
0.230996
0.229192
0.227357
0.225509
0.223657
0.221777
0.219867
0.217955
0.216116
0.214357
0.212673
0.211106
0.209757
0.208777
0.20846
0.211685
0.320782
1.96593
9.53086
23.081
37.4414
50.444
60.7384
68.0053
71.9446
0.239047
0.238074
0.237089
0.236089
0.235079
0.234071
0.233082
0.232146
0.231305
0.230568
0.229846
0.228991
0.227971
0.226878
0.22579
0.224777
0.223935
0.223354
0.223125
0.223191
0.223535
0.224244
0.229248
0.36457
1.83547
7.77017
22.1402
44.4561
66.0811
79.1191
0.239047
0.238074
0.237089
0.23609
0.235079
0.234074
0.233091
0.232173
0.231371
0.230704
0.230072
0.229278
0.228274
0.227173
0.226071
0.225054
0.224217
0.223639
0.223416
0.223493
0.223868
0.22526
0.254997
0.808497
4.17565
13.9249
31.0978
51.4706
69.6884
81.499
0.239047
0.238074
0.23709
0.236091
0.235082
0.234081
0.233115
0.232239
0.231536
0.231055
0.230654
0.230011
0.229077
0.227979
0.226863
0.225851
0.22503
0.224468
0.224268
0.224375
0.224887
0.229952
0.364077
1.85193
8.14449
22.2555
40.4592
58.0927
73.2287
83.8554
0.239047
0.238075
0.237091
0.236093
0.235086
0.234096
0.233159
0.232368
0.231876
0.23179
0.231814
0.231562
0.230782
0.229744
0.228648
0.227669
0.226889
0.226367
0.226216
0.226392
0.227387
0.2473
0.665894
3.69879
13.4236
30.0224
46.9181
62.3968
75.9927
85.7797
0.239047
0.238075
0.237091
0.236096
0.235099
0.234118
0.233235
0.232606
0.23253
0.232915
0.233545
0.233807
0.23362
0.23287
0.231964
0.231104
0.230403
0.229959
0.229911
0.230269
0.23272
0.294973
1.2386
6.24653
18.8587
35.5059
50.9544
65.3775
78.0203
87.2316
0.239047
0.238076
0.237094
0.2361
0.235112
0.234153
0.23336
0.233031
0.233415
0.234707
0.236505
0.237544
0.237987
0.237896
0.237496
0.237017
0.23657
0.236356
0.236643
0.237682
0.24399
0.388093
2.04592
9.0055
23.136
38.7973
53.7026
67.5114
79.5428
88.3378
0.239047
0.238075
0.237096
0.236105
0.235125
0.234205
0.233555
0.233635
0.234835
0.237639
0.241463
0.2444
0.245873
0.24658
0.246744
0.246955
0.247745
0.249372
0.252512
0.257928
0.273568
0.514452
2.80805
11.2972
25.7679
41.0378
55.7813
69.2573
80.8534
89.2875
0.239048
0.238076
0.237095
0.236105
0.235141
0.234267
0.233805
0.23433
0.236641
0.242437
0.245352
0.253444
0.257298
0.259111
0.271641
0.282662
0.298487
0.317228
0.338826
0.362411
0.39437
0.654624
3.26601
12.7671
27.4662
43.1175
57.904
71.1077
82.2659
90.2945
0.239049
0.238077
0.237097
0.236106
0.235147
0.234318
0.234095
0.234976
0.236226
0.243703
0.259614
0.287967
0.303953
0.306098
0.879803
0.877069
0.85958
0.842115
0.826778
0.811129
0.800929
1.03692
4.04607
14.5453
30.0995
46.1116
60.7252
73.4525
84.0263
91.5505
0.239049
0.238078
0.2371
0.236115
0.235158
0.234361
0.234305
0.235527
0.237502
0.245145
0.319414
1.12853
4.2345
5.2911
2.01431
1.58078
1.32959
1.17342
1.06965
0.993319
0.961455
1.59311
6.54693
18.8205
34.6758
50.2983
64.2931
76.325
86.2
93.1408
0.239049
0.238078
0.2371
0.236114
0.235154
0.234348
0.23426
0.235401
0.237486
0.246279
1.02023
4.97473
2.38285
1.80692
1.46614
1.24223
1.07833
0.948212
0.918175
2.14546
9.28018
23.3626
39.5166
54.7085
68.091
79.4541
88.6369
94.9656
0.239048
0.238076
0.237096
0.236102
0.235136
0.234283
0.23395
0.234652
0.236098
0.244427
0.262401
0.864378
1.07224
7.29408
0.933977
0.867149
0.791154
0.715413
0.640119
0.571101
0.659033
2.98712
12.7344
28.1142
44.0542
58.7838
71.679
82.4886
91.0548
96.8001
0.239047
0.238075
0.237093
0.236099
0.235125
0.234217
0.233632
0.233912
0.235538
0.239456
0.242702
0.254644
0.258909
0.266121
0.266382
0.270346
0.272554
0.273504
0.273642
0.280409
0.545859
3.67672
14.6688
31.1758
47.2686
61.9682
74.6557
85.1042
93.1921
98.4385
0.239047
0.238074
0.237094
0.236098
0.235106
0.23415
0.233382
0.233193
0.233879
0.235479
0.237805
0.239757
0.240865
0.241587
0.241316
0.240607
0.240311
0.240418
0.240946
0.250517
0.54061
3.6761
14.9962
32.7056
49.1814
64.0968
76.8379
87.1453
94.9137
99.7713
0.239046
0.238075
0.237091
0.236093
0.235092
0.234099
0.233206
0.232596
0.23259
0.233176
0.234049
0.234561
0.234882
0.234959
0.234443
0.233646
0.233114
0.23297
0.233238
0.241424
0.494047
3.35642
14.4619
32.8774
50.0206
65.2595
78.2288
88.5731
96.1878
100.774
0.239047
0.238074
0.237089
0.236089
0.235079
0.234067
0.233101
0.232265
0.231731
0.231641
0.23169
0.231624
0.231426
0.23102
0.230364
0.229514
0.228816
0.228494
0.228689
0.234843
0.43145
2.87597
13.1771
31.6412
49.7131
65.5422
78.9009
89.4226
97.0224
101.436
0.239047
0.238074
0.237088
0.236087
0.235068
0.234048
0.233043
0.232095
0.231276
0.23065
0.230131
0.229536
0.228859
0.22818
0.227431
0.226619
0.225951
0.225647
0.225834
0.229918
0.365931
2.29756
11.3816
29.2721
48.2564
64.861
78.8589
89.7424
97.4445
101.776
0.239047
0.238074
0.237087
0.236085
0.235064
0.234037
0.233011
0.232008
0.231062
0.230189
0.22934
0.22843
0.227507
0.226634
0.225797
0.224989
0.224333
0.224019
0.224163
0.226662
0.310148
1.7181
9.36135
26.1129
45.6771
63.2149
78.1089
89.5463
97.4828
101.822
0.239047
0.238074
0.237087
0.236083
0.235062
0.234031
0.232995
0.231966
0.230964
0.229989
0.229
0.227959
0.226897
0.225917
0.225025
0.224209
0.223554
0.223233
0.223352
0.224876
0.270865
1.21584
7.40051
22.7018
42.2456
60.7677
76.7657
88.9007
97.18
101.602
0.239048
0.238075
0.237089
0.236085
0.235065
0.234033
0.232993
0.231955
0.230932
0.229921
0.22888
0.22778
0.226666
0.225637
0.224717
0.223897
0.223249
0.222938
0.22305
0.22408
0.248202
0.858831
5.87655
19.8128
39.0635
58.2011
75.1883
87.982
96.6072
101.155
0.239055
0.238106
0.237163
0.236227
0.235302
0.234397
0.23353
0.232731
0.232034
0.231448
0.230899
0.230256
0.229479
0.228631
0.227791
0.22704
0.226488
0.226244
0.226336
0.226699
0.22737
0.229152
0.265874
0.940506
4.93363
16.5776
39.1
66.8005
88.0066
100.234
0.239055
0.238106
0.237163
0.236227
0.235302
0.234399
0.233539
0.232755
0.232092
0.231566
0.231094
0.230505
0.229744
0.228888
0.228037
0.227287
0.226741
0.226503
0.226604
0.226982
0.227797
0.234935
0.420137
2.29695
9.60367
25.7391
48.8585
72.433
91.01
102.565
0.239055
0.238106
0.237164
0.236228
0.235304
0.234407
0.233561
0.232814
0.232236
0.231864
0.231589
0.231139
0.230438
0.229582
0.228723
0.227984
0.22746
0.22725
0.227375
0.227803
0.229367
0.263372
0.891634
4.88286
16.7295
36.9106
58.4449
78.0424
94.1523
104.939
0.239055
0.238107
0.237164
0.23623
0.235308
0.23442
0.233601
0.232927
0.232521
0.232473
0.232579
0.232437
0.23187
0.231054
0.230218
0.22952
0.229047
0.228897
0.229066
0.22963
0.234249
0.359149
1.88816
8.84146
25.0057
45.9194
64.83
82.1119
96.9211
107.066
0.239056
0.238107
0.237165
0.236232
0.235315
0.234441
0.233667
0.233126
0.233048
0.233401
0.233974
0.234273
0.234162
0.233563
0.232883
0.232306
0.231936
0.231892
0.232156
0.233071
0.247325
0.58585
3.5127
13.7586
32.4472
51.6525
69.1593
85.3296
99.2247
108.866
0.239056
0.238108
0.237167
0.236235
0.235325
0.234471
0.23377
0.233463
0.233783
0.234785
0.236173
0.237115
0.237507
0.237499
0.237255
0.236945
0.236725
0.236803
0.237238
0.23897
0.27601
0.981917
5.62668
18.753
37.9323
55.7869
72.5938
87.995
101.19
110.405
0.239056
0.238108
0.237169
0.236238
0.235337
0.234511
0.233924
0.23399
0.234848
0.236923
0.239827
0.242141
0.243371
0.243919
0.244115
0.244255
0.244542
0.245088
0.246166
0.249774
0.324675
1.50574
7.92986
23.1389
41.7562
59.2458
75.6255
90.4269
103.01
111.807
0.239056
0.238108
0.23717
0.236239
0.235348
0.234558
0.234121
0.234481
0.236144
0.24005
0.24257
0.24927
0.252916
0.254435
0.258417
0.259615
0.261158
0.263427
0.266967
0.274718
0.388284
2.03019
10.1488
26.9127
45.2962
62.7136
78.6966
92.9105
104.869
113.201
0.239056
0.238109
0.237172
0.236246
0.235357
0.234602
0.234309
0.234995
0.237539
0.244175
0.249679
0.266483
0.278763
0.277797
0.311196
0.32211
0.333669
0.345978
0.360019
0.37767
0.526072
2.62331
12.5379
30.5128
49.185
66.4968
82.0117
95.5845
106.871
114.684
0.239058
0.238111
0.237173
0.236252
0.235367
0.234634
0.234441
0.235364
0.238638
0.243101
0.260342
0.574159
0.804789
1.684
0.812075
0.820471
0.814312
0.802233
0.784137
0.760689
0.945881
4.09441
16.368
34.8685
53.5132
70.4827
85.4712
98.4066
109.022
116.285
0.239058
0.23811
0.237173
0.23625
0.235363
0.234622
0.234403
0.235261
0.238396
0.243217
0.26201
0.769387
7.98129
2.94385
0.570997
0.539962
0.506043
0.474133
0.445018
0.435416
0.959077
5.95334
20.4381
39.2848
57.6855
74.311
88.867
101.253
111.243
117.955
0.239056
0.238109
0.23717
0.236243
0.235347
0.234571
0.234206
0.234751
0.236916
0.24249
0.250197
0.422407
0.544894
0.693694
0.297788
0.29849
0.295044
0.289331
0.285011
0.322265
1.29669
7.77645
23.5707
42.8495
61.1947
77.7017
91.9984
103.955
113.393
119.576
0.239055
0.238107
0.237168
0.236234
0.235334
0.234515
0.233979
0.234167
0.235417
0.238238
0.241276
0.251118
0.255492
0.258919
0.25582
0.256595
0.257278
0.257757
0.259107
0.31182
1.39378
8.36955
25.0135
45.1904
63.7702
80.4191
94.6694
106.345
115.323
121.026
0.239055
0.238107
0.237167
0.236232
0.23532
0.234463
0.233777
0.233563
0.234069
0.235443
0.237521
0.23935
0.240566
0.241309
0.241397
0.241094
0.241231
0.241661
0.24339
0.296449
1.35074
8.19072
25.3626
46.5289
65.4964
82.4101
96.7591
108.287
116.925
122.226
0.239055
0.238107
0.237165
0.236228
0.235307
0.234422
0.233635
0.233097
0.233101
0.2336
0.234401
0.23504
0.235522
0.23577
0.235619
0.235243
0.23522
0.235491
0.236922
0.281178
1.20585
7.55546
24.6402
46.7345
66.3413
83.6535
98.2262
109.735
118.147
123.125
0.239055
0.238106
0.237162
0.236225
0.235297
0.234393
0.233545
0.232825
0.232366
0.232313
0.232467
0.232555
0.232576
0.232443
0.232104
0.231645
0.231415
0.231566
0.232664
0.264936
1.00694
6.61591
22.8888
45.443
66.0489
84.0467
99.0393
110.682
118.981
123.716
0.239055
0.238106
0.237162
0.236223
0.23529
0.234375
0.233491
0.232675
0.231984
0.23147
0.231089
0.230685
0.23027
0.229871
0.229442
0.229004
0.228777
0.228926
0.229783
0.250273
0.787464
5.4472
20.3157
42.7761
64.4634
83.4371
99.1591
111.122
119.433
124.011
0.239055
0.238106
0.237161
0.236221
0.235286
0.234363
0.23346
0.232595
0.231793
0.231068
0.230386
0.229688
0.229009
0.228407
0.227876
0.227421
0.227186
0.227315
0.227981
0.239608
0.588462
4.21571
17.2972
39.0179
61.4933
81.6999
98.5489
111.058
119.513
124.028
0.239055
0.238106
0.237161
0.236221
0.235285
0.234358
0.233444
0.232555
0.231703
0.230886
0.230074
0.229237
0.228416
0.227697
0.227097
0.226619
0.226369
0.226478
0.227027
0.233164
0.436219
3.08568
14.2513
34.7078
57.6762
79.1502
97.257
110.528
119.25
123.785
0.239056
0.238107
0.237163
0.236223
0.235288
0.234359
0.233442
0.232543
0.231671
0.23082
0.229959
0.229064
0.228185
0.227414
0.226781
0.226293
0.226046
0.226152
0.226654
0.229993
0.34076
2.22816
11.8009
30.9727
54.0849
76.5588
95.6927
109.66
118.673
123.294
0.239056
0.238108
0.237168
0.236237
0.235319
0.234424
0.233566
0.23277
0.232063
0.231451
0.230883
0.230264
0.229552
0.228785
0.228031
0.227376
0.226934
0.226819
0.227023
0.2275
0.228376
0.234687
0.408531
2.31787
10.085
28.4767
57.8833
87.3219
107.023
118.702
0.239056
0.238108
0.237168
0.236237
0.235319
0.234426
0.233573
0.232789
0.232107
0.231537
0.231024
0.230444
0.229744
0.228971
0.228211
0.227559
0.227126
0.227022
0.227238
0.227745
0.229371
0.264557
0.928111
5.13432
17.4686
39.7668
66.9788
91.8268
109.861
121.073
0.239056
0.238108
0.237168
0.236237
0.235321
0.234432
0.233591
0.232834
0.232212
0.23175
0.231376
0.2309
0.230242
0.229473
0.228712
0.228078
0.227676
0.22761
0.227855
0.228489
0.234086
0.386007
2.15932
9.9216
27.7238
52.2417
75.7659
96.3189
112.812
123.53
0.239056
0.238108
0.237169
0.236239
0.235325
0.234443
0.233621
0.232917
0.232414
0.232176
0.232089
0.231828
0.231273
0.230539
0.229807
0.229222
0.228883
0.228888
0.229188
0.230278
0.251902
0.721883
4.36786
16.453
38.2457
61.3338
81.6745
100.158
115.634
125.871
0.239056
0.238108
0.237169
0.23624
0.23533
0.234458
0.23367
0.233057
0.232777
0.232919
0.233227
0.233366
0.233068
0.232479
0.231857
0.231373
0.231135
0.231238
0.231643
0.234114
0.302379
1.39806
7.58879
23.6919
46.5321
67.1505
86.1913
103.547
118.187
127.994
0.239056
0.238108
0.23717
0.236243
0.235336
0.234481
0.233743
0.233286
0.23338
0.233927
0.23479
0.23539
0.235584
0.235417
0.235094
0.234796
0.23468
0.234863
0.235454
0.24153
0.41249
2.47175
11.52
30.5226
52.3913
71.8497
90.0837
106.588
120.512
129.911
0.239056
0.238108
0.23717
0.236245
0.235344
0.234509
0.233845
0.233632
0.234073
0.235352
0.237168
0.238441
0.239206
0.23957
0.239676
0.239758
0.239953
0.240351
0.241318
0.254974
0.603156
3.87828
15.6699
36.2703
57.0149
76.0829
93.6927
109.463
122.71
131.683
0.239057
0.23811
0.23717
0.236246
0.235352
0.234541
0.233974
0.234069
0.235007
0.237275
0.240868
0.244006
0.245737
0.246711
0.247176
0.247483
0.247879
0.248448
0.249855
0.27568
0.859609
5.45059
19.6765
41.1866
61.4789
80.2189
97.2466
112.31
124.869
133.369
0.239057
0.238113
0.237173
0.23625
0.235359
0.234569
0.234094
0.234391
0.235872
0.239533
0.242613
0.2518
0.256516
0.25906
0.260464
0.26084
0.260757
0.260852
0.262271
0.304457
1.20227
7.3565
23.8458
45.6787
65.9236
84.3487
100.797
115.162
127.02
135.006
0.239058
0.238113
0.237177
0.236255
0.235368
0.234585
0.234163
0.234602
0.236463
0.241007
0.246224
0.265452
0.272598
0.276268
0.278928
0.282146
0.283427
0.284117
0.285639
0.348912
1.6756
9.74703
28.2394
50.0104
70.1856
88.2844
104.227
117.957
129.142
136.598
0.239058
0.238112
0.237177
0.236254
0.235365
0.234576
0.234134
0.234542
0.236297
0.24064
0.246494
0.272511
0.279722
0.284999
0.275198
0.274475
0.272577
0.270398
0.271483
0.412031
2.48542
12.2197
31.9048
53.7268
73.9168
91.8402
107.426
120.627
131.194
138.119
0.239057
0.238112
0.237172
0.236247
0.235351
0.234545
0.234018
0.234226
0.235497
0.238575
0.242363
0.255192
0.260551
0.263877
0.259106
0.259045
0.258683
0.2581
0.263195
0.464489
2.93988
13.8184
34.3822
56.6046
76.9347
94.8957
110.318
123.102
133.11
139.517
0.239057
0.238109
0.237168
0.236242
0.235341
0.234507
0.233869
0.233775
0.234464
0.236216
0.239249
0.242082
0.24381
0.244956
0.245362
0.245489
0.245676
0.246075
0.252585
0.465798
3.07283
14.4267
35.7847
58.7327
79.2909
97.4245
112.801
125.283
134.812
140.729
0.239056
0.238107
0.237168
0.23624
0.23533
0.234469
0.233732
0.233321
0.233514
0.234352
0.235676
0.236713
0.237583
0.238137
0.238226
0.238047
0.238158
0.238608
0.244145
0.430092
2.89409
14.1395
36.1356
59.9537
80.9749
99.418
114.838
127.106
136.225
141.705
0.239055
0.238107
0.237168
0.236237
0.23532
0.234438
0.233632
0.233005
0.232746
0.232964
0.233459
0.233898
0.234214
0.234384
0.234282
0.234014
0.23405
0.234429
0.238732
0.388589
2.56796
13.2353
35.3407
60.086
81.7876
100.737
116.366
128.531
137.314
142.41
0.239055
0.238108
0.237167
0.236234
0.235313
0.234416
0.233566
0.232813
0.232245
0.23196
0.231939
0.231919
0.231856
0.231721
0.231446
0.231133
0.231092
0.231422
0.2345
0.343674
2.13743
11.8012
33.2965
58.823
81.5392
101.231
117.297
129.501
138.062
142.842
0.239056
0.238108
0.237167
0.236232
0.235308
0.234401
0.233524
0.232702
0.231973
0.231373
0.230888
0.230432
0.230014
0.229647
0.229299
0.229008
0.228986
0.229312
0.23139
0.301847
1.65639
9.96501
30.1561
56.0395
79.9326
100.737
117.579
130.013
138.464
143.007
0.239056
0.238108
0.237166
0.236231
0.235305
0.234392
0.233499
0.23264
0.231831
0.231081
0.230372
0.229678
0.229034
0.228492
0.228049
0.227733
0.227697
0.227998
0.229385
0.269706
1.19925
7.95406
26.2948
51.9104
76.9882
99.1514
117.165
130.06
138.524
142.923
0.239056
0.238108
0.237166
0.236231
0.235303
0.234387
0.233486
0.232608
0.23176
0.230941
0.230134
0.229325
0.228563
0.227918
0.227413
0.227075
0.227029
0.227315
0.228308
0.248941
0.823898
6.02639
22.2826
47.1787
73.3738
96.9619
116.105
129.659
138.259
142.601
0.239056
0.238109
0.237168
0.236233
0.235306
0.234389
0.233484
0.232599
0.231736
0.230891
0.230044
0.229189
0.228375
0.227683
0.227148
0.226801
0.226757
0.227035
0.227837
0.237885
0.571243
4.5192
18.9848
43.0171
70.0022
94.8188
114.774
128.859
137.664
142.039
0.239056
0.238108
0.237169
0.236236
0.235319
0.234423
0.23356
0.232748
0.232008
0.231346
0.230728
0.230089
0.229391
0.228657
0.227942
0.227334
0.226947
0.226901
0.227156
0.227696
0.229058
0.254333
0.804008
4.75159
17.3416
42.4766
76.3018
105.297
124.02
135.432
0.239056
0.238108
0.237168
0.236236
0.235319
0.234424
0.233564
0.23276
0.232038
0.231404
0.230821
0.230208
0.229517
0.228777
0.228057
0.227453
0.227074
0.227042
0.22731
0.227937
0.23256
0.362481
2.00125
9.46828
27.2511
54.5594
84.2379
109.174
126.866
137.896
0.239056
0.238108
0.237169
0.236236
0.235321
0.234429
0.233576
0.232792
0.23211
0.231545
0.23105
0.230504
0.22984
0.229101
0.228382
0.227795
0.227448
0.227453
0.227755
0.228815
0.249998
0.718827
4.41353
16.8223
39.9319
67.1285
91.9476
113.083
129.856
140.51
0.239056
0.238108
0.237169
0.236237
0.235323
0.234436
0.233598
0.232849
0.232243
0.231817
0.231504
0.231099
0.230504
0.229789
0.229094
0.228553
0.228272
0.228344
0.228731
0.231489
0.311021
1.53535
8.28421
25.8448
51.57
75.7965
97.4526
116.874
132.83
143.097
0.239056
0.238109
0.237169
0.236238
0.235327
0.234447
0.233631
0.23294
0.232472
0.232304
0.232331
0.232182
0.231733
0.2311
0.230479
0.230024
0.229835
0.229991
0.230575
0.238896
0.467737
2.97215
13.401
34.8616
59.9831
81.7967
102.137
120.46
135.644
145.537
0.239055
0.238108
0.23717
0.23624
0.235331
0.234462
0.233679
0.233083
0.232849
0.23305
0.233455
0.2337
0.23359
0.233193
0.232753
0.232442
0.232368
0.232595
0.233598
0.256605
0.778757
5.04836
19.1369
42.6686
65.9968
86.9084
106.367
123.804
138.283
147.796
0.239057
0.238107
0.237169
0.236241
0.235337
0.234481
0.233743
0.233291
0.233399
0.233996
0.234972
0.23568
0.236028
0.236143
0.236109
0.236044
0.23611
0.236409
0.238227
0.292136
1.28478
7.61252
24.802
49.0406
71.1864
91.5991
110.358
126.991
140.78
149.881
0.239058
0.23811
0.237168
0.236243
0.235342
0.234501
0.233819
0.233553
0.233941
0.235169
0.237037
0.238362
0.239258
0.239774
0.239973
0.240101
0.240301
0.240693
0.244128
0.354441
1.98928
10.4381
30.0459
54.2517
76.0339
96.0817
114.194
130.075
143.161
151.8
0.239058
0.238112
0.237173
0.236244
0.235347
0.234518
0.233888
0.233807
0.234516
0.236392
0.239463
0.242096
0.243691
0.244505
0.244846
0.244913
0.244805
0.244924
0.250825
0.440379
2.78766
13.3343
34.8182
58.9783
80.7116
100.407
117.883
133.041
145.418
153.553
0.239058
0.238113
0.237176
0.236249
0.235352
0.234527
0.233926
0.233967
0.234889
0.23725
0.241408
0.244908
0.247232
0.248539
0.248904
0.24864
0.248138
0.247959
0.256665
0.528693
3.60997
16.2023
39.1636
63.3066
85.0304
104.4
121.345
135.838
147.524
155.129
0.239058
0.238112
0.237176
0.236248
0.23535
0.23452
0.233907
0.233909
0.234787
0.237038
0.241104
0.244561
0.246887
0.248227
0.248645
0.248131
0.247343
0.247068
0.262576
0.678442
4.53743
18.754
42.6621
66.8954
88.6926
107.919
124.497
138.42
149.451
156.517
0.239058
0.238112
0.237172
0.236241
0.23534
0.2345
0.233836
0.233656
0.234244
0.235871
0.23867
0.241184
0.242704
0.243622
0.243978
0.243864
0.243623
0.243918
0.263803
0.759668
5.14903
20.4541
45.0381
69.6977
91.6939
110.937
127.288
140.745
151.17
157.697
0.239058
0.238109
0.237167
0.236239
0.235332
0.234475
0.233743
0.233349
0.233577
0.23451
0.236064
0.237248
0.238172
0.238727
0.238773
0.23836
0.238195
0.238789
0.258413
0.758436
5.31137
21.0965
46.4883
71.8445
94.1682
113.533
129.736
142.778
152.641
158.651
0.239056
0.238106
0.237167