/*--------------------------------*- C++ -*----------------------------------*\
| =========                 |                                                 |
| \\      /  F ield         | OpenFOAM: The Open Source CFD Toolbox           |
|  \\    /   O peration     | Version:  2512                                  |
|   \\  /    A nd           | Website:  www.openfoam.com                      |
|    \\/     M anipulation  |                                                 |
\*---------------------------------------------------------------------------*/
FoamFile
{
    version     2.0;
    format      ascii;
    arch        "LSB;label=32;scalar=64";
    class       volScalarField;
    location    "220";
    object      nut;
}
// * * * * * * * * * * * * * * * * * * * * * * * * * * * * * * * * * * * * * //

dimensions      [0 2 -1 0 0 0 0];

internalField   nonuniform List<scalar> 
84826
(
0.0144196
0.0141772
0.0139459
0.0137247
0.0135128
0.0133099
0.0131158
0.0129301
0.0127534
0.0125843
0.012424
0.0122677
0.012123
0.0119885
0.0118529
0.0117207
0.0115893
0.011461
0.0113361
0.0112144
0.0110961
0.0109814
0.0108702
0.0107623
0.0106574
0.0105555
0.0104562
0.0103596
0.0102655
0.0101737
0.0144196
0.0141773
0.013946
0.0137249
0.0135132
0.0133106
0.0131169
0.0129316
0.0127554
0.0125868
0.0124272
0.0122716
0.0121277
0.0119939
0.0118586
0.0117265
0.011595
0.0114665
0.0113412
0.0112191
0.0111005
0.0109856
0.0108742
0.0107661
0.0106611
0.010559
0.0104597
0.0103629
0.0102685
0.0101765
0.0144196
0.0141773
0.0139461
0.0137251
0.0135137
0.0133113
0.0131176
0.0129331
0.0127582
0.0125908
0.0124328
0.0122785
0.0121364
0.0120041
0.0118694
0.0117377
0.0116055
0.0114763
0.0113503
0.0112279
0.0111088
0.0109937
0.010882
0.0107737
0.0106685
0.0105662
0.0104667
0.0103696
0.010275
0.0101827
0.0144196
0.0141774
0.0139462
0.0137254
0.013514
0.013312
0.0131188
0.0129351
0.0127615
0.012596
0.0124408
0.0122904
0.0121513
0.0120203
0.0118867
0.0117555
0.0116227
0.0114924
0.0113656
0.0112423
0.0111227
0.011007
0.0108947
0.010786
0.0106803
0.0105774
0.0104773
0.0103797
0.0102845
0.0101915
0.0144196
0.0141774
0.0139463
0.0137255
0.0135144
0.0133126
0.0131198
0.0129372
0.0127653
0.0126027
0.0124488
0.0123244
0.0121912
0.0120403
0.0119087
0.0117787
0.0116449
0.011513
0.0113854
0.0112612
0.011141
0.011025
0.0109129
0.0108044
0.0106992
0.0105971
0.0104979
0.0104014
0.0103075
0.0102159
0.0144196
0.0141774
0.0139463
0.0137255
0.0135147
0.013313
0.0131208
0.0129395
0.0127699
0.0126071
0.0124562
0.0123177
0.0121874
0.0120618
0.0119334
0.0118039
0.0116692
0.0115363
0.0114073
0.0112816
0.0111625
0.0110521
0.0109512
0.01086
0.0107782
0.0107053
0.0106403
0.010582
0.0105306
0.010484
0.0144196
0.0141774
0.0139463
0.0137256
0.0135148
0.0133135
0.013122
0.0129418
0.0127724
0.0126121
0.0106233
0.0100658
0.0112763
0.0121231
0.0119947
0.0118629
0.0117286
0.0115976
0.0114673
0.0114089
0.0114408
0.0115554
0.0117332
0.0119529
0.0121964
0.0124486
0.0126966
0.0129331
0.0122066
0.0109586
0.0144196
0.0141773
0.0139462
0.0137257
0.0135149
0.0133139
0.0131231
0.0129437
0.0127732
0.0117805
0.00467565
0.00344729
0.00406761
0.0050787
0.0122481
0.0120008
0.011346
0.0109661
0.0107433
0.0107656
0.0109489
0.0111568
0.0113487
0.011528
0.011673
0.0117602
0.0117786
0.0118451
0.0117788
0.0118485
0.0144196
0.0141773
0.0139462
0.0137256
0.0135149
0.0133142
0.0131239
0.0129458
0.012776
0.00809262
0.00306479
0.0021348
0.0024993
0.00415671
0.0108779
0.0103023
0.0115262
0.0129254
0.0138235
0.0142358
0.014307
0.0141654
0.0139388
0.013717
0.0135364
0.0134134
0.0133527
0.0134281
0.0134749
0.0141478
0.0144196
0.0141772
0.0139459
0.0137252
0.0135145
0.0133138
0.0131239
0.0129451
0.0127748
0.00611689
0.00208294
0.000835203
0.00170879
0.00382609
0.0116545
0.0114877
0.0128147
0.0142963
0.0155978
0.0166382
0.0174646
0.0181029
0.0185952
0.0190072
0.0193809
0.0197295
0.0200397
0.0203807
0.0204813
0.0215909
0.0144196
0.014177
0.0139457
0.013725
0.0135141
0.0133134
0.0131238
0.012945
0.0127748
0.00611497
0.00197493
0.00129679
0.00294039
0.0134786
0.0137432
0.015279
0.0170552
0.0184111
0.0192509
0.0196642
0.0197297
0.0195737
0.0193344
0.0190948
0.0188851
0.018696
0.0186121
0.0183726
0.0188819
0.0144196
0.0141771
0.013946
0.0137254
0.0135145
0.0133138
0.0131239
0.0129458
0.012776
0.00808919
0.00252841
0.000924453
0.0011274
0.00206304
0.0182067
0.0181829
0.0191172
0.0200539
0.0205271
0.0206053
0.0203589
0.0197777
0.0189365
0.0179773
0.0170059
0.0160871
0.0152344
0.0145556
0.0138663
0.0134586
0.0144196
0.0141772
0.0139462
0.0137257
0.0135149
0.0133138
0.0131231
0.0129437
0.0127733
0.0117546
0.00396076
0.00303518
0.00322971
0.0060475
0.00826049
0.00742453
0.00737957
0.00756552
0.00783836
0.00821733
0.00865539
0.00907507
0.00944173
0.00977124
0.0100222
0.0101728
0.0102348
0.0102477
0.0102096
0.00996139
0.0144196
0.0141773
0.0139462
0.0137256
0.0135147
0.0133134
0.013122
0.0129419
0.0127724
0.0126122
0.0106024
0.0100274
0.0102029
0.0112032
0.0121558
0.0120193
0.0118794
0.0117411
0.0116098
0.0114862
0.0113681
0.0112536
0.0111409
0.0110284
0.0109144
0.0108007
0.0106967
0.0106254
0.0105944
0.0105993
0.0144196
0.0141773
0.0139462
0.0137254
0.0135145
0.0133129
0.0131208
0.0129395
0.01277
0.0126072
0.0124564
0.012318
0.0121913
0.0120677
0.011942
0.0118144
0.0116845
0.011558
0.0114376
0.0113206
0.0112063
0.0110943
0.0109843
0.0108758
0.0107688
0.0106634
0.0105596
0.0104578
0.0103588
0.010264
0.0144196
0.0141773
0.0139462
0.0137254
0.0135142
0.0133124
0.0131197
0.0129371
0.0127654
0.0126028
0.0124487
0.012324
0.0121903
0.0120412
0.0119124
0.0117835
0.0116544
0.0115305
0.0114117
0.0112964
0.0111838
0.0110739
0.0109661
0.0108603
0.0107558
0.0106529
0.0105513
0.0104512
0.0103524
0.0102545
0.0144196
0.0141773
0.0139461
0.0137253
0.0135139
0.0133119
0.0131187
0.012935
0.0127613
0.0125959
0.0124408
0.0122905
0.0121519
0.0120225
0.0118912
0.0117611
0.0116318
0.0115071
0.0113867
0.0112693
0.0111545
0.0110424
0.0109324
0.0108247
0.0107188
0.0106147
0.0105123
0.0104121
0.0103145
0.0102193
0.0144196
0.0141773
0.0139461
0.0137251
0.0135136
0.0133112
0.0131174
0.0129328
0.0127578
0.0125903
0.0124323
0.0122781
0.0121364
0.0120055
0.0118728
0.0117423
0.0116131
0.011488
0.0113672
0.0112493
0.0111341
0.0110218
0.0109121
0.0108049
0.0107001
0.0105975
0.0104972
0.0103991
0.0103031
0.0102092
0.0144196
0.0141773
0.013946
0.0137249
0.0135131
0.0133104
0.0131166
0.0129312
0.0127547
0.012586
0.0124262
0.0122707
0.0121273
0.0119947
0.0118613
0.0117307
0.0116019
0.0114768
0.0113554
0.0112372
0.0111218
0.0110093
0.0108995
0.0107922
0.0106873
0.0105848
0.0104845
0.0103865
0.0102906
0.010197
0.0144196
0.0141772
0.0139459
0.0137246
0.0135127
0.0133096
0.0131153
0.0129293
0.0127523
0.0125829
0.0124224
0.0122663
0.0121221
0.011989
0.0118553
0.0117248
0.0115961
0.0114712
0.0113498
0.0112316
0.0111162
0.0110036
0.0108937
0.0107864
0.0106815
0.010579
0.0104788
0.0103811
0.0102856
0.0101925
0.123122
0.11408
0.106862
0.100912
0.0958787
0.0915294
0.0877164
0.0843164
0.0811936
0.0783641
0.0758247
0.0735868
0.0716284
0.0699747
0.0685692
0.0672975
0.0661192
0.0649841
0.0639186
0.0629096
0.0619363
0.0610017
0.060108
0.0592555
0.058443
0.0576719
0.05694
0.056243
0.0555788
0.0549447
0.123121
0.114077
0.106855
0.100901
0.0958598
0.091497
0.0876607
0.0842378
0.0810731
0.0781915
0.0755983
0.0733122
0.0713359
0.0696884
0.0683075
0.0670512
0.0658873
0.0647599
0.0636989
0.0626867
0.0617027
0.0607537
0.0598443
0.0589754
0.0581473
0.0573608
0.0566129
0.0559006
0.0552214
0.0545734
0.123124
0.114071
0.106844
0.100881
0.0958228
0.0914305
0.0875387
0.0840672
0.0808109
0.0778152
0.0751022
0.0727145
0.0706984
0.069065
0.0677323
0.0665136
0.065368
0.0642607
0.0632016
0.0621603
0.0611414
0.0601557
0.0592104
0.0583112
0.0574571
0.056648
0.0558801
0.0551497
0.0544538
0.0537888
0.123128
0.114065
0.106829
0.100852
0.0957711
0.0913389
0.0873787
0.0838145
0.0804116
0.0772272
0.074269
0.0717254
0.0696139
0.0680058
0.0667529
0.0656036
0.0644957
0.0634103
0.062327
0.0612416
0.0601631
0.0591084
0.0580902
0.0571185
0.056194
0.0553161
0.0544831
0.0536917
0.0529377
0.052218
0.123126
0.114065
0.106812
0.100817
0.0957075
0.0912231
0.0871748
0.0834751
0.0798598
0.0763402
0.0599689
0.0580279
0.068129
0.0665308
0.0653871
0.064321
0.0632357
0.062115
0.0609456
0.0597637
0.0585818
0.0574238
0.0563102
0.0552478
0.0542356
0.0532715
0.052352
0.0514734
0.0506296
0.0498116
0.123123
0.114064
0.106801
0.100779
0.095636
0.0910921
0.0869362
0.0830538
0.0791207
0.0570119
0.0380545
0.0414841
0.0465571
0.0623204
0.0626574
0.061719
0.0606153
0.0593336
0.0579391
0.0564792
0.054975
0.0534779
0.0520285
0.0506441
0.0493309
0.0480948
0.0469367
0.0458545
0.0448355
0.0438783
0.123122
0.114056
0.106791
0.100751
0.0955646
0.0909582
0.0866815
0.0825487
0.0677226
0.0369886
0.0231983
0.0222364
0.0302988
0.0414891
0.0464305
0.0528854
0.0518515
0.0501918
0.0484407
0.0466491
0.0448803
0.0430992
0.0413591
0.0396827
0.0381196
0.0366921
0.0354268
0.0343447
0.0334019
0.0287497
0.12312
0.114048
0.106775
0.100727
0.0955089
0.0908434
0.0864416
0.0820087
0.0474232
0.0231036
0.0166328
0.0119716
0.0148868
0.0191455
0.0180052
0.0169718
0.0168401
0.0169769
0.0168337
0.0166699
0.016691
0.0169741
0.0174206
0.0179928
0.0186543
0.0194117
0.0201862
0.0209278
0.0214598
0.0219888
0.123119
0.114042
0.106762
0.100701
0.0954659
0.0907512
0.0862507
0.0790815
0.0356137
0.0141074
0.00790301
0.00465933
0.00763882
0.00981974
0.0215466
0.0249725
0.0277545
0.0301275
0.0322932
0.0343786
0.0364388
0.0384979
0.0405063
0.0422966
0.0428463
0.0426137
0.0423297
0.042384
0.0419892
0.0427232
0.123111
0.114028
0.106741
0.100671
0.0954218
0.0906784
0.086124
0.0700431
0.0278937
0.0104138
0.00388221
0.00150848
0.00410092
0.00736139
0.0264342
0.0318895
0.0352011
0.0370761
0.0383351
0.0392534
0.0399153
0.0403628
0.0406346
0.0407543
0.0407319
0.040579
0.0403167
0.0399581
0.0395499
0.0390271
0.123105
0.114018
0.106728
0.100657
0.095407
0.0906828
0.0861283
0.0700068
0.0278795
0.0104248
0.00362613
0.0160468
0.0207944
0.0231398
0.0249295
0.0263571
0.0276798
0.0290047
0.0303567
0.0317328
0.0331195
0.0344851
0.035791
0.0370023
0.0380917
0.0390237
0.0397782
0.0403413
0.123105
0.114032
0.106742
0.100688
0.0954495
0.090751
0.0862446
0.0789994
0.0355876
0.0141482
0.00501291
0.00179104
0.00590148
0.00821605
0.012874
0.0137164
0.0147302
0.0158335
0.0170974
0.0185084
0.0200585
0.0217487
0.0235966
0.0255807
0.0276734
0.0298328
0.0319852
0.0338677
0.0346764
0.0350009
0.123103
0.114046
0.106766
0.100725
0.0955019
0.0908306
0.0864175
0.0819611
0.0474071
0.0231469
0.0113264
0.00856272
0.00836701
0.00786842
0.0184895
0.0186964
0.0188748
0.0190388
0.019181
0.0193084
0.0194544
0.0196473
0.0199216
0.0202965
0.0207724
0.0213268
0.0219191
0.022498
0.0221212
0.0210391
0.12311
0.114051
0.106787
0.100743
0.095553
0.0909398
0.0866507
0.0824938
0.0675801
0.0368667
0.0232084
0.0219791
0.0250248
0.0274119
0.037956
0.0471886
0.0470208
0.0470886
0.0471544
0.0471337
0.0470188
0.0468038
0.0464947
0.0460842
0.0455563
0.0449056
0.044083
0.0431148
0.0420244
0.0408423
0.123121
0.11406
0.106796
0.10077
0.0956221
0.0910709
0.086902
0.0829944
0.0790079
0.0564074
0.037777
0.0406891
0.0396981
0.048205
0.0592469
0.0586828
0.0583166
0.0580127
0.0576828
0.0573122
0.056892
0.056418
0.0558681
0.0552322
0.0545035
0.0536999
0.0528323
0.0519219
0.0509767
0.0500039
0.123124
0.114061
0.106805
0.100806
0.0956919
0.0911996
0.0871382
0.0834147
0.0797567
0.0761526
0.0585622
0.0562932
0.0628267
0.0648931
0.0636782
0.0629525
0.0623273
0.0617267
0.0611407
0.0605575
0.0599687
0.0593721
0.0587653
0.0581513
0.0575271
0.0568935
0.0562456
0.0555804
0.054899
0.0541935
0.123126
0.11406
0.106821
0.100841
0.0957541
0.0913139
0.087341
0.0837554
0.0803169
0.0770727
0.0740035
0.071287
0.0689043
0.0670791
0.0658217
0.0649227
0.0640974
0.0633094
0.0625548
0.061821
0.0611007
0.0603908
0.0596882
0.0589945
0.0583077
0.0576255
0.0569429
0.0562514
0.0555504
0.0548463
0.123122
0.114066
0.106836
0.100868
0.0958048
0.0914045
0.0875003
0.0840096
0.0807235
0.0776826
0.074901
0.0724177
0.0702722
0.0685338
0.0672181
0.0661753
0.0652165
0.0642981
0.0634318
0.0626024
0.0618021
0.0610273
0.0602746
0.0595437
0.0588327
0.0581438
0.0574744
0.0568235
0.0561913
0.0555749
0.123119
0.114071
0.106847
0.100888
0.0958407
0.0914699
0.0876217
0.0841811
0.0809909
0.0780737
0.0754319
0.0730857
0.0710412
0.0693483
0.0679982
0.0668746
0.0658485
0.0648537
0.0639247
0.0630419
0.062196
0.0613825
0.0605983
0.0598406
0.0591071
0.0583997
0.0577171
0.057057
0.0564192
0.0558024
0.12312
0.114075
0.106853
0.100899
0.0958591
0.0915019
0.0876772
0.0842606
0.0811148
0.078255
0.0756775
0.0733973
0.0713987
0.0697286
0.0683654
0.0672065
0.0661448
0.0651167
0.0641591
0.0632511
0.062383
0.0615503
0.0607501
0.0599793
0.0592347
0.0585174
0.0578284
0.0571646
0.0565254
0.0559118
0.13447
0.133882
0.133115
0.132202
0.131166
0.130028
0.128828
0.127479
0.126095
0.124687
0.123271
0.121868
0.120449
0.11912
0.117895
0.11672
0.115571
0.114398
0.113258
0.112136
0.111021
0.109917
0.108832
0.107768
0.106722
0.105703
0.104718
0.10376
0.102828
0.101924
0.13447
0.133882
0.133115
0.1322
0.131162
0.13002
0.12881
0.127447
0.126052
0.124624
0.123192
0.12179
0.120332
0.119
0.117781
0.116605
0.115454
0.114283
0.113134
0.111998
0.110865
0.109741
0.108634
0.107546
0.106478
0.105442
0.104436
0.103458
0.102506
0.101582
0.13447
0.133881
0.133114
0.132197
0.131154
0.130002
0.128762
0.127397
0.125974
0.124505
0.123033
0.121606
0.12011
0.118773
0.117565
0.116387
0.115233
0.114051
0.112882
0.111706
0.110525
0.109351
0.108191
0.107055
0.105944
0.104871
0.103831
0.102819
0.101835
0.10088
0.13447
0.133881
0.133112
0.132193
0.131144
0.129979
0.128709
0.127322
0.125853
0.124332
0.0985106
0.0965253
0.119717
0.1184
0.117208
0.11602
0.114832
0.113617
0.112396
0.111143
0.109872
0.1086
0.107332
0.10609
0.104878
0.103702
0.10256
0.10145
0.10037
0.0993229
0.13447
0.133881
0.13311
0.132187
0.131132
0.129953
0.128651
0.127228
0.125703
0.0931716
0.0663282
0.0644229
0.0781793
0.103123
0.1161
0.114924
0.113688
0.112396
0.111048
0.10965
0.108228
0.1068
0.105382
0.104001
0.102658
0.101351
0.100078
0.0988371
0.0976225
0.0964312
0.13447
0.133881
0.133109
0.132181
0.131118
0.129923
0.128591
0.127124
0.104931
0.0628884
0.041605
0.0455383
0.0522304
0.0684144
0.081967
0.104973
0.109487
0.107994
0.106281
0.104414
0.10243
0.100383
0.0983058
0.0962586
0.0942625
0.0923404
0.0905041
0.0887591
0.0870925
0.0855189
0.13447
0.133881
0.133108
0.132178
0.131105
0.129894
0.128533
0.127028
0.0742913
0.0403339
0.0249346
0.0243416
0.0335222
0.0434062
0.0490979
0.064684
0.0907067
0.0879564
0.0848667
0.0817039
0.0785058
0.0752758
0.072161
0.0691995
0.0664507
0.0639416
0.061671
0.0596219
0.0577709
0.0560913
0.13447
0.13388
0.133107
0.132176
0.131096
0.129873
0.128484
0.10547
0.0518191
0.0247741
0.0176482
0.0121103
0.0192521
0.0238889
0.0229299
0.0288032
0.0275176
0.0261632
0.0251589
0.0244226
0.0239134
0.0236093
0.0234663
0.0234488
0.0235262
0.0236774
0.0238863
0.0241412
0.0244343
0.0247791
0.13447
0.13388
0.133106
0.132172
0.131092
0.129859
0.128459
0.0857009
0.0382443
0.0149656
0.0076431
0.00412332
0.0115521
0.011818
0.019938
0.020701
0.0215801
0.022564
0.0236368
0.0247838
0.0259584
0.0270989
0.0281411
0.0290179
0.0296707
0.0300649
0.0302058
0.0301268
0.0299153
0.0296246
0.134469
0.133879
0.133104
0.132169
0.131085
0.129847
0.128448
0.075575
0.0298245
0.010658
0.00361091
0.00139038
0.0292218
0.0153933
0.0225548
0.0241126
0.025147
0.0258248
0.0263077
0.0266684
0.0269401
0.0271386
0.0272728
0.0273453
0.0273598
0.0273258
0.0272532
0.0271486
0.0270296
0.0268823
0.134469
0.133879
0.133104
0.132168
0.131082
0.129843
0.128444
0.0755537
0.0298111
0.010662
0.003372
0.0158759
0.022187
0.0229142
0.0233866
0.0236817
0.0238881
0.0240533
0.0242081
0.0243741
0.024569
0.0248034
0.0250797
0.0253904
0.0257266
0.0260725
0.0264208
0.0267361
0.134469
0.133879
0.133103
0.132171
0.131087
0.129852
0.128451
0.0856005
0.0382117
0.0149919
0.00478334
0.00177804
0.0242438
0.0220954
0.0172702
0.017634
0.0178855
0.018085
0.0182765
0.0184903
0.0187544
0.0190962
0.019542
0.020118
0.0208404
0.0217081
0.0227149
0.0238051
0.02493
0.0259846
0.134469
0.13388
0.133105
0.132175
0.131093
0.129868
0.128476
0.105248
0.0518174
0.0247988
0.0113523
0.00792811
0.0114445
0.0108283
0.0188139
0.025537
0.0307944
0.0305467
0.0303
0.0299895
0.0295823
0.0290688
0.0284769
0.0278429
0.0272064
0.0266228
0.0261206
0.0257145
0.0254073
0.0252133
0.134469
0.13388
0.133109
0.132177
0.131102
0.129889
0.128525
0.127011
0.0741411
0.0401864
0.0248912
0.0239382
0.0294713
0.0331602
0.0447734
0.0641674
0.086961
0.0866762
0.0854374
0.0841283
0.0827601
0.0813417
0.0798845
0.0783777
0.0768363
0.0752742
0.0737001
0.0721282
0.0705646
0.0690069
0.13447
0.133881
0.133109
0.13218
0.131116
0.129918
0.128582
0.127107
0.104047
0.0622965
0.0411888
0.0443944
0.0472986
0.0590954
0.0797366
0.107272
0.107611
0.10683
0.106003
0.105124
0.104186
0.103197
0.102157
0.101061
0.0999081
0.0986904
0.0973802
0.0960184
0.0946202
0.0932012
0.13447
0.133881
0.133109
0.132186
0.131129
0.129947
0.128641
0.12721
0.125669
0.0915706
0.0648614
0.0624773
0.0726546
0.0920468
0.114852
0.114082
0.113184
0.112267
0.111346
0.110415
0.109473
0.108516
0.107551
0.10658
0.1056
0.104616
0.103625
0.102624
0.101618
0.100612
0.13447
0.13388
0.133111
0.132191
0.131141
0.129974
0.128699
0.127304
0.125821
0.124276
0.0953765
0.0919345
0.110258
0.117909
0.116732
0.115729
0.114748
0.113757
0.112776
0.111798
0.110821
0.109844
0.108864
0.107892
0.106922
0.105954
0.104992
0.104028
0.103064
0.102092
0.13447
0.133881
0.133113
0.132195
0.131151
0.129996
0.128752
0.12738
0.125945
0.124458
0.122958
0.121487
0.119922
0.118524
0.117332
0.116278
0.115263
0.114233
0.113223
0.112224
0.111232
0.110248
0.10927
0.1083
0.107343
0.106395
0.105461
0.104541
0.103635
0.102745
0.13447
0.133881
0.133114
0.132199
0.131158
0.130014
0.1288
0.12743
0.126025
0.124583
0.123131
0.121703
0.120209
0.118848
0.117649
0.116565
0.115518
0.114473
0.113444
0.112429
0.111426
0.110433
0.109451
0.108479
0.107519
0.106573
0.105643
0.104729
0.103832
0.102954
0.134469
0.133881
0.133114
0.1322
0.131162
0.130022
0.128818
0.127463
0.126069
0.124649
0.123219
0.121801
0.120361
0.11902
0.117821
0.116722
0.115661
0.114604
0.113563
0.112538
0.111526
0.110526
0.109538
0.108564
0.107599
0.106653
0.105723
0.10481
0.103916
0.103045
0.134739
0.134633
0.134511
0.134371
0.13421
0.134028
0.133823
0.133592
0.133352
0.133105
0.132844
0.132546
0.132192
0.131815
0.131443
0.131067
0.130672
0.130258
0.129825
0.129377
0.128912
0.128433
0.127943
0.127443
0.126936
0.126423
0.125905
0.125386
0.124866
0.124349
0.134739
0.134633
0.134511
0.134371
0.13421
0.134028
0.133823
0.133593
0.133357
0.133118
0.132873
0.132605
0.132251
0.131883
0.131518
0.131142
0.130746
0.130328
0.129889
0.129435
0.128962
0.128472
0.127971
0.127459
0.12694
0.126414
0.125884
0.125353
0.12482
0.12429
0.134739
0.134633
0.134511
0.134371
0.13421
0.134027
0.133826
0.133596
0.133369
0.133154
0.132951
0.132742
0.132397
0.13205
0.131695
0.131316
0.13091
0.130478
0.130023
0.129548
0.129051
0.128536
0.128008
0.12747
0.126924
0.126372
0.125818
0.125262
0.124705
0.12415
0.134739
0.134633
0.134511
0.134371
0.13421
0.134027
0.133826
0.133606
0.133402
0.133236
0.112492
0.110283
0.132587
0.132277
0.131934
0.131545
0.131115
0.130651
0.130161
0.129643
0.129096
0.128527
0.127941
0.127343
0.126733
0.126117
0.1255
0.124879
0.124255
0.123635
0.134739
0.134633
0.134511
0.134371
0.13421
0.134028
0.13383
0.133627
0.133467
0.105896
0.0772338
0.0744214
0.090001
0.117575
0.131568
0.131179
0.130714
0.130193
0.129636
0.129036
0.1284
0.127735
0.127048
0.126346
0.125631
0.12491
0.124183
0.12345
0.122709
0.121965
0.134739
0.134633
0.134511
0.134371
0.134211
0.134031
0.133839
0.133668
0.118585
0.0729503
0.0500863
0.0513647
0.060233
0.079877
0.0992474
0.128492
0.127922
0.127222
0.126426
0.125514
0.124513
0.123441
0.122315
0.121155
0.119972
0.118784
0.117595
0.11641
0.115234
0.114079
0.134739
0.134633
0.134511
0.134371
0.134212
0.134034
0.133857
0.133737
0.0853091
0.0485761
0.0306227
0.0304523
0.0390062
0.0542323
0.0640789
0.0866626
0.114585
0.112489
0.110276
0.107938
0.105523
0.103078
0.100668
0.0983273
0.0960908
0.093971
0.0919725
0.0900928
0.0883235
0.0866517
0.134739
0.134633
0.134511
0.134371
0.134213
0.13404
0.13388
0.119746
0.0617566
0.0304876
0.0203623
0.0139909
0.0221129
0.0313688
0.0352678
0.0494485
0.0563149
0.0534053
0.0505774
0.0478458
0.0453717
0.0432257
0.0414111
0.039909
0.0386768
0.0376769
0.0368757
0.036246
0.0357548
0.0354043
0.134739
0.134633
0.134512
0.134372
0.134215
0.134045
0.133907
0.0983711
0.0463637
0.0196525
0.00955453
0.00497825
0.0122567
0.0181414
0.0142901
0.0145162
0.0146939
0.0149179
0.0152425
0.0156223
0.0160223
0.0164063
0.0167545
0.0170614
0.017338
0.0176076
0.0178957
0.0182628
0.0186983
0.0191791
0.134739
0.134633
0.134512
0.134373
0.134217
0.13405
0.133928
0.0877641
0.037747
0.0142969
0.00488653
0.00249481
0.0170443
0.0208859
0.0239392
0.0239347
0.0238185
0.0236244
0.0233936
0.0231592
0.0229277
0.0227082
0.0225088
0.0223292
0.0221707
0.0220346
0.0219225
0.0218354
0.0217765
0.0217385
0.134739
0.134633
0.134512
0.134373
0.134215
0.13405
0.133928
0.0877645
0.0377415
0.0142936
0.00445718
0.00164107
0.0326507
0.0326727
0.0254822
0.0254407
0.0252934
0.0250751
0.0248259
0.0245641
0.0243004
0.024043
0.0237972
0.0235665
0.0233569
0.0231714
0.0230138
0.022886
0.0227921
0.0227254
0.134739
0.134633
0.134512
0.134372
0.134214
0.134045
0.133907
0.0982735
0.0463442
0.0196735
0.00658297
0.0022311
0.0194434
0.0190207
0.0147735
0.0153674
0.0159057
0.0163951
0.0168374
0.0172373
0.0176014
0.0179384
0.0182564
0.0185658
0.0188716
0.019188
0.0195205
0.0198765
0.0202607
0.0206695
0.134739
0.134633
0.134511
0.134372
0.134213
0.13404
0.133881
0.119485
0.0617928
0.0304956
0.0139226
0.00949883
0.0143013
0.0163541
0.0291528
0.0435207
0.0585138
0.0569088
0.0555159
0.0542205
0.0529804
0.0517715
0.0505841
0.0493964
0.0481948
0.0469334
0.0456345
0.0443515
0.0431153
0.0419684
0.134739
0.134633
0.134511
0.134371
0.134212
0.134035
0.133857
0.133738
0.0851489
0.0484153
0.030503
0.0297413
0.0355325
0.0446038
0.057055
0.0765195
0.100554
0.112217
0.110877
0.109463
0.10799
0.106467
0.104922
0.103354
0.101776
0.100183
0.0985934
0.0970093
0.0954415
0.0939028
0.134739
0.134633
0.134511
0.134371
0.134211
0.134031
0.13384
0.133669
0.1177
0.0723419
0.0495244
0.0500184
0.0564139
0.0715548
0.0918548
0.120138
0.127302
0.126882
0.126397
0.125852
0.12525
0.124595
0.123883
0.123129
0.122331
0.121482
0.120583
0.119633
0.118645
0.117636
0.134739
0.134633
0.134511
0.134371
0.13421
0.134028
0.13383
0.133628
0.13347
0.10428
0.0756523
0.0722498
0.0855202
0.108539
0.131296
0.131015
0.130674
0.130288
0.129873
0.129428
0.128956
0.128459
0.127936
0.127394
0.126834
0.126257
0.125664
0.125055
0.124431
0.123798
0.134739
0.134633
0.134511
0.134371
0.13421
0.134027
0.133826
0.133606
0.133404
0.133242
0.109252
0.105577
0.126752
0.13222
0.131911
0.131586
0.13123
0.130844
0.130435
0.130005
0.129554
0.129086
0.128603
0.128104
0.127593
0.127072
0.126541
0.125999
0.125446
0.124885
0.134739
0.134633
0.134511
0.134371
0.13421
0.134027
0.133826
0.133596
0.13337
0.133159
0.132962
0.13276
0.132413
0.132062
0.131721
0.131382
0.131023
0.130645
0.130245
0.129828
0.129395
0.128947
0.128486
0.128014
0.127528
0.127036
0.126536
0.12603
0.12552
0.125008
0.134739
0.134633
0.134511
0.134371
0.13421
0.134028
0.133823
0.133593
0.133357
0.133121
0.132883
0.132622
0.132269
0.131899
0.131541
0.131193
0.130831
0.130453
0.130057
0.129645
0.129219
0.128779
0.128327
0.127864
0.12739
0.126909
0.126421
0.125928
0.125431
0.124934
0.134739
0.134633
0.134511
0.134371
0.13421
0.134028
0.133823
0.133592
0.133352
0.133107
0.132853
0.132562
0.132212
0.131833
0.131468
0.131114
0.130749
0.13037
0.129973
0.129562
0.129136
0.128698
0.128248
0.127788
0.127319
0.126841
0.126358
0.125869
0.125377
0.124886
0.134745
0.134656
0.134567
0.134476
0.134386
0.134295
0.134206
0.134123
0.134052
0.133997
0.133951
0.13389
0.133793
0.133677
0.13356
0.133442
0.133315
0.133179
0.133033
0.132879
0.132718
0.13255
0.132374
0.132193
0.132005
0.131811
0.131611
0.131406
0.131196
0.130985
0.134745
0.134656
0.134567
0.134476
0.134386
0.134296
0.134207
0.134127
0.134062
0.134019
0.133992
0.133953
0.133874
0.13377
0.133661
0.133547
0.133423
0.133287
0.133142
0.132988
0.132826
0.132657
0.132479
0.132295
0.132105
0.131909
0.131706
0.131498
0.131284
0.131069
0.134745
0.134656
0.134567
0.134477
0.134386
0.134297
0.134211
0.134137
0.134087
0.134072
0.134094
0.134109
0.134072
0.133995
0.133901
0.133793
0.133669
0.133532
0.133383
0.133225
0.133058
0.132882
0.132698
0.132507
0.13231
0.132106
0.131895
0.131679
0.131457
0.131234
0.134745
0.134656
0.134567
0.134477
0.134387
0.134299
0.134218
0.134155
0.134133
0.134178
0.13358
0.131077
0.134411
0.134372
0.134292
0.134182
0.134048
0.133896
0.133732
0.133558
0.133371
0.133175
0.132971
0.132758
0.132538
0.13231
0.132075
0.131834
0.131587
0.131336
0.134745
0.134656
0.134567
0.134477
0.134388
0.134303
0.134229
0.134186
0.134216
0.125538
0.0942031
0.0906481
0.108334
0.134427
0.134386
0.134282
0.134133
0.133958
0.133765
0.133558
0.133335
0.133099
0.132852
0.132594
0.132327
0.13205
0.131764
0.131469
0.131165
0.130854
0.134745
0.134656
0.134567
0.134478
0.13439
0.134308
0.134245
0.134236
0.134349
0.0897784
0.06312
0.061206
0.0736099
0.0949963
0.120941
0.133131
0.132961
0.132727
0.132454
0.132142
0.131787
0.131397
0.130975
0.130526
0.130053
0.12956
0.129052
0.12853
0.127995
0.127454
0.134745
0.134656
0.134567
0.134478
0.134392
0.134314
0.134267
0.134309
0.10395
0.0613603
0.0400878
0.045334
0.0508566
0.0671153
0.0851332
0.10766
0.127679
0.127083
0.126363
0.125521
0.12455
0.123492
0.122373
0.121218
0.120046
0.118873
0.117718
0.116582
0.115469
0.114383
0.134745
0.134656
0.134567
0.134479
0.134394
0.134321
0.134293
0.134403
0.0770203
0.0414204
0.0245368
0.0227038
0.031762
0.0456059
0.0655787
0.0932639
0.105252
0.102759
0.100263
0.0976285
0.0946747
0.0916681
0.0887464
0.0860151
0.0835085
0.0812677
0.0792917
0.0775711
0.076085
0.0748477
0.134746
0.134657
0.134568
0.13448
0.134396
0.134328
0.134318
0.119029
0.0601736
0.0288714
0.0162985
0.0114711
0.0167222
0.0245187
0.0414861
0.0492335
0.0473645
0.045835
0.0445444
0.0434912
0.042642
0.0419847
0.0415377
0.0412755
0.0411737
0.0412081
0.0413667
0.0416373
0.0420185
0.0424892
0.134746
0.134657
0.134568
0.13448
0.134398
0.134333
0.134335
0.107804
0.0506499
0.0226442
0.00985521
0.00648285
0.011763
0.0175773
0.0200368
0.0199727
0.0200544
0.0201746
0.020321
0.0204837
0.0206585
0.020851
0.0210729
0.0213199
0.0215893
0.0218873
0.0222142
0.0225676
0.0229469
0.0233433
0.134746
0.134657
0.134568
0.13448
0.134397
0.134333
0.134335
0.107772
0.0506546
0.0226553
0.00925192
0.00620236
0.0130445
0.0153839
0.020392
0.0203048
0.0202928
0.0202903
0.0202988
0.0203266
0.0203796
0.020456
0.0205632
0.0206968
0.0208619
0.0210579
0.0212894
0.0215561
0.0218631
0.0222058
0.134745
0.134656
0.134568
0.13448
0.134396
0.134328
0.134319
0.118875
0.0601818
0.0288817
0.0123599
0.0079917
0.0127191
0.0190095
0.0300099
0.0430626
0.0494402
0.0481661
0.0470301
0.0458559
0.0447323
0.0437227
0.0428566
0.0421346
0.0415606
0.0411152
0.0407907
0.0405701
0.0404289
0.0403703
0.134745
0.134656
0.134567
0.134479
0.134394
0.134322
0.134295
0.134406
0.0770462
0.0413937
0.0244768
0.0222393
0.0291129
0.0369531
0.0505453
0.0662857
0.079647
0.0932667
0.10186
0.0999437
0.0979812
0.0960027
0.0940361
0.0921059
0.0902233
0.088397
0.0866403
0.0849491
0.0833204
0.0817579
0.134745
0.134656
0.134567
0.134479
0.134392
0.134315
0.134268
0.134312
0.103565
0.0612106
0.0399444
0.0440403
0.0475193
0.0590347
0.0744348
0.0905028
0.110583
0.126822
0.12641
0.125872
0.12523
0.124498
0.12369
0.12282
0.121899
0.120937
0.119945
0.118928
0.117897
0.116864
0.134745
0.134656
0.134567
0.134478
0.13439
0.134309
0.134246
0.134239
0.134357
0.0889566
0.0623953
0.0598766
0.0703107
0.0864242
0.108005
0.132828
0.132783
0.13267
0.132515
0.132318
0.132082
0.13181
0.131504
0.131166
0.130798
0.130405
0.129985
0.129539
0.12907
0.128582
0.134745
0.134656
0.134567
0.134477
0.134389
0.134304
0.13423
0.134189
0.134223
0.123677
0.0923065
0.0880224
0.103761
0.128593
0.134343
0.134295
0.134207
0.134091
0.133951
0.133789
0.133607
0.133408
0.133194
0.132967
0.132728
0.132478
0.13222
0.131952
0.131676
0.131395
0.134745
0.134656
0.134567
0.134477
0.134387
0.1343
0.13422
0.134158
0.134139
0.134191
0.129901
0.125883
0.134432
0.13441
0.134355
0.134275
0.134172
0.134049
0.133911
0.133758
0.133592
0.133414
0.133227
0.13303
0.132826
0.132614
0.132396
0.132172
0.131942
0.131708
0.134745
0.134656
0.134567
0.134477
0.134387
0.134298
0.134212
0.134139
0.134091
0.134083
0.134116
0.134144
0.134119
0.13405
0.133967
0.133873
0.133767
0.133646
0.133514
0.13337
0.133215
0.133051
0.132878
0.132698
0.13251
0.132316
0.132116
0.131911
0.131701
0.131489
0.134745
0.134656
0.134567
0.134477
0.134386
0.134296
0.134208
0.134129
0.134066
0.134028
0.13401
0.133982
0.133912
0.133812
0.133708
0.133603
0.13349
0.133366
0.133233
0.13309
0.132938
0.132777
0.132609
0.132434
0.132252
0.132065
0.131871
0.131672
0.131469
0.131264
0.134745
0.134656
0.134566
0.134476
0.134386
0.134295
0.134206
0.134124
0.134055
0.134005
0.133967
0.133915
0.133826
0.133712
0.133598
0.133486
0.133369
0.133243
0.133108
0.132964
0.132811
0.132651
0.132484
0.13231
0.132129
0.131944
0.131752
0.131555
0.131354
0.131151
0.134745
0.134657
0.134569
0.134481
0.134394
0.13431
0.134229
0.134156
0.134096
0.134051
0.134017
0.133975
0.133912
0.133837
0.133762
0.133688
0.13361
0.133529
0.133445
0.133358
0.133269
0.133178
0.133086
0.132992
0.132896
0.132799
0.1327
0.132599
0.132496
0.132393
0.134746
0.134657
0.134569
0.134481
0.134394
0.13431
0.13423
0.13416
0.134105
0.134069
0.134049
0.134024
0.133975
0.13391
0.133842
0.133772
0.133698
0.133619
0.133536
0.133451
0.133364
0.133275
0.133184
0.133091
0.132996
0.1329
0.132802
0.132702
0.132599
0.132498
0.134746
0.134657
0.134569
0.134481
0.134395
0.134311
0.134234
0.134168
0.134125
0.134111
0.134127
0.134143
0.134129
0.134087
0.134032
0.13397
0.1339
0.133824
0.133744
0.13366