/*--------------------------------*- C++ -*----------------------------------*\
| =========                 |                                                 |
| \\      /  F ield         | OpenFOAM: The Open Source CFD Toolbox           |
|  \\    /   O peration     | Version:  2512                                  |
|   \\  /    A nd           | Website:  www.openfoam.com                      |
|    \\/     M anipulation  |                                                 |
\*---------------------------------------------------------------------------*/
FoamFile
{
    version     2.0;
    format      ascii;
    arch        "LSB;label=32;scalar=64";
    class       volScalarField;
    location    "220";
    object      nut;
}
// * * * * * * * * * * * * * * * * * * * * * * * * * * * * * * * * * * * * * //

dimensions      [0 2 -1 0 0 0 0];

internalField   nonuniform List<scalar> 
90398
(
0.0144199
0.0141783
0.0139484
0.0137274
0.0135162
0.0133128
0.0131122
0.0129369
0.0127586
0.0125929
0.012436
0.0122835
0.0121425
0.0120136
0.0118864
0.0117652
0.011649
0.0115407
0.0114414
0.0113515
0.00971581
0.0080145
0.00668558
0.0056805
0.00534188
0.0109012
0.0321237
0.0612141
0.091518
0.116648
0.0144199
0.0141783
0.0139483
0.0137275
0.0135163
0.0133134
0.0131143
0.0129387
0.0127611
0.0125969
0.0124387
0.0122866
0.0121463
0.0120177
0.0118905
0.0117693
0.011653
0.0115448
0.0114457
0.0113561
0.00976825
0.00804434
0.00670047
0.00577155
0.00747623
0.0243418
0.0477456
0.0751127
0.100992
0.122357
0.01442
0.0141783
0.0139485
0.0137277
0.0135172
0.0133152
0.0131192
0.0129407
0.0127635
0.0126004
0.0124441
0.012293
0.0121537
0.0120264
0.0118997
0.0117786
0.011662
0.0115542
0.011456
0.0113673
0.00983387
0.0080714
0.00671316
0.0062508
0.0139881
0.0364052
0.0626433
0.0880652
0.109678
0.127634
0.01442
0.0141784
0.0139483
0.0137283
0.0135186
0.0133177
0.0131213
0.0129391
0.0127673
0.0126067
0.0124526
0.0123049
0.0121674
0.0120413
0.0119157
0.0117951
0.0116791
0.0115722
0.0114755
0.0113886
0.009949
0.00812646
0.00680786
0.00794599
0.0231576
0.047696
0.0736967
0.096462
0.115293
0.131054
0.01442
0.0141785
0.0139481
0.013729
0.0135205
0.0133219
0.0131256
0.012942
0.0127735
0.0126152
0.0124629
0.0123437
0.0122109
0.0120653
0.0119428
0.0118247
0.0117113
0.0116078
0.0115153
0.0114334
0.0101277
0.00823325
0.00710812
0.0116052
0.0311576
0.0567513
0.0807883
0.101501
0.118715
0.132992
0.0144202
0.0141784
0.0139482
0.013729
0.0135205
0.0133267
0.0131436
0.0129497
0.0127802
0.0126419
0.0124909
0.0123427
0.0122157
0.0120965
0.0119794
0.0118661
0.0117579
0.0116607
0.0115763
0.011505
0.0104681
0.0084877
0.00767617
0.0161076
0.0363779
0.0606822
0.0835624
0.103517
0.120087
0.133629
0.0144205
0.014179
0.0139488
0.0137301
0.0135209
0.013328
0.0131484
0.0129579
0.0127871
0.0126159
0.0100579
0.0112924
0.0123063
0.0121999
0.0120854
0.0119788
0.0118818
0.0117987
0.0117371
0.0117016
0.0109485
0.00898361
0.00830615
0.0163414
0.0355656
0.0589208
0.0822018
0.102873
0.119951
0.133453
0.0144205
0.0141798
0.0139525
0.0137382
0.0135267
0.0133261
0.0131487
0.0129673
0.0127898
0.00544128
0.00359248
0.00410064
0.00497536
0.00571687
0.0130896
0.0128859
0.0127839
0.0127459
0.0127627
0.0128073
0.0130304
0.0124467
0.0119561
0.0161196
0.0300724
0.0533201
0.0790603
0.101958
0.12025
0.133803
0.0144205
0.0141798
0.0139539
0.0137436
0.0135363
0.01333
0.0131441
0.0129619
0.00638327
0.00303711
0.00400701
0.0094097
0.0114196
0.00844392
0.0115317
0.0144677
0.017317
0.0186506
0.018896
0.0183478
0.0169373
0.015296
0.0142122
0.0174298
0.0331414
0.0569033
0.0839749
0.106881
0.12423
0.136336
0.0144205
0.0141795
0.0139512
0.0137386
0.0135356
0.0133307
0.013139
0.0129591
0.00631896
0.00123013
0.00442488
0.00439648
0.00583016
0.00584742
0.0133356
0.0135295
0.0136929
0.0133519
0.0129918
0.0128658
0.0129923
0.0133735
0.0152038
0.0278001
0.0497189
0.07503
0.0983333
0.11678
0.130694
0.1403
0.0144205
0.0141794
0.0139511
0.0137384
0.0135353
0.0133303
0.0131383
0.0129577
0.0062347
0.00100871
0.00401514
0.00584089
0.00656227
0.0207298
0.0204851
0.0205265
0.0200353
0.0195991
0.0196919
0.0204494
0.0223134
0.0294178
0.0428781
0.0644217
0.0881544
0.108496
0.124263
0.136027
0.143894
0.0144205
0.0141797
0.0139536
0.0137431
0.0135355
0.0133288
0.0131422
0.0129591
0.00638266
0.00279786
0.00156123
0.00330772
0.00410732
0.00366338
0.0235569
0.0239768
0.0240726
0.023171
0.0222029
0.0215834
0.0212069
0.0212555
0.029923
0.0477129
0.0733512
0.0971541
0.116094
0.130238
0.140507
0.147013
0.0144204
0.0141796
0.013952
0.0137375
0.0135255
0.0133243
0.0131458
0.0129647
0.0127814
0.00596759
0.00552284
0.00581875
0.00602676
0.00642666
0.00588193
0.00679801
0.0076346
0.00800996
0.00805509
0.00814566
0.00836532
0.00998434
0.0255814
0.0528176
0.0808369
0.104094
0.121883
0.134835
0.144007
0.149445
0.0144204
0.0141787
0.0139483
0.0137292
0.0135194
0.0133257
0.0131448
0.0129519
0.0127796
0.0126053
0.0124405
0.0122928
0.012159
0.0120477
0.0119184
0.0117914
0.0116718
0.0115624
0.0114611
0.0113693
0.0112973
0.0123466
0.0272811
0.0581299
0.0864003
0.108981
0.125919
0.138049
0.146477
0.151128
0.0144201
0.0141782
0.0139477
0.013728
0.0135189
0.0133242
0.0131397
0.0129434
0.012771
0.0126284
0.0124633
0.0123043
0.0121623
0.0120235
0.0118848
0.0117477
0.0116132
0.011486
0.0113714
0.0112729
0.0111992
0.0121652
0.0261488
0.0583217
0.0875615
0.110587
0.12764
0.139669
0.147859
0.152072
0.0144199
0.0141782
0.0139476
0.0137281
0.0135189
0.0133194
0.0131216
0.0129358
0.0127633
0.0125996
0.0124394
0.0123078
0.0121629
0.0120015
0.011862
0.0117255
0.0115921
0.011469
0.0113594
0.011265
0.0111965
0.0118781
0.0240628
0.056161
0.086555
0.110466
0.128052
0.140314
0.148519
0.152498
0.0144199
0.0141782
0.0139479
0.0137275
0.0135172
0.0133154
0.0131176
0.0129331
0.0127579
0.0125915
0.0124291
0.0122711
0.0121225
0.0119824
0.0118426
0.0117071
0.0115755
0.0114541
0.0113453
0.0112512
0.0111791
0.0115677
0.0214768
0.0524107
0.0837838
0.108799
0.12724
0.140026
0.148477
0.152372
0.0144199
0.0141782
0.0139482
0.013727
0.013516
0.0133132
0.0131157
0.0129351
0.0127545
0.0125862
0.0124225
0.0122619
0.0121116
0.0119712
0.0118303
0.0116946
0.0115633
0.011442
0.0113331
0.0112385
0.0111623
0.0113292
0.0187157
0.0475523
0.0796092
0.105795
0.125319
0.13887
0.147773
0.151893
0.0144199
0.0141782
0.0139481
0.013727
0.0135154
0.0133116
0.0131111
0.0129333
0.0127524
0.0125831
0.012418
0.0122568
0.0121055
0.0119638
0.0118222
0.0116857
0.0115545
0.0114329
0.011323
0.0112272
0.0111475
0.0111819
0.0161469
0.0413499
0.0742536
0.101667
0.122441
0.136937
0.146461
0.150992
0.01442
0.0141783
0.0139484
0.0137272
0.0135155
0.0133112
0.0131091
0.0129316
0.0127498
0.0125791
0.0124154
0.012254
0.0121021
0.0119599
0.0118176
0.01168
0.011548
0.0114257
0.0113151
0.0112184
0.011136
0.011107
0.0141831
0.0359024
0.0690066
0.0974127
0.119284
0.134651
0.144819
0.149851
0.123147
0.114124
0.106918
0.100976
0.0959571
0.0916482
0.0877938
0.0844188
0.0813954
0.0787263
0.0763911
0.0744323
0.0728035
0.0713528
0.0700381
0.068841
0.0677562
0.0667386
0.0658365
0.064989
0.0642298
0.0635606
0.0588252
0.0566982
0.11597
0.40677
0.816181
1.35184
1.61431
1.66918
0.123147
0.114123
0.106914
0.100968
0.0959534
0.0916236
0.0877225
0.0843072
0.0812315
0.0785162
0.0761336
0.0741601
0.0725602
0.0711376
0.0698516
0.0686784
0.0676181
0.0666242
0.0657427
0.0649142
0.0641731
0.0635378
0.0589541
0.0724624
0.253658
0.720264
1.19578
1.45333
1.6076
1.63716
0.123146
0.114118
0.106905
0.10095
0.095936
0.0915668
0.0875846
0.0840836
0.0808995
0.0780594
0.0755773
0.0735743
0.0720521
0.070697
0.0694768
0.0683604
0.0673428
0.066404
0.065568
0.0647785
0.0640762
0.063572
0.0615778
0.125282
0.45127
1.02679
1.3723
1.52384
1.59142
1.60273
0.123145
0.114111
0.106891
0.100922
0.0958935
0.0914788
0.0873868
0.0837428
0.0803806
0.0772694
0.0745654
0.0726039
0.0711993
0.0699754
0.0688825
0.0678759
0.0669472
0.0660981
0.065338
0.0646129
0.0639774
0.0638957
0.071503
0.2238
0.666092
1.24631
1.45888
1.53551
1.57205
1.57366
0.123144
0.114103
0.10687
0.100884
0.0958486
0.0914163
0.0871665
0.0832933
0.0795951
0.071586
0.0626968
0.0709231
0.0697688
0.0687872
0.0679148
0.067096
0.0663213
0.0656127
0.0649636
0.0643074
0.0636907
0.0645102
0.0948902
0.339409
0.888584
1.35405
1.47799
1.5301
1.54945
1.54703
0.123141
0.114094
0.106852
0.100844
0.09577
0.0914662
0.0870589
0.0827199
0.0719895
0.0459778
0.0403903
0.0507712
0.0671844
0.0666863
0.0662141
0.0657323
0.0651875
0.0645834
0.0638162
0.0626988
0.061178
0.0620925
0.119774
0.429816
1.00207
1.31765
1.44304
1.49668
1.51761
1.51733
0.123147
0.114095
0.10688
0.100866
0.0956599
0.0913368
0.0870384
0.0820219
0.0465194
0.0276474
0.0234691
0.0284162
0.0405983
0.0462496
0.0595031
0.0615603
0.0604083
0.0583351
0.0551441
0.0511007
0.0468896
0.0454742
0.0889649
0.351744
0.819138
1.15654
1.34007
1.43087
1.47127
1.48051
0.123158
0.114133
0.10705
0.101139
0.0955824
0.0909466
0.0866814
0.0643943
0.0292594
0.0178516
0.0118581
0.0134497
0.025213
0.0272216
0.0230215
0.0306401
0.0308645
0.0285983
0.0271663
0.0264367
0.026214
0.0268417
0.0402181
0.154387
0.47665
0.877693
1.17119
1.33366
1.4111
1.43755
0.123161
0.114144
0.107062
0.101257
0.0957023
0.0905796
0.0859659
0.0515707
0.0246169
0.00841049
0.0069224
0.00704542
0.0148292
0.015466
0.0165502
0.0181384
0.0193991
0.0205535
0.0216227
0.0225552
0.0232987
0.0241537
0.031851
0.102297
0.346439
0.727463
1.0601
1.26365
1.36579
1.40383
0.12316
0.114117
0.106965
0.10119
0.0959001
0.0905619
0.0856524
0.0437428
0.0173324
0.00489445
0.005223
0.00322493
0.00402141
0.0144503
0.0128298
0.0134783
0.0141057
0.0147937
0.0155426
0.0163602
0.0173653
0.0205983
0.0480125
0.179516
0.458435
0.830621
1.11569
1.28531
1.36831
1.39587
0.123161
0.114118
0.106967
0.101191
0.0959044
0.0905731
0.0856917
0.0450566
0.0162329
0.00337049
0.00427088
0.0161475
0.0170661
0.0180621
0.0191437
0.0202915
0.0214402
0.0227616
0.0290465
0.0741696
0.266704
0.647691
1.00883
1.23864
1.3525
1.3982
1.40421
0.123162
0.114148
0.107065
0.101259
0.095718
0.0906197
0.0860695
0.0570348
0.0227672
0.00695364
0.00534078
0.00284448
0.00984867
0.00764377
0.0207756
0.0223614
0.0237234
0.0248513
0.0256841
0.0261188
0.0264372
0.0367346
0.15538
0.531765
0.972172
1.2482
1.37549
1.42243
1.43009
1.41501
0.123161
0.114139
0.107054
0.101153
0.0956122
0.0910098
0.0868329
0.0770912
0.0366677
0.0171254
0.0218836
0.0162297
0.0218877
0.0155879
0.0241628
0.0244431
0.0230066
0.0223138
0.0220805
0.0222347
0.0250273
0.0904714
0.496444
1.04273
1.32233
1.4343
1.47005
1.46999
1.45212
1.42215
0.123151
0.114103
0.106894
0.100887
0.0956965
0.0914079
0.0871961
0.0823987
0.0618384
0.039794
0.0379688
0.0426691
0.0591276
0.0610083
0.05839
0.0558806
0.0537572
0.0521813
0.0511952
0.0510044
0.0601848
0.204575
0.695016
1.30807
1.4699
1.51598
1.51673
1.49609
1.46501
1.42569
0.123145
0.114103
0.106867
0.100868
0.0958093
0.0915371
0.0871934
0.0829851
0.0789207
0.0664155
0.0630452
0.0692813
0.0672943
0.0657759
0.064304
0.0628151
0.0614335
0.0605183
0.05987
0.0597292
0.0696199
0.213522
0.664031
1.36742
1.52027
1.55225
1.54207
1.5124
1.47345
1.42755
0.123148
0.114113
0.106887
0.10091
0.0958876
0.0914793
0.0872728
0.0834776
0.0799007
0.0764863
0.0735355
0.0711775
0.0692876
0.0677965
0.0664918
0.0652977
0.0642502
0.0634088
0.062778
0.062577
0.0704511
0.178794
0.58351
1.35351
1.53487
1.56998
1.55749
1.52385
1.47975
1.42914
0.12315
0.114121
0.106908
0.100948
0.0959308
0.0915338
0.0874699
0.0838686
0.0805602
0.0775066
0.0748048
0.0725712
0.0706945
0.0692218
0.0679136
0.0667333
0.0657023
0.0648606
0.0642198
0.0639403
0.0692344
0.144145
0.499134
1.28896
1.5309
1.57827
1.5681
1.53254
1.48482
1.42973
0.123151
0.114129
0.106923
0.100976
0.0959715
0.0916153
0.0876503
0.0841703
0.0810026
0.0781589
0.0756127
0.0734245
0.0716192
0.0701253
0.0687941
0.0676039
0.0665731
0.0657173
0.0650631
0.0647211
0.0665968
0.111274
0.406935
1.13375
1.51298
1.57823
1.57477
1.53934
1.48889
1.42743
0.123152
0.114135
0.106932
0.100994
0.0959874
0.0916674
0.0877768
0.0843701
0.0812919
0.0785495
0.0760928
0.0739757
0.0721811
0.07066
0.0693069
0.0681063
0.0670769
0.0662052
0.0655394
0.0651598
0.0637873
0.0853753
0.315145
0.96428
1.48464
1.5698
1.57677
1.54386
1.49203
1.42403
0.123153
0.114137
0.106938
0.101002
0.0959913
0.0916904
0.0878429
0.0844702
0.0814348
0.0787279
0.0763133
0.0742266
0.0724386
0.0709068
0.0695446
0.0683419
0.0673114
0.0664403
0.0657738
0.0653857
0.0616795
0.0678956
0.2309
0.795065
1.44465
1.55544
1.57462
1.5455
1.49366
1.41949
0.13447
0.133883
0.133117
0.132206
0.131172
0.130042
0.128829
0.127555
0.126248
0.124943
0.123656
0.122438
0.121262
0.12013
0.119033
0.117982
0.117006
0.116104
0.115296
0.100941
0.0828244
0.070514
0.0626722
0.0892651
0.3451
0.793192
1.33713
2.34851
3.87052
4.5152
0.13447
0.133882
0.133117
0.132206
0.131167
0.130033
0.128811
0.127523
0.126195
0.124868
0.123562
0.122354
0.121159
0.120033
0.118943
0.117901
0.116935
0.116043
0.115247
0.100884
0.0828239
0.0700895
0.0684794
0.182778
0.615635
1.25324
2.15663
3.43917
4.5093
4.38551
0.13447
0.133882
0.133116
0.132205
0.131158
0.130015
0.128774
0.127458
0.12609
0.124721
0.123382
0.122168
0.120986
0.119876
0.118804
0.117784
0.116845
0.115968
0.115193
0.100127
0.0820139
0.0699826
0.0949422
0.34963
0.889714
1.82222
3.37476
4.37055
4.35151
4.23964
0.134469
0.133881
0.133114
0.132202
0.131146
0.129988
0.128721
0.127359
0.125928
0.119433
0.106017
0.121917
0.120741
0.119669
0.118638
0.117658
0.11675
0.11591
0.11516
0.0982583
0.0802518
0.0731419
0.159253
0.545299
1.23104
2.6207
4.21677
4.26482
4.21066
4.10667
0.134469
0.133881
0.133112
0.132196
0.131169
0.129948
0.128647
0.127225
0.121453
0.0847688
0.0733587
0.0869137
0.118952
0.11918
0.118256
0.117351
0.116476
0.115638
0.114809
0.0965193
0.0799757
0.0849449
0.256173
0.748857
1.67929
3.60544
4.10436
4.12765
4.07242
3.98087
0.134469
0.133881
0.133112
0.132191
0.13118
0.12991
0.128572
0.127073
0.0866969
0.0551696
0.0473076
0.059328
0.0760494
0.0967018
0.116523
0.115735
0.11464
0.113147
0.110917
0.0964417
0.0822588
0.103825
0.354643
0.961824
2.17309
3.6373
3.87524
3.94014
3.91746
3.84964
0.134469
0.13388
0.13312
0.132201
0.13115
0.129911
0.128491
0.108612
0.0572614
0.0355289
0.0285486
0.0330771
0.0477523
0.0568875
0.0729415
0.0961696
0.0999246
0.0921904
0.0826633
0.0722246
0.0643507
0.100647
0.392896
1.09289
2.37576
3.1247
3.51746
3.6934
3.73795
3.7082
0.13447
0.133883
0.133119
0.132202
0.131171
0.129904
0.128399
0.0800393
0.0384725
0.0206845
0.0193863
0.0161257
0.0307633
0.0306612
0.0292905
0.0397653
0.0380116
0.033333
0.0301928
0.028067
0.0271761
0.0420262
0.202501
0.780231
1.66278
2.50579
3.10037
3.42412
3.55449
3.56936
0.13447
0.133885
0.133127
0.132181
0.131148
0.129873
0.128377
0.0655909
0.0340836
0.0134736
0.0113238
0.00422281
0.0172206
0.0193178
0.0153636
0.0163532
0.0171052
0.0177948
0.0184603
0.0190818
0.0198978
0.0277595
0.120797
0.513053
1.26215
2.14182
2.84287
3.25103
3.42872
3.46619
0.13447
0.133883
0.133134
0.132218
0.131156
0.129871
0.124451
0.0561057
0.0251367
0.00802925
0.00478014
0.00202271
0.00848389
0.0169052
0.0131618
0.0138775
0.0146267
0.0154557
0.0163666
0.0172988
0.0188996
0.035943
0.174723
0.630718
1.4236
2.2876
2.9259
3.27193
3.40733
3.42105
0.13447
0.133883
0.133134
0.132218
0.131157
0.129872
0.127824
0.05798
0.0243147
0.00584028
0.00382717
0.0103568
0.0156497
0.0161033
0.016524
0.0169483
0.0173655
0.0177955
0.0202143
0.0577409
0.31976
1.01977
1.96389
2.75027
3.21077
3.40806
3.45023
3.4138
0.13447
0.133885
0.133128
0.132182
0.131149
0.129876
0.128383
0.0719165
0.0315207
0.012125
0.0106655
0.00266396
0.00412062
0.0239113
0.0162088
0.0166775
0.0170062
0.0172853
0.0175524
0.018013
0.0247516
0.141257
0.762635
1.85964
2.78871
3.31158
3.52117
3.55464
3.50235
3.41579
0.13447
0.133884
0.13312
0.132204
0.131174
0.129909
0.12841
0.0928795
0.0475572
0.0273728
0.0214121
0.0120619
0.0317534
0.0195216
0.0354313
0.047433
0.0430018
0.0407231
0.0398688
0.0415896
0.0819082
0.429226
1.45996
3.01246
3.56168
3.74553
3.74336
3.65683
3.53659
3.41261
0.134469
0.133881
0.133121
0.132203
0.131154
0.129917
0.128501
0.126917
0.0720737
0.0494573
0.0395457
0.0423702
0.0562927
0.0637348
0.107302
0.103787
0.100554
0.0980026
0.0875012
0.0769771
0.132568
0.497384
1.37661
3.43765
3.97308
3.97359
3.86373
3.71312
3.55187
3.40292
0.134469
0.133882
0.133113
0.132193
0.131184
0.129915
0.128579
0.127077
0.114101
0.0748403
0.0656873
0.0754082
0.0843948
0.100464
0.115201
0.113707
0.112386
0.111273
0.0981886
0.0828048
0.130237
0.465686
1.2621
3.19885
4.14587
4.08167
3.92731
3.74307
3.55681
3.39048
0.13447
0.133881
0.133113
0.132199
0.131172
0.129953
0.12865
0.127218
0.125665
0.119371
0.103847
0.111136
0.119522
0.118275
0.117096
0.115923
0.114859
0.113963
0.107943
0.0851659
0.116338
0.413961
1.13627
2.87208
4.20659
4.13428
3.96466
3.76148
3.55788
3.37658
0.13447
0.133882
0.133115
0.132204
0.131149
0.129991
0.12872
0.127344
0.125877
0.12437
0.122851
0.121486
0.120053
0.118863
0.117738
0.116652
0.115676
0.114851
0.106963
0.0830346
0.0988678
0.346044
0.992664
2.5195
4.21049
4.15872
3.98885
3.77569
3.55861
3.36351
0.13447
0.133883
0.133117
0.132207
0.131161
0.130016
0.12877
0.127437
0.126031
0.124589
0.123137
0.121778
0.120424
0.119253
0.118138
0.117083
0.116144
0.115336
0.107105
0.0821182
0.0836772
0.272134
0.843075
2.1786
4.1601
4.15934
4.00434
3.78745
3.5604
3.35229
0.13447
0.133883
0.133118
0.132208
0.13117
0.130034
0.128805
0.127498
0.126132
0.124735
0.123326
0.121995
0.12067
0.119492
0.118379
0.117335
0.116404
0.115613
0.106407
0.0810035
0.0726832
0.201083
0.687214
1.86649
3.87557
4.1304
4.01004
3.79735
3.56368
3.34409
0.13447
0.133884
0.133119
0.132209
0.131175
0.130043
0.128822
0.127529
0.126181
0.124807
0.123419
0.122085
0.120794
0.119612
0.118499
0.117462
0.11654
0.115757
0.104455
0.0792085
0.0660874
0.141399
0.531815
1.61247
3.42418
4.0886
4.00826
3.80553
3.56922
3.34083
0.134739
0.134631
0.13451
0.13437
0.134212
0.134031
0.133834
0.133625
0.133412
0.133199
0.132976
0.132722
0.132437
0.132125
0.131804
0.131496
0.131231
0.131038
0.125512
0.100134
0.0822887
0.0698122
0.0692498
0.205574
0.654815
1.15785
1.98517
3.79518
6.63912
7.20779
0.134738
0.134631
0.13451
0.13437
0.134211
0.134031
0.133834
0.133626
0.133417
0.133212
0.132999
0.132763
0.132468
0.132154
0.131831
0.131525
0.131262
0.131072
0.125408
0.100061
0.0819238
0.0701524
0.105818
0.419658
1.01005
1.83924
3.15665
5.07689
7.16078
7.05241
0.134739
0.134631
0.13451
0.13437
0.13421
0.134031
0.133835
0.13363
0.133431
0.133248
0.133065
0.132867
0.132563
0.132249
0.131924
0.131621
0.131364
0.131182
0.124002
0.0989803
0.0804118
0.0765231
0.204553
0.664656
1.39416
2.8491
5.12499
6.98823
6.99445
6.84796
0.134739
0.134631
0.13451
0.13437
0.13421
0.134031
0.133837
0.133641
0.133467
0.133332
0.123497
0.133032
0.132768
0.132461
0.132141
0.131847
0.131602
0.131424
0.121343
0.0967666
0.0794011
0.100178
0.358629
0.926041
1.97138
4.30236
6.61491
6.805
6.7713
6.63674
0.134739
0.134632
0.13451
0.13437
0.134211
0.134032
0.133843
0.133666
0.13354
0.102334
0.0883503
0.102295
0.132813
0.132568
0.132296
0.132029
0.131791
0.131589
0.116638
0.0934934
0.0812439
0.149503
0.530528
1.24532
2.79494
5.94671
6.44534
6.57579
6.53891
6.42201
0.134739
0.134632
0.13451
0.13437
0.134214
0.134035
0.133855
0.133714
0.105592
0.0701129
0.0600552
0.0715741
0.0917565
0.118991
0.131554
0.131301
0.130894
0.130264
0.113424
0.0919829
0.0871091
0.214933
0.695918
1.63291
3.74605
5.73755
6.13991
6.29005
6.28579
6.19876
0.134739
0.134632
0.134511
0.134371
0.134216
0.134039
0.133878
0.130289
0.0743653
0.0464858
0.0370135
0.0426852
0.057025
0.072495
0.0905555
0.11217
0.121104
0.113861
0.099121
0.0843355
0.0885294
0.27313
0.863416
2.03048
4.40549
5.2321
5.72221
5.95764
6.01677
5.97113
0.134739
0.134632
0.134512
0.134371
0.134218
0.134046
0.133909
0.101623
0.0520355
0.0303201
0.0246151
0.0196963
0.0348368
0.0384201
0.0507827
0.0790272
0.0763743
0.0657337
0.0567363
0.0500031
0.0619685
0.277227
0.95107
2.19856
3.70037
4.65138
5.28914
5.63602
5.76569
5.76048
0.134739
0.134632
0.134512
0.134373
0.134216
0.134053
0.133941
0.0815541
0.0389183
0.0196217
0.0141045
0.00588914
0.0219964
0.0279047
0.0235893
0.022069
0.0211593
0.020665
0.0204539
0.0206522
0.0289702
0.14983
0.756382
1.9499
3.22023
4.29101
5.02702
5.43176
5.5905
5.59961
0.134739
0.134632
0.134512
0.134377
0.134222
0.13407
0.133963
0.0713601
0.0325535
0.0157853
0.00845011
0.00172502
0.00429527
0.00876917
0.0134134
0.0147789
0.0159738
0.0170956
0.0181503
0.0192598
0.0272667
0.145864
0.761772
1.98915
3.33321
4.40189
5.07808
5.41591
5.52451
5.50493
0.134739
0.134632
0.134511
0.134376
0.134221
0.134067
0.133954
0.0739785
0.0336041
0.0151923
0.00791748
0.00211513
0.0134349
0.0115383
0.0110896
0.011916
0.0126491
0.0133949
0.0142138
0.0158765
0.0426654
0.330279
1.35317
2.78036
4.03511
4.88941
5.35043
5.52723
5.53271
5.45698
0.134739
0.134632
0.134512
0.134373
0.134214
0.134046
0.133921
0.0890289
0.0433945
0.0222438
0.0110734
0.00157207
0.00456389
0.00499433
0.0281034
0.0273317
0.0273255
0.0280509
0.0292838
0.0363626
0.157122
0.896252
2.4333
3.92869
4.92667
5.46073
5.66132
5.6628
5.5603
5.42593
0.134738
0.134632
0.134511
0.134369
0.134215
0.134038
0.13388
0.11647
0.0613054
0.0379935
0.0229308
0.0153738
0.0336146
0.0292455
0.0528224
0.0684026
0.0648318
0.0620325
0.0594823
0.0674105
0.239187
0.927691
2.51184
5.00859
5.66609
5.90286
5.89554
5.76219
5.57521
5.39374
0.134738
0.134631
0.13451
0.13437
0.134213
0.134029
0.133847
0.133708
0.0923451
0.0592914
0.0458795
0.0493193
0.0602822
0.0741525
0.121099
0.126156
0.125252
0.0984595
0.0820633
0.0837039
0.262559
0.874165
2.26427
5.4625
6.08412
6.1574
6.03123
5.81456
5.57156
5.3564
0.134738
0.134631
0.134509
0.134369
0.13421
0.134024
0.133826
0.133636
0.133503
0.0925837
0.0781231
0.0836428
0.0917856
0.107949
0.131333
0.130899
0.130554
0.109436
0.0894379
0.0864959
0.249786
0.818108
2.07971
4.99986
6.26721
6.28143
6.09913
5.83537
5.55583
5.3157
0.134738
0.134631
0.134509
0.134369
0.134207
0.134022
0.133817
0.133599
0.133391
0.133218
0.120215
0.123925
0.132566
0.132334
0.132043
0.131716
0.131453
0.125567
0.0971354
0.0859359
0.218332
0.741247
1.88909
4.47486
6.31541
6.33143
6.13027
5.84078
5.53576
5.27573
0.134738
0.134631
0.134509
0.134369
0.134206
0.134021
0.133812
0.133584
0.133343
0.1331
0.132853
0.132605
0.132319
0.132075
0.131814
0.131546
0.131334
0.12766
0.0976224
0.081549
0.176004
0.638756
1.66901
3.90858
6.27658
6.33751
6.14198
5.83967
5.51701
5.24057
0.134738
0.134631
0.134509
0.134369
0.134206
0.134021
0.133812
0.133579
0.133326
0.133056
0.132767
0.132489
0.132154
0.131877
0.131611
0.131358
0.131162
0.128397
0.0981809
0.0782785
0.134477
0.52328
1.43691
3.35776
5.69277
6.30212
6.14124
5.83742
5.50285
5.21275
0.134738
0.134631
0.134509
0.134369
0.134207
0.134022
0.133812
0.133579
0.133322
0.133043
0.13274
0.132427
0.132091
0.131793
0.131516
0.131265
0.131075
0.128501
0.0980982
0.0759358
0.101148
0.402823
1.19608
2.83881
4.76942
5.82488
6.12712
5.837
5.49594
5.19507
0.134739
0.134632
0.13451
0.13437
0.134209
0.134023
0.133814
0.13358
0.133323
0.133041
0.132733
0.132402
0.13207
0.131762
0.131481
0.131232
0.131045
0.127149
0.0968666
0.0740307
0.078991
0.285652
0.966661
2.44346
4.05545
5.10568
5.89348
5.8437
5.50018
5.19195
0.134745
0.134655
0.134565
0.134475
0.134385
0.134298
0.134215
0.134143
0.134089
0.134053
0.134023
0.133975
0.133902
0.133809
0.133715
0.133643
0.133622
0.133683
0.122217
0.0975481
0.0801699
0.0683522
0.100166
0.414243
0.935135
1.56643
2.87235
5.80531
9.45564
9.33678
0.134745
0.134655
0.134565
0.134475
0.134385
0.134298
0.134217
0.134148
0.134099
0.134073
0.134056
0.134019
0.133948
0.133854
0.133759
0.133688
0.13367
0.133734
0.121854
0.0972852
0.0792129
0.075209
0.209519
0.715896
1.41779
2.53513
4.31625
6.9322
9.31243
9.2018
0.134745
0.134655
0.134565
0.134475
0.134386
0.1343
0.134221
0.134158
0.134124
0.134124
0.134141
0.134128
0.134068
0.133975
0.13388
0.133814
0.133804
0.133877
0.120058
0.0955147
0.0781876
0.10558
0.401457
1.00671
2.02603
4.1399
6.93905
8.99177
9.0978
8.99469
0.134745
0.134655
0.134565
0.134475
0.134387
0.134302
0.134228
0.134178
0.134173
0.134226
0.134308
0.134343
0.134307
0.134221
0.134132
0.134077
0.134081
0.134166
0.116879
0.0925757
0.0816188
0.180315
0.625344
1.37358
2.98398
6.37138
8.43973
8.80257
8.85706
8.75612
0.134745
0.134655
0.134565
0.134476
0.134388
0.134306
0.13424
0.134212
0.134261
0.126021
0.109291
0.124738
0.134591
0.134539
0.134474
0.134436
0.134451
0.134526
0.110838
0.088945
0.0938601
0.294937
0.86252
1.89094
4.3245
7.65964
8.29405
8.55855
8.59074
8.49849
0.134745
0.134655
0.134566
0.134476
0.13439
0.134311
0.134258
0.134268
0.131012
0.0919679
0.0770073
0.0887481
0.113855
0.134416
0.134426
0.134407
0.134388
0.13164
0.106602
0.0880784
0.118733
0.426199
1.12797
2.56081
5.83233
7.49386
8.02417
8.26084
8.3008
8.22763
0.134745
0.134655
0.134566
0.134477
0.134392
0.134318
0.134283
0.134352
0.0989756
0.0628312
0.0523785
0.0639223
0.0756364
0.0919907
0.113629
0.126934
0.124716
0.11249
0.0958352
0.0848822
0.150418
0.560451
1.43372
3.30888
6.29435
7.15411
7.67314
7.93277
8.0027
7.95583
0.134745
0.134655
0.134566
0.134477
0.134394
0.134326
0.134315
0.13022
0.0724748
0.0446246
0.0317169
0.0346902
0.0477136
0.0595653
0.082641
0.10851
0.109598
0.100682
0.0892044
0.0853196
0.1975
0.714318
1.73555
3.99746
5.90392
6.76633
7.32796
7.62902
7.73047
7.70586
0.134745
0.134656
0.134566
0.134478
0.134395
0.134333
0.134344
0.109266
0.0568318
0.0323063
0.0227918
0.0166421
0.0324506
0.0299244
0.0514415
0.0848978
0.075842
0.068155
0.0619838
0.067193
0.234669
0.847224
1.96206
4.37272
5.6119
6.52393
7.11314
7.42337
7.52627
7.50333
0.134745
0.134656
0.134566
0.134479
0.134397
0.134337
0.13436
0.0980602
0.0498543
0.026527
0.0151591
0.00844079
0.027698
0.0243985
0.0282645
0.0418728
0.0377923
0.0353293
0.034072
0.0423008
0.205635
1.06119
2.52787
4.43812
5.71105
6.59044
7.11321
7.35692
7.40975
7.35865
0.134745
0.134655
0.134566
0.134479
0.134396
0.134335
0.134353
0.100427
0.0517567
0.0275008
0.0138664
0.0071583
0.0242395
0.0205185
0.0316274
0.05252
0.0493518
0.0476724
0.0478537
0.0752588
0.419074
1.53778
3.50765
5.10237
6.22581
6.92178
7.27705
7.39194
7.35747
7.25789
0.134745
0.134655
0.134566
0.134478
0.134393
0.134327
0.134325
0.117803
0.0622158
0.0363389
0.0190952
0.0121579
0.0299529
0.0247372
0.0494424
0.0785113
0.0801974
0.0811429
0.0860221
0.140477
0.580171
1.62269
3.85349
5.93621
6.84567
7.31537
7.48167
7.45688
7.32951
7.17806
0.134745
0.134655
0.134565
0.134476
0.134391
0.134318
0.134289
0.134383
0.0838642
0.0524808
0.0355972
0.0371939
0.0489958
0.0575739
0.0891235
0.118839
0.104878
0.0919036
0.0841462
0.128328
0.515826
1.46267
3.57807
6.60339
7.33983
7.6264
7.64068
7.50311
7.29898
7.10314
0.134745
0.134655
0.134565
0.134476
0.134388
0.134308
0.134255
0.134275
0.120943
0.077482
0.0625458
0.0705564
0.0744766
0.0875035
0.129912
0.132716
0.131595
0.104236
0.0880349
0.121578
0.474135
1.35053
3.30072
6.9481
7.62253
7.81057
7.73072
7.51767
7.25751
7.02761
0.134745
0.134655
0.134565
0.134475
0.134386
0.134301
0.13423
0.134198
0.134247
0.119089
0.0960405
0.0986441
0.106338
0.119507
0.134387
0.134341
0.134369
0.110589
0.0893244
0.112522
0.430192
1.25186
3.06095
6.60212
7.7337
7.8928
7.76656
7.50732
7.2082
6.95249
0.134745
0.134655
0.134565
0.134474
0.134384
0.134295
0.134214
0.134151
0.134127
0.134164
0.13425
0.134329
0.134392
0.134437
0.134439
0.134428
0.134483
0.117767
0.0913035
0.101774
0.372127
1.13068
2.78419
5.92558
7.73136
7.90834
7.76984
7.48385
7.15791
6.8823
0.134745
0.134655
0.134565
0.134474
0.134383
0.134292
0.134204
0.134124
0.134062
0.134024
0.134008
0.133994
0.133989
0.133996
0.134003
0.134021
0.134104
0.117677
0.0899989
0.0890075
0.300208
0.982701
2.46146
5.18328
7.51382
7.8797
7.75518
7.45698
7.11258
6.82146
0.134745
0.134655
0.134565
0.134474
0.134382
0.13429
0.134198
0.13411
0.134028
0.133954
0.133884
0.133814
0.133754
0.133718
0.133704
0.133721
0.133806
0.117822
0.0897035
0.0792078
0.226669
0.821418
2.11225
4.4051
6.40819
7.34409
7.72994
7.43309
7.07696
6.77395
0.134745
0.134655
0.134565
0.134474
0.134381
0.134288
0.134195
0.134102
0.134011
0.133921
0.133828
0.13373
0.13364
0.133578
0.133549
0.133561
0.133645
0.117549
0.0894506
0.0727002
0.161259
0.649
1.74985
3.64289
5.34057
6.38986
7.21218
7.41792
7.05616
6.74421
0.134745
0.134655
0.134565
0.134474
0.134382
0.134289
0.134195
0.1341
0.134006
0.13391
0.133807
0.133697
0.133595
0.133521
0.133485
0.133495
0.133578
0.116205
0.0882906
0.0688311
0.111702
0.47392
1.43749
3.07193
4.5727
5.74839
6.77552
7.41919
7.05587
6.73818
0.134745
0.134656
0.134567
0.134479
0.134394
0.134312
0.134237
0.134173
0.134126
0.134098
0.134079
0.134052
0.13401
0.133956
0.133905
0.133881
0.133914
0.134034
0.118509
0.0947726
0.0776361
0.07071
0.181042
0.652752
1.21103
2.07189
4.01668
8.26462
10.9721
10.9602
0.134745
0.134656
0.134567
0.134479
0.134394
0.134312
0.134238
0.134176
0.134134
0.134113
0.134103
0.134084
0.134043
0.133988
0.133937
0.133914
0.13395
0.134074
0.118137
0.0941716
0.0769766
0.0977751
0.385436
1.02292
1.86908
3.32246
5.59829
8.93884
10.8796
10.8533
0.134745
0.134656
0.134567
0.134479
0.134394
0.134313
0.134241
0.134185
0.134153
0.134149
0.134163
0.134161
0.134128
0.134074
0.134024
0.134007
0.134052
0.134186
0.116415
0.091909
0.0802335
0.179867
0.644299
1.39181
2.80353
5.57201
8.63836
10.4909
10.7038
10.6665
0.134745
0.134656
0.134567
0.13448
0.134395
0.134315
0.134247
0.134199
0.134187
0.13422
0.13428
0.134315
0.1343
0.134253
0.13421
0.134205
0.134268
0.134416
0.112765
0.0892237
0.0968528
0.326036
0.921566
1.92451
4.26096
8.50853
9.8347
10.3322
10.4803
10.4317
0.134745
0.134656
0.134567
0.13448
0.134396
0.134318
0.134255
0.134223
0.134247
0.134344
0.134481
0.134572
0.134589
0.134559
0.134532
0.134545
0.134625
0.13477
0.10713
0.0880546
0.135902
0.505636
1.24437
2.70442
6.15741
8.97387
9.73903
10.1137
10.2182
10.1654
0.134745
0.134656
0.134567
0.13448
0.134397
0.134322
0.134268
0.134261
0.134344
0.120559
0.102361
0.115363
0.134798
0.134821
0.134831
0.134865
0.134949
0.12886
0.103049
0.0916241
0.201
0.700217
1.63932
3.70497
7.85531
8.91622
9.53706
9.84396
9.92872
9.88006
0.134745
0.134656
0.134567
0.134481
0.134398
0.134327
0.134285