/*--------------------------------*- C++ -*----------------------------------*\
| =========                 |                                                 |
| \\      /  F ield         | OpenFOAM: The Open Source CFD Toolbox           |
|  \\    /   O peration     | Version:  2512                                  |
|   \\  /    A nd           | Website:  www.openfoam.com                      |
|    \\/     M anipulation  |                                                 |
\*---------------------------------------------------------------------------*/
FoamFile
{
    version     2.0;
    format      ascii;
    arch        "LSB;label=32;scalar=64";
    class       volScalarField;
    location    "220";
    object      omega;
}
// * * * * * * * * * * * * * * * * * * * * * * * * * * * * * * * * * * * * * //

dimensions      [0 0 -1 0 0 0 0];

internalField   nonuniform List<scalar> 
84826
(
16.0845
15.8153
15.5583
15.3125
15.0772
14.8511
14.6339
14.4242
14.2247
14.0358
13.8568
13.6927
13.5309
13.3706
13.2197
13.0721
12.9278
12.7873
12.6496
12.5153
12.3844
12.2571
12.1333
12.0127
11.8953
11.781
11.6697
11.5611
11.4551
11.3518
16.0846
15.8154
15.5586
15.313
15.0778
14.8522
14.6352
14.4258
14.227
14.0388
13.8605
13.6974
13.5365
13.3766
13.226
13.0784
12.9339
12.7932
12.6554
12.5207
12.3897
12.2621
12.138
12.0172
11.8997
11.7852
11.6736
11.5648
11.4586
11.355
16.0846
15.8155
15.5587
15.3133
15.0784
14.8533
14.6373
14.4285
14.2301
14.0432
13.8668
13.706
13.547
13.388
13.238
13.0905
12.946
12.8049
12.6662
12.531
12.3996
12.2716
12.1472
12.0261
11.9082
11.7934
11.6815
11.5723
11.4658
11.3618
16.0846
15.8156
15.5589
15.3136
15.079
14.8542
14.6389
14.4308
14.2338
14.0491
13.8757
13.7175
13.5617
13.4056
13.2567
13.1094
12.9644
12.8227
12.6832
12.5473
12.4152
12.2866
12.1617
12.0401
11.9216
11.8062
11.6936
11.5836
11.4763
11.3715
16.0846
15.8157
15.5591
15.3139
15.0795
14.8552
14.6406
14.4333
14.2381
14.0565
13.8847
13.7022
13.5533
13.4272
13.2801
13.1333
12.9878
12.8454
12.7048
12.568
12.4353
12.3066
12.1818
12.0605
11.9426
11.8278
11.7162
11.6076
11.5019
11.3991
16.0847
15.8157
15.5591
15.3141
15.0798
14.856
14.6421
14.436
14.2432
14.0615
13.8928
13.7397
13.5939
13.4505
13.3064
13.1602
13.014
12.8707
12.7291
12.5933
12.466
12.3484
12.2407
12.143
12.0553
11.9772
11.9081
11.8473
11.796
11.7525
16.0847
15.8157
15.5592
15.3142
15.0801
14.8566
14.6433
14.4402
14.2473
14.067
13.9159
13.8066
13.6814
13.5215
13.3844
13.2459
13.1111
12.9898
12.9334
12.9764
13.109
13.306
13.5447
13.8091
14.0852
14.3613
14.6276
14.8823
15.1178
15.3523
16.0847
15.8157
15.5592
15.3142
15.0803
14.8571
14.6445
14.4447
14.2502
14.0747
27.8205
27.2861
26.8266
26.3499
14.7522
15.087
15.7995
17.0382
18.5089
19.9399
21.1892
22.2158
23.0327
23.6694
24.1541
24.5117
24.7639
24.9439
25.0376
25.1356
16.0846
15.8157
15.5592
15.3143
15.0805
14.8575
14.6456
14.447
14.2556
14.0935
27.8863
27.9647
29.8937
32.3375
38.9365
39.0357
39.1467
39.1746
39.1024
38.8848
38.5101
38.0025
37.3971
36.7262
36.0194
35.3018
34.602
33.9711
33.3976
32.8534
16.0848
15.816
15.5597
15.315
15.0815
14.8587
14.6473
14.4481
14.2612
14.1252
28.0428
57.6455
106.303
200.135
55.4531
53.1711
51.4525
49.5278
47.7242
46.0582
44.5081
43.0577
41.693
40.3999
39.1677
37.9884
36.8593
35.7732
34.7427
33.7277
16.0849
15.8163
15.5602
15.3157
15.0823
14.8591
14.6473
14.4481
14.2612
14.1255
28.1068
60.0339
257.429
55.1131
51.2161
48.7165
46.6534
44.9012
43.3882
42.0528
40.8617
39.7875
38.8062
37.8981
37.0483
36.2472
35.4799
34.7531
34.0233
16.0849
15.8161
15.5596
15.3149
15.0814
14.8579
14.6457
14.4472
14.2559
14.0942
27.9231
55.9737
71.5741
187.826
48.7258
45.3277
42.5098
40.1063
38.106
36.4289
35.0243
33.8554
32.892
32.1096
31.4796
30.9771
30.5741
30.2479
29.957
29.7258
16.0848
15.8158
15.5591
15.3141
15.0804
14.8572
14.6448
14.4451
14.2508
14.0756
27.8413
27.4703
28.7194
42.2505
18.7101
17.8016
17.1615
16.5975
16.1395
15.8645
15.7594
15.8056
15.9861
16.2787
16.6583
17.0983
17.5707
18.0667
18.538
19.0443
16.0847
15.8157
15.5592
15.3142
15.0802
14.8567
14.6436
14.4407
14.248
14.068
13.9179
13.8126
13.7494
13.6459
13.4984
13.3492
13.1995
13.0544
12.9143
12.778
12.6452
12.5174
12.3973
12.2903
12.2065
12.1584
12.1537
12.1915
12.2717
12.3815
16.0847
15.8157
15.5591
15.3141
15.0799
14.8562
14.6424
14.4365
14.2441
14.0626
13.8948
13.7428
13.6022
13.4617
13.3229
13.1824
13.0441
12.91
12.7763
12.6438
12.512
12.3813
12.2526
12.1267
12.004
11.885
11.7704
11.6609
11.5574
11.4605
16.0846
15.8157
15.5591
15.3139
15.0796
14.8554
14.6409
14.4338
14.239
14.0579
13.8863
13.7042
13.5562
13.434
13.2913
13.1497
13.0113
12.8769
12.7436
12.6124
12.4832
12.3561
12.2311
12.1081
11.9871
11.8683
11.7518
11.6379
11.5267
11.4188
16.0846
15.8156
15.559
15.3137
15.0791
14.8544
14.6392
14.4313
14.2346
14.0504
13.8777
13.7206
13.5666
13.4131
13.2671
13.1237
12.9836
12.8473
12.7123
12.5797
12.4495
12.3214
12.1958
12.0724
11.9515
11.8332
11.718
11.6059
11.4967
11.3905
16.0846
15.8155
15.5588
15.3134
15.0785
14.8534
14.6375
14.4289
14.2308
14.0443
13.8684
13.7086
13.551
13.394
13.2463
13.1019
12.9611
12.824
12.6887
12.5561
12.4262
12.2989
12.1743
12.0525
11.9333
11.817
11.7034
11.5926
11.4845
11.379
16.0846
15.8154
15.5586
15.313
15.0779
14.8523
14.6354
14.4262
14.2275
14.0397
13.862
13.6997
13.5401
13.382
13.2334
13.0885
12.947
12.8095
12.6744
12.5418
12.412
12.285
12.1608
12.0393
11.9207
11.8049
11.6918
11.5814
11.4736
11.3685
16.0845
15.8153
15.5583
15.3126
15.0772
14.8512
14.634
14.4244
14.2251
14.0366
13.8581
13.6949
13.5344
13.3758
13.2268
13.0817
12.9402
12.8024
12.6672
12.5347
12.4049
12.278
12.154
12.0328
11.9145
11.799
11.6863
11.5764
11.4692
11.3646
1.93985
2.08182
2.20859
2.32307
2.42756
2.52388
2.61321
2.69717
2.77888
2.85708
2.93052
2.99608
3.0519
3.09666
3.13292
3.16484
3.19341
3.22061
3.24527
3.26792
3.28951
3.30985
3.32879
3.34622
3.36209
3.37638
3.38906
3.4003
3.41017
3.41888
1.93987
2.08188
2.20872
2.32333
2.42804
2.52478
2.61489
2.69979
2.78333
2.86422
2.94107
3.01012
3.0682
3.11382
3.14974
3.1815
3.20981
3.23696
3.26166
3.28469
3.307
3.32826
3.34822
3.36669
3.38362
3.39895
3.41271
3.42499
3.43588
3.44554
1.93983
2.08199
2.20896
2.3238
2.42898
2.52663
2.61859
2.70554
2.79319
2.88026
2.9653
3.04254
3.10605
3.1537
3.18914
3.2203
3.24849
3.27529
3.30036
3.32524
3.34976
3.3734
3.3957
3.41631
3.43521
3.45229
3.46764
3.4814
3.49367
3.50471
1.93977
2.0821
2.20928
2.32445
2.4303
2.5292
2.62354
2.71426
2.80885
2.9072
3.00972
3.10251
3.17787
3.22923
3.26384
3.29346
3.32092
3.34743
3.37426
3.40196
3.43027
3.45843
3.48557
3.51121
3.53508
3.55707
3.57717
3.59544
3.61205
3.6272
1.9398
2.08211
2.20963
2.32527
2.43193
2.53248
2.62997
2.72641
2.83198
2.95168
3.07564
3.19424
3.29351
3.3525
3.38633
3.41379
3.44085
3.46977
3.50198
3.53605
3.57152
3.60717
3.64181
3.67495
3.70639
3.73605
3.76395
3.79018
3.815
3.83896
1.93985
2.08214
2.20987
2.32615
2.43377
2.53625
2.63771
2.74233
2.86567
3.00608
3.18162
3.35649
3.50384
3.58247
3.62322
3.64954
3.68039
3.7208
3.76999
3.8266
3.89039
3.95845
4.02783
4.09685
4.16453
4.22991
4.29246
4.35185
4.40913
4.46326
1.93987
2.08228
2.2101
2.32684
2.43564
2.54017
2.64633
2.76277
2.90271
3.09156
3.40527
3.81631
4.12059
4.23564
4.34217
4.43937
4.54907
4.67776
4.82763
5.00053
5.19182
5.41104
5.6496
5.90311
6.16308
6.42977
6.69966
6.96807
7.23375
7.50453
1.9399
2.08242
2.21043
2.32744
2.43715
2.54369
2.65487
2.78656
2.94396
3.24901
3.62637
5.05467
6.64218
7.58016
12.9466
14.5469
15.8882
17.0651
18.1615
19.2144
20.2415
21.1912
22.0201
22.7012
23.2239
23.5969
23.8318
23.951
23.9918
23.9698
1.93992
2.08254
2.21071
2.32805
2.43833
2.54656
2.66212
2.80562
2.99513
3.54314
4.57123
13.1005
29.8057
36.6368
95.7931
80.9383
69.8001
61.451
55.2634
50.6386
47.0981
44.3791
42.3223
40.7496
39.5285
38.5436
37.7181
36.9525
36.1901
35.3299
1.94003
2.08279
2.21114
2.32875
2.43949
2.54875
2.66697
2.81268
3.04121
3.87408
7.63364
553.671
1347.62
650.018
102.49
88.2974
78.5954
70.5846
64.1286
58.9118
54.617
51.0022
47.8834
45.1427
42.6894
40.4589
38.4135
36.5167
34.7828
33.1031
1.94014
2.08298
2.21141
2.32907
2.43988
2.54864
2.66688
2.81265
3.04182
3.87581
8.16409
256.413
141.788
108.347
89.0227
75.8964
66.3749
59.1913
53.6023
49.1687
45.6029
42.6959
40.2944
38.2845
36.5817
35.1091
33.8322
32.642
1.94014
2.08272
2.2111
2.32834
2.43876
2.54659
2.66236
2.80624
2.99745
3.54878
5.76867
298.322
883.161
589.342
108.789
87.036
72.6203
62.2912
54.646
48.8356
44.3488
40.7963
38.0022
35.7915
34.0475
32.6815
31.6174
30.8114
30.2029
29.7994
1.94016
2.08246
2.2106
2.32749
2.43734
2.54406
2.65566
2.78827
2.94785
3.25911
3.85656
7.91748
14.4311
28.1929
17.1581
16.4228
15.8092
15.2436
14.7706
14.4051
14.1423
13.9809
13.9166
13.9461
14.0705
14.2904
14.5995
14.9885
15.4427
15.9372
1.94005
2.08236
2.21019
2.32701
2.43594
2.54071
2.64731
2.76475
2.90673
3.10175
3.43473
3.91653
4.51845
4.87834
5.00606
5.04018
5.02304
4.97955
4.93502
4.89909
4.87345
4.85959
4.85782
4.86944
4.89684
4.9413
5.00851
5.09835
5.2115
5.34935
1.93988
2.08221
2.20998
2.32637
2.43414
2.53685
2.63879
2.74441
2.8701
3.01517
3.20366
3.40931
3.64055
3.78778
3.84825
3.85904
3.85326
3.84128
3.82964
3.81978
3.81249
3.8083
3.80876
3.81463
3.82661
3.84386
3.86593
3.89187
3.92153
3.95476
1.93983
2.08218
2.20978
2.32552
2.43233
2.53314
2.6311
2.72847
2.83592
2.95978
3.09113
3.22454
3.3528
3.44534
3.48809
3.50283
3.5104
3.51574
3.51982
3.52336
3.52686
3.53053
3.53462
3.53915
3.54431
3.55017
3.55702
3.56506
3.57439
3.58564
1.9398
2.08218
2.20944
2.32473
2.43074
2.5299
2.62469
2.71624
2.81236
2.91363
3.02199
3.12434
3.21494
3.27945
3.31647
3.33618
3.35192
3.36565
3.37761
3.38847
3.39862
3.40831
3.41766
3.42677
3.43571
3.44462
3.45384
3.4638
3.47463
3.48615
1.93986
2.08208
2.20913
2.32409
2.42945
2.52736
2.61975
2.70743
2.79634
2.88558
2.97432
3.05702
3.12785
3.18145
3.21701
3.24114
3.26175
3.28068
3.29738
3.31251
3.32643
3.33932
3.35132
3.36246
3.37286
3.3824
3.39121
3.39934
3.40681
3.41381
1.9399
2.08198
2.20891
2.32364
2.42853
2.52553
2.61606
2.70163
2.78624
2.86883
2.9483
3.02089
3.08292
3.13109
3.16601
3.19237
3.21508
3.23679
3.25588
3.27313
3.28893
3.30346
3.31685
3.3292
3.34063
3.35109
3.3606
3.36927
3.3771
3.38423
1.93989
2.08191
2.20877
2.32338
2.42805
2.52463
2.61437
2.69895
2.78161
2.86127
2.93681
3.005
3.06333
3.10915
3.14372
3.17099
3.19482
3.21765
3.23775
3.25594
3.27259
3.28788
3.30194
3.31488
3.32679
3.33772
3.34756
3.35643
3.36435
3.37135
1.77772
1.77827
1.78111
1.78587
1.79226
1.80007
1.80894
1.82029
1.83298
1.84718
1.86244
1.87722
1.89081
1.90238
1.91271
1.92258
1.93197
1.94165
1.95079
1.9597
1.96859
1.97741
1.98607
1.99449
2.00269
2.01055
2.01797
2.02502
2.03171
2.03807
1.77772
1.77827
1.78112
1.78589
1.79232
1.80021
1.80926
1.82092
1.83404
1.84908
1.86553
1.88136
1.8964
1.90861
1.91919
1.92926
1.93883
1.94853
1.95787
1.96705
1.97628
1.98549
1.99457
2.00346
2.01212
2.02039
2.02826
2.03576
2.0429
2.04971
1.77772
1.77828
1.78114
1.78594
1.79244
1.80052
1.81007
1.82205
1.83624
1.8533
1.87279
1.89165
1.90941
1.92305
1.93418
1.94467
1.95443
1.96438
1.97404
1.98389
1.99396
2.00411
2.01419
2.02407
2.03364
2.04276
2.05146
2.05975
2.06768
2.07527
1.77772
1.77829
1.78117
1.78601
1.79261
1.80092
1.81109
1.82389
1.8401
1.86093
1.88504
1.90881
1.93236
1.94907
1.96148
1.97282
1.98335
1.99391
2.0044
2.01551
2.02714
2.0391
2.05126
2.06326
2.075
2.08634
2.09727
2.1078
2.11795
2.12772
1.77772
1.77829
1.7812
1.7861
1.79282
1.80143
1.81234
1.8266
1.84616
1.87231
1.90804
1.94356
1.9783
1.99986
2.01505
2.02809
2.03993
2.05189
2.06472
2.07873
2.09365
2.1092
2.12507
2.14077
2.15624
2.1714
2.18622
2.2007
2.21494
2.22899
1.77773
1.7783
1.78123
1.7862
1.79307
1.80204
1.81387
1.83038
1.85435
1.89297
1.96755
2.03986
2.098
2.12719
2.14548
2.16244
2.17872
2.19601
2.21734
2.24256
2.2714
2.30318
2.33742
2.37287
2.40885
2.44465
2.47976
2.51386
2.54716
2.57914
1.77773
1.77831
1.78125
1.78628
1.79333
1.80272
1.81569
1.83542
1.86695
1.94124
2.13266
2.38671
2.51769
2.57027
2.62676
2.68918
2.76663
2.84896
2.94131
3.04625
3.16421
3.296
3.43531
3.58012
3.72619
3.87016
4.00998
4.14435
4.27365
4.39703
1.77773
1.77833
1.78129
1.78635
1.79355
1.80335
1.81763
1.84047
1.8878
2.06314
2.26596
3.5197
4.43707
4.72549
9.25852
10.3313
11.1425
11.8489
12.4795
13.0654
13.6109
14.0959
14.5167
14.8649
15.137
15.3326
15.4568
15.5176
15.5325
15.5021
1.77773
1.77834
1.78133
1.78643
1.79373
1.80386
1.81934
1.84576
1.92018
2.35584
3.36236
14.0303
38.0355
35.6456
87.9545
74.2208
64.8331
57.9533
52.6107
48.3985
44.9762
42.1617
39.7806
37.7088
35.8457
34.1093
32.4478
30.8129
29.225
27.6981
1.77774
1.77835
1.78136
1.78651
1.79388
1.80422
1.82041
1.84916
1.95807
2.76993
6.69641
565.748
432.087
362.421
140.079
105.857
86.4537
73.6193
64.2808
57.2264
51.6526
47.1214
43.3463
40.1328
37.3492
34.9067
32.7409
30.8007
29.0549
27.4627
1.77774
1.77835
1.78135
1.78651
1.7939
1.80427
1.82047
1.84924
1.95836
2.77062
7.22085
258.416
135.502
100.847
81.6965
69.2128
60.209
53.395
48.0225
43.7114
40.168
37.214
34.7231
32.5968
30.7606
29.1538
27.7332
26.4509
1.77774
1.77834
1.78133
1.78644
1.79377
1.80396
1.8195
1.84601
1.92087
2.35653
4.50395
368.589
458.033
284.479
79.584
65.5109
55.5233
48.2593
42.8118
38.6422
35.3868
32.8061
30.7499
29.0885
27.752
26.6617
25.7674
25.0136
24.3593
23.7475
1.77773
1.77833
1.78129
1.78636
1.7936
1.80344
1.8178
1.84081
1.88863
2.06536
2.54669
7.12644
11.3303
13.1149
9.48124
9.81263
9.91877
9.90751
9.85681
9.81169
9.79666
9.82374
9.89747
10.0125
10.1671
10.3479
10.5483
10.7605
10.9821
11.1961
1.77773
1.77832
1.78125
1.7863
1.79338
1.80281
1.81586
1.83582
1.86784
1.9439
2.14198
2.4302
2.65269
2.77371
2.82978
2.85619
2.88769
2.91983
2.94888
2.97712
3.00578
3.03593
3.06839
3.10451
3.1448
3.18927
3.23828
3.29158
3.34939
3.41145
1.77773
1.7783
1.78124
1.78622
1.79311
1.80213
1.81405
1.83078
1.85522
1.89518
1.97402
2.05783
2.14223
2.18929
2.21172
2.22153
2.23018
2.23792
2.2451
2.2523
2.25993
2.26809
2.27693
2.28691
2.29818
2.31105
2.32616
2.34289
2.36107
2.38052
1.77773
1.7783
1.78122
1.78612
1.79287
1.80153
1.81252
1.82699
1.847
1.87411
1.91219
1.95234
1.9957
2.02463
2.04162
2.05199
2.06039
2.06784
2.07462
2.08101
2.08721
2.09338
2.09953
2.10577
2.11223
2.11888
2.12581
2.13308
2.14066
2.14861
1.77772
1.77829
1.78119
1.78604
1.79266
1.80102
1.81127
1.82425
1.84083
1.86243
1.88791
1.91409
1.94093
1.96121
1.97445
1.98385
1.99208
1.99992
2.00716
2.01404
2.02068
2.02719
2.03368
2.04004
2.04641
2.0528
2.05921
2.06574
2.07244
2.07949
1.77772
1.77829
1.78116
1.78597
1.79249
1.80062
1.81025
1.82237
1.83686
1.8545
1.87505
1.8955
1.91523
1.93033
1.94148
1.95038
1.95842
1.96643
1.97391
1.98106
1.98798
1.99473
2.00135
2.00784
2.01414
2.02037
2.02644
2.03237
2.03818
2.04386
1.77772
1.77828
1.78114
1.78592
1.79237
1.80031
1.80944
1.82124
1.8346
1.85009
1.86731
1.88421
1.90037
1.91317
1.92341
1.93218
1.9404
1.94844
1.95614
1.96351
1.97065
1.97758
1.98432
1.99092
1.99734
2.0036
2.00969
2.0156
2.02132
2.02686
1.77772
1.77827
1.78113
1.78589
1.79231
1.80017
1.8091
1.82058
1.83348
1.84806
1.86393
1.87952
1.89383
1.9056
1.9154
1.92412
1.93237
1.9405
1.94831
1.9558
1.96304
1.97007
1.97691
1.98357
1.9901
1.99639
2.00252
2.00843
2.01413
2.01958
1.77423
1.7686
1.7632
1.75806
1.75325
1.74878
1.74476
1.74143
1.73884
1.73717
1.73627
1.73545
1.73406
1.73229
1.73058
1.72904
1.72758
1.72616
1.72489
1.72373
1.72273
1.72191
1.72122
1.72065
1.72016
1.71972
1.71936
1.71902
1.7187
1.71841
1.77423
1.7686
1.7632
1.75807
1.75326
1.74881
1.74483
1.74158
1.73917
1.73786
1.73753
1.73718
1.73651
1.73507
1.73355
1.73216
1.73081
1.72948
1.7283
1.72723
1.72636
1.72568
1.72516
1.72475
1.72443
1.72421
1.72403
1.72388
1.72376
1.72366
1.77423
1.7686
1.7632
1.75808
1.75328
1.74887
1.74494
1.74193
1.73996
1.73951
1.74064
1.74166
1.74259
1.74193
1.74084
1.73974
1.73859
1.73745
1.73645
1.73562
1.73504
1.7347
1.73454
1.73452
1.73458
1.73477
1.73498
1.73522
1.73549
1.73579
1.77423
1.7686
1.7632
1.75809
1.75331
1.74896
1.74519
1.7425
1.74136
1.74268
1.74666
1.75109
1.75443
1.75535
1.75519
1.75465
1.75384
1.75305
1.7524
1.75203
1.75202
1.75233
1.75291
1.75368
1.75462
1.75568
1.75681
1.758
1.75925
1.76054
1.77423
1.7686
1.76321
1.7581
1.75335
1.74908
1.74555
1.7434
1.74376
1.74829
1.75978
1.77173
1.7813
1.78495
1.78652
1.78699
1.78671
1.78657
1.78669
1.78746
1.78887
1.7908
1.7931
1.79571
1.79858
1.80159
1.80474
1.80801
1.81141
1.81493
1.77424
1.7686
1.76321
1.75812
1.7534
1.74924
1.74603
1.74482
1.74765
1.76038
1.79402
1.82942
1.85105
1.8596
1.86401
1.86737
1.86972
1.87234
1.87592
1.88128
1.88824
1.89654
1.90592
1.91617
1.92707
1.93842
1.9501
1.96201
1.97411
1.98618
1.77424
1.76861
1.76322
1.75814
1.75346
1.74942
1.74665
1.74689
1.75486
1.78884
1.88823
2.01431
2.07218
2.09221
2.11494
2.14046
2.17084
2.20247
2.23706
2.27645
2.3203
2.3678
2.41745
2.4684
2.51946
2.57007
2.61977
2.66826
2.71562
2.76183
1.77424
1.76862
1.76323
1.75816
1.75352
1.74963
1.74738
1.74955
1.76755
1.861
1.97985
2.64612
3.09394
3.19478
4.30691
4.60119
4.86457
5.10141
5.36138
5.65161
5.95333
6.25019
6.53104
6.78714
7.01576
7.21445
7.38236
7.51869
7.62839
7.70285
1.77424
1.76863
1.76325
1.75818
1.7536
1.74981
1.74808
1.75273
1.78712
2.02076
2.57166
7.75982
17.9361
18.5998
35.6599
32.7154
30.4186
28.6782
27.3511
26.2412
25.1765
24.0873
22.9533
21.7908
20.6111
19.4423
18.3113
17.2668
16.3036
15.4239
1.77424
1.76864
1.76326
1.75822
1.75366
1.74995
1.74859
1.75518
1.8088
2.25783
4.16203
259.764
595.744
459.208
107.856
86.3182
71.8451
61.5676
53.8505
47.9579
43.2241
39.3219
36.0601
33.2655
30.8347
28.6945
26.7919
25.0888
23.5522
22.1634
1.77424
1.76863
1.76326
1.75821
1.75364
1.74995
1.74859
1.75519
1.80888
2.25852
4.53415
418.474
257.978
273.145
104.59
84.0509
70.479
60.9114
53.7712
48.1864
43.6425
39.8571
36.6229
33.8056
31.341
29.1582
27.2143
25.4763
23.9136
22.5075
1.77423
1.76861
1.76324
1.75817
1.75358
1.74981
1.74811
1.75279
1.78732
2.02102
3.05241
148.118
678.536
259.877
32.6504
29.4625
26.8756
24.7633
23.0399
21.6194
20.4324
19.4264
18.561
17.8009
17.1326
16.5261
15.9711
15.451
14.956
14.4791
1.77423
1.76861
1.76323
1.75816
1.75353
1.74964
1.74742
1.74965
1.76776
1.86164
2.13657
4.12158
5.80135
6.2402
4.44912
4.60339
4.75238
4.85597
4.93637
5.00731
5.07446
5.14107
5.20992
5.28424
5.36779
5.46779
5.58435
5.71181
5.84726
5.98368
1.77423
1.76861
1.76322
1.75814
1.75347
1.74944
1.7467
1.747
1.75513
1.7897
1.89178
2.0305
2.11157
2.15332
2.17553
2.19221
2.21259
2.2345
2.25464
2.27409
2.29354
2.31343
2.33369
2.35484
2.377
2.40057
2.42547
2.45176
2.47936
2.508
1.77424
1.7686
1.76322
1.75812
1.75341
1.74926
1.74607
1.74494
1.74792
1.76114
1.79638
1.83604
1.86506
1.87958
1.88521
1.88786
1.88946
1.89075
1.89169
1.89265
1.89384
1.89535
1.89732
1.89974
1.90273
1.90651
1.91111
1.9166
1.92291
1.92987
1.77423
1.7686
1.76321
1.7581
1.75336
1.7491
1.74559
1.74351
1.74401
1.74889
1.76131
1.77495
1.78715
1.79254
1.79491
1.79559
1.79529
1.79476
1.79396
1.79306
1.79214
1.79128
1.79054
1.78996
1.78955
1.78938
1.78948
1.78984
1.79048
1.79141
1.77423
1.7686
1.76321
1.75809
1.75332
1.74898
1.74523
1.74258
1.74156
1.74316
1.74766
1.75295
1.75726
1.75913
1.75936
1.75881
1.75789
1.75682
1.75566
1.75443
1.75318
1.75198
1.75086
1.74985
1.74894
1.74814
1.74751
1.74703
1.74673
1.74664
1.77423
1.7686
1.7632
1.75808
1.75329
1.74889
1.74497
1.74201
1.74012
1.73989
1.74141
1.74302
1.74458
1.74432
1.74331
1.74204
1.74069
1.73926
1.73787
1.73646
1.73509
1.73379
1.73256
1.73142
1.73037
1.7294
1.72853
1.72776
1.72709
1.72651
1.77423
1.7686
1.7632
1.75807
1.75327
1.74883
1.74486
1.74165
1.73932
1.73816
1.73813
1.73819
1.73789
1.7366
1.73501
1.7334
1.73186
1.7303
1.72883
1.72737
1.72596
1.72462
1.72336
1.72218
1.72108
1.72006
1.71912
1.71827
1.71748
1.71678
1.77423
1.7686
1.76319
1.75807
1.75325
1.7488
1.74479
1.74149
1.73896
1.73743
1.73677
1.73628
1.73515
1.73343
1.73158
1.72983
1.72819
1.72657
1.72504
1.72355
1.72211
1.72074
1.71946
1.71827
1.71715
1.71613
1.71517
1.71428
1.71347
1.71271
1.77415
1.7683
1.7625
1.75677
1.7511
1.74553
1.7401
1.73493
1.73013
1.72579
1.72182
1.71779
1.71334
1.70867
1.70409
1.69962
1.69518
1.69073
1.68635
1.68202
1.67778
1.67363
1.66957
1.66561
1.66173
1.65793
1.65419
1.65054
1.64696
1.64346
1.77415
1.7683
1.76251
1.75677
1.7511
1.74554
1.74013
1.73501
1.73032
1.72619
1.72256
1.71892
1.71479
1.71033
1.70588
1.7015
1.69712
1.6927
1.68836
1.68407
1.67986
1.67576
1.67176
1.66785
1.66403
1.6603
1.65663
1.65306
1.64955
1.64614
1.77415
1.7683
1.76251
1.75677
1.75111
1.74557
1.7402
1.73519
1.73076
1.72716
1.7244
1.72175
1.71841
1.71447
1.71032
1.70612
1.70184
1.69751
1.69323
1.68901
1.68491
1.68091
1.67704
1.67328
1.66962
1.66604
1.66255
1.65914
1.65581
1.65258
1.77415
1.7683
1.76251
1.75678
1.75113
1.74561
1.74032
1.73552
1.73159
1.72906
1.72822
1.72774
1.72603
1.72312
1.71956
1.71569
1.71161
1.70742
1.7033
1.69925
1.69534
1.69158
1.68796
1.68449
1.68113
1.67788
1.67476
1.67173
1.6688
1.66598
1.77415
1.76831
1.76251
1.75678
1.75115
1.74568
1.74052
1.73606
1.73305
1.73267
1.73636
1.74107
1.74276
1.74183
1.73938
1.73608
1.73229
1.72842
1.72463
1.721
1.71763
1.7145
1.71159
1.70888
1.70635
1.70399
1.70178
1.69971
1.69778
1.69599
1.77415
1.76831
1.76251
1.75679
1.75118
1.74576
1.7408
1.73691
1.73554
1.73998
1.75572
1.77373
1.78333
1.78602
1.78566
1.78371
1.78079
1.77797
1.77532
1.7732
1.77172
1.7708
1.77037
1.77038
1.77077
1.77154
1.77259
1.7739
1.77546
1.77719
1.77415
1.76831
1.76252
1.7568
1.75121
1.74587
1.74117
1.73819
1.73993
1.75607
1.80701
1.8571
1.88479
1.89543
1.89992
1.90343
1.90662
1.9104
1.91504
1.92135
1.92988
1.94006
1.95155
1.96398
1.97708
1.99061
2.00429
2.01802
2.03176
2.04541
1.77415
1.76831
1.76253
1.75681
1.75124
1.74599
1.74162
1.7399
1.74752
1.791
1.94486
2.18033
2.26162
2.28352
2.31951
2.36491
2.41374
2.4643
2.51704
2.57687
2.65015
2.7306
2.81422
2.89747
2.97855
3.05495
3.12554
3.18931
3.24611
3.29382
1.77416
1.76832
1.76254
1.75683
1.75129
1.7461
1.74205
1.74191
1.75794
1.85822
2.04536
3.29822
4.26873
4.3979
5.4375
5.67346
5.84777
5.98525
6.10078
6.19249
6.2612
6.30622
6.32077
6.30785
6.27119
6.21532
6.14287
6.05685
5.95876
5.85195
1.77416
1.76832
1.76256
1.75687
1.75134
1.7462
1.74236
1.74338
1.76849
1.94548
2.47972
10.2336
20.9897
21.6157
19.0798
18.9491
18.5084
17.9637
17.3759
16.7849
16.2064
15.6415
15.0772
14.5261
13.9939
13.4756
12.973
12.4881
12.0218
11.5778
1.77416
1.76832
1.76255
1.75685
1.75133
1.7462
1.74236
1.74339
1.76852
1.94562
2.55099
13.1326
30.5071
35.2297
19.153
19.0818
18.7534
18.3637
17.946
17.5078
17.0477
16.577
16.0867
15.5913
15.0886
14.5855
14.0813
13.5798
13.0813
12.5906
1.77415
1.76831
1.76252
1.75682
1.75128
1.74611
1.74206
1.74194
1.75802
1.85847
2.19134
5.31719
8.55479
8.67988
5.39843
5.582
5.72935
5.83024
5.90984
5.99773
6.08305
6.15605
6.21122
6.24745
6.26403
6.26422
6.24948
6.22279
6.18831
6.1452
1.77415
1.76831
1.76252
1.75681
1.75125
1.746
1.74165
1.73996
1.74763
1.79136
1.94737
2.19818
2.3021
2.34231
2.37356
2.40364
2.44182
2.48194
2.52321
2.56322
2.60271
2.64185
2.6807
2.71927
2.75787
2.79675
2.83582
2.87538
2.91562
2.95642
1.77415
1.76831
1.76252
1.7568
1.75121
1.74588
1.74119
1.73825
1.74009
1.75647
1.80847
1.86339
1.8984
1.91626
1.92335
1.92655
1.92839
1.93118
1.93376
1.93628
1.93911
1.94241
1.94632
1.95088
1.95617
1.96222
1.96904
1.97663
1.9849
1.99376
1.77415
1.76831
1.76252
1.75679
1.75118
1.74577
1.74082
1.73697
1.7357
1.7404
1.75687
1.77661
1.78876
1.79416
1.79527
1.79428
1.79194
1.78934
1.78636
1.78327
1.78019
1.77722
1.77441
1.77182
1.7695
1.76752
1.76588
1.76465
1.76382
1.76343
1.77415
1.76831
1.76251
1.75679
1.75115
1.74569
1.74054
1.73611
1.73318
1.733
1.73718
1.74272
1.74543
1.74541
1.74364
1.74096
1.73766
1.7341
1.73036
1.72647
1.72251
1.71854
1.71461
1.71075
1.707
1.70338
1.69992
1.69663
1.69352
1.69061
1.77415
1.76831
1.76251
1.75678
1.75113
1.74562
1.74034
1.73556
1.7317
1.72932
1.72878
1.72876
1.72756
1.72506
1.72182
1.71822
1.71439
1.71037
1.70629
1.70214
1.69797
1.6938
1.68968
1.68562
1.68162
1.67771
1.67391
1.6702
1.66662
1.66317
1.77415
1.7683
1.76251
1.75677
1.75112
1.74558
1.74021
1.73523
1.73085
1.72736
1.72482
1.72248
1.71944
1.71569
1.71167
1.70756
1.7034
1.69914
1.69488
1.69061
1.68634
1.6821
1.67792
1.67379
1.66973
1.66574
1.66183
1.65801
1.65429
1.65067
1.77415
1.7683
1.76251
1.75677
1.75111
1.74555
1.74014
1.73504
1.7304
1.72636
1.72289
1.71948
1.71554
1.71117
1.70675
1.7024
1.69806
1.69369
1.68935
1.68501
1.6807
1.67643
1.67221
1.66806
1.66397
1.65996
1.65601
1.65215
1.64838
1.6447
1.77415
1.7683
1.7625
1.75676
1.7511
1.74554
1.74011
1.73495
1.73019
1.72594
1.7221
1.71826
1.71396
1.70933
1.70475
1.70028
1.69588
1.69146
1.68707
1.68271
1.67837
1.67408
1.66985
1.66568
1.66159
1.65756
1.65361
1.64974
1.64594
1.64225
1.77415
1.76829
1.76248
1.75671
1.751
1.74535
1.73978
1.73441
1.72928
1.72446
1.71984
1.71517
1.71021
1.70508
1.70001
1.69499
1.68997
1.68493
1.67991
1.67492
1.66995
1.66503
1.66016
1.65534
1.65057
1.64585
1.64117
1.63654
1.63195
1.62744
1.77415
1.76829
1.76248
1.75671
1.751
1.74536
1.7398
1.73447
1.72942
1.72473
1.72035
1.71593
1.71119
1.70621
1.70123
1.69626
1.69128
1.68625
1.68125
1.67627
1.67132
1.66642
1.66157
1.65677
1.65202
1.64732
1.64267
1.63807
1.63352
1.62904
1.77415
1.7683
1.76248
1.75672
1.75101
1.74538
1.73986
1.7346
1.72973
1.72539
1.72157
1.71782
1.7136
1.70898
1.70419
1.69934
1.69441
1.68942
1.68445
1.6795
1.67459
1.66973
1.66493
1.66019
1.6555
1.65087
1.6463
1.64176
1.63729
1.6329
1.77415
1.7683
1.76248
1.75672
1.75102
1.74541
1.73994
1.73483
1.7303
1.72666
1.72403
1.72165
1.71852
1.71457
1.71016
1.70551
1.7007
1.69578
1.69089
1.68601
1.68118
1.67642
1.67172
1.6671
1.66255
1.65807
1.65364
1.64928
1.64497
1.64076
1.77415
1.7683
1.76249
1.75673
1.75103
1.74545
1.74009
1.7352
1.73128
1.72897
1.7289
1.72944
1.7284
1.72575
1.72203
1.71777
1.71317
1.70844
1.70371
1.699
1.69438
1.68987
1.68547
1.68117
1.67697
1.67287
1.66884
1.6649
1.66105
1.65729
1.77415
1.7683
1.76249
1.75673
1.75105
1.74552
1.74029
1.73578
1.73289
1.73323
1.73904
1.74644
1.74974
1.74939
1.7469
1.74336
1.73913
1.73493
1.73066
1.72649
1.72251
1.71875
1.71521
1.71187
1.70871
1.70571
1.70288
1.70018
1.69763
1.69519
1.77415
1.7683
1.76249
1.75674
1.75108
1.7456
1.74055
1.73661
1.73548
1.7414
1.76208
1.78541
1.79783
1.80174
1.80168
1.80009
1.79762
1.79503
1.79238
1.79
1.78806
1.78675
1.78596
1.78561
1.78565
1.786
1.78664
1.78748
1.78851
1.78968
1.77415
1.76831
1.7625
1.75675
1.7511
1.74568
1.74085
1.7377
1.73949
1.75704
1.81606
1.87514
1.90673
1.91741
1.92197
1.92705
1.93289
1.93896
1.9453
1.95247
1.96085
1.97116
1.98316
1.99636
2.0104
2.02481
2.03916
2.05302
2.06623
2.07823
1.77416
1.76831
1.76253
1.75677
1.75112
1.74576
1.74113
1.73882
1.74472
1.78211
1.91551
2.12075
2.20146
2.21989
2.25412
2.30201
2.35347
2.40178
2.44742
2.49108
2.53173
2.56849
2.60284
2.63437
2.66251
2.6872
2.7082
2.72527
2.73778
2.74534
1.77416
1.76831
1.76254
1.7568
1.75116
1.74581
1.74133
1.73966
1.74889
1.81168
2.07986
2.59969
2.95707
3.00509
3.21257
3.41702
3.5862
3.72851
3.84958
3.95131
4.0354
4.10285
4.15699
4.19774
4.22584
4.24294
4.24981
4.24665
4.23368
4.21115
1.77416
1.76831
1.76252
1.75678
1.75116
1.74581
1.74133
1.73967
1.74891
1.81175
2.0809
2.59243
2.93868
2.9896
3.21017
3.43436
3.62303
3.78368
3.92374
4.04421
4.14801
4.234
4.30555
4.36159
4.40324
4.43167
4.44743
4.45192
4.44564
4.4295
1.77415
1.76831
1.7625
1.75675
1.75113
1.74576
1.74115
1.73885
1.74477
1.78229
1.91643
2.12602
2.21564
2.24144
2.27236
2.31749
2.36878
2.42254
2.47535
2.52629
2.57515
2.62113
2.66371
2.70256
2.73784
2.76889
2.79589
2.81867
2.8375
2.85213
1.77415
1.7683
1.76249
1.75675
1.75111
1.74569
1.74086
1.73774
1.73958
1.75723
1.81681
1.88007
1.91741
1.93281
1.94062
1.94702
1.95262
1.9589
1.96592
1.9726
1.97934
1.98663
1.99428
2.00231
2.01057
2.01907
2.02784
2.03699
2.04645
2.05602
1.77415
1.7683
1.76249
1.75674
1.75108
1.7456
1.74056
1.73666
1.73559
1.74167
1.76282
1.78775
1.80259
1.80937
1.81127
1.81079
1.80885
1.80652
1.80381
1.80093
1.79808
1.79539
1.79289
1.79068
1.78874
1.78715
1.78591
1.78501
1.78448
1.78426
1.77415
1.7683
1.76249
1.75673
1.75106
1.74553
1.74031
1.73582
1.733
1.73349
1.73969
1.74787
1.75222
1.753
1.7514
1.74862
1.74505
1.74129
1.7372
1.73294
1.7286
1.72425
1.71993
1.71566
1.71148
1.70744
1.70355
1.69983
1.69629
1.69296
1.77415
1.7683
1.76249
1.75673
1.75104
1.74546
1.74011
1.73524
1.73137
1.7292
1.72939
1.73037
1.72984
1.72769
1.72446
1.72063
1.71642
1.71198
1.70742
1.70272
1.69794
1.69314
1.68835
1.68359
1.67887
1.67422
1.66965
1.66517
1.6608
1.65655
1.77415
1.7683
1.76249
1.75672
1.75102
1.74542
1.73996
1.73486
1.73038
1.72684
1.72441
1.7223
1.71946
1.71578
1.7116
1.70718
1.70257
1.69781
1.69301
1.68814
1.68324
1.67833
1.67344
1.66858
1.66376
1.65899
1.65427
1.64962
1.64503
1.64054
1.77415
1.7683
1.76248
1.75672
1.75101
1.74538
1.73987
1.73463
1.7298
1.72554
1.72186
1.7183
1.71428
1.70981
1.70514
1.70039
1.69558
1.69068
1.68577
1.68082
1.67587
1.67092
1.666
1.6611
1.65625
1.65144
1.64668
1.64197
1.63732
1.63275
1.77415
1.7683
1.76248
1.75672
1.751
1.74536
1.73982
1.73449
1.72948
1.72486
1.72058
1.71631
1.7117
1.70681
1.70188
1.69697
1.69206
1.6871
1.68214
1.67716
1.67219
1.66723
1.6623
1.6574
1.65253
1.64771
1.64294
1.63821
1.63354
1.62895
1.77415
1.76829
1.76248
1.75671
1.751
1.74535
1.73979
1.73443
1.72933
1.72456
1.72005
1.71551
1.71066
1.70559
1.70055
1.69557
1.69061
1.68562
1.68063
1.67563
1.67064
1.66567
1.66073
1.65583
1.65096
1.64614
1.64137
1.63664
1.63196
1.62736
1.77415
1.76829
1.76248
1.75671
1.75099
1.74534
1.73975
1.73432
1.72908
1.72406
1.71919
1.71429
1.7092
1.70401
1.69884
1.6937
1.68858
1.68343
1.67831
1.6732
1.66812
1.66306
1.65804
1.65305
1.6481
1.64319
1.6383
1.63346
1.62864
1.62389
1.77415
1.76829
1.76248
1.75671
1.75099
1.74534
1.73976
1.73436
1.72918
1.72426
1.71954
1.7148
1.70987
1.70478
1.69967
1.69458
1.68947
1.68434
1.67922
1.67412
1.66905
1.664
1.65899
1.65401
1.64907
1.64417
1.6393
1.63446
1.62966
1.62492
1.77415
1.7683
1.76248
1.75671
1.751
1.74536
1.7398
1.73446
1.7294
1.72471
1.72036
1.71605
1.71146
1.70662
1.70165
1.69663
1.69156
1.68644
1.68135
1.67627
1.67121
1.66618
1.66119
1.65624
1.65134
1.64647
1.64163
1.63684
1.63207
1.62738
1.77415
1.7683
1.76248