/*--------------------------------*- C++ -*----------------------------------*\
| =========                 |                                                 |
| \\      /  F ield         | OpenFOAM: The Open Source CFD Toolbox           |
|  \\    /   O peration     | Version:  2512                                  |
|   \\  /    A nd           | Website:  www.openfoam.com                      |
|    \\/     M anipulation  |                                                 |
\*---------------------------------------------------------------------------*/
FoamFile
{
    version     2.0;
    format      ascii;
    arch        "LSB;label=32;scalar=64";
    class       volScalarField;
    location    "220";
    object      omega;
}
// * * * * * * * * * * * * * * * * * * * * * * * * * * * * * * * * * * * * * //

dimensions      [0 0 -1 0 0 0 0];

internalField   nonuniform List<scalar> 
90398
(
16.0849
15.8156
15.557
15.3103
15.0745
14.8508
14.6428
14.4267
14.2345
14.0481
13.8735
13.7141
13.5571
13.4038
13.2629
13.1288
13.0024
12.8853
12.7771
12.6789
12.5907
12.5122
12.4414
12.4054
13.2424
22.1089
45.4636
80.0667
112.884
139.069
16.0849
15.8157
15.5576
15.3112
15.0757
14.8519
14.6429
14.4277
14.2354
14.0482
13.8763
13.7178
13.5612
13.4083
13.2675
13.1334
13.0069
12.89
12.7823
12.6845
12.5969
12.5192
12.4541
12.6036
16.7619
35.1118
63.4794
94.5798
122.021
144.371
16.0849
15.8159
15.5582
15.3122
15.0766
14.8525
14.6406
14.4302
14.2391
14.0526
13.8819
13.7252
13.5701
13.4179
13.2776
13.1436
13.0176
12.9013
12.7937
12.6966
12.6102
12.5346
12.5003
13.5181
24.0844
49.9401
80.0679
107.473
130.257
149.152
16.085
15.8161
15.5591
15.3128
15.077
14.8524
14.6417
14.4371
14.2427
14.058
13.8909
13.7358
13.5833
13.4339
13.295
13.1618
13.0365
12.9214
12.8152
12.7199
12.6361
12.5668
12.6592
16.0406
33.948
63.3013
91.5212
115.708
135.624
152.193
16.0851
15.8161
15.5597
15.3131
15.0764
14.8503
14.6406
14.44
14.2465
14.0654
13.9031
13.7259
13.5796
13.4612
13.3258
13.1953
13.0728
12.9614
12.8591
12.7688
12.692
12.6441
13.1044
20.2708
43.7293
72.3481
98.3066
120.378
138.644
153.73
16.0851
15.8163
15.5598
15.3141
15.0779
14.8469
14.6251
14.4386
14.25
14.0509
13.9027
13.7658
13.6272
13.4957
13.3681
13.2443
13.1281
13.0235
12.9291
12.8508
12.7959
12.8106
13.8775
24.4896
49.1341
76.1428
100.897
122.243
139.817
154.111
16.0851
15.8163
15.5593
15.3134
15.0786
14.8474
14.6238
14.4368
14.2487
14.0996
14.005
13.8656
13.7284
13.5781
13.4613
13.3542
13.257
13.1712
13.1101
13.0929
13.1526
13.3745
14.7109
24.3948
46.8983
73.7744
99.5187
121.775
139.813
153.903
16.0851
15.8159
15.5561
15.3059
15.0735
14.8514
14.6273
14.428
14.2571
28.1719
28.0548
28.118
27.2183
26.5197
14.1782
14.0784
14.0557
14.0849
14.1724
14.3989
14.9165
15.7003
17.0047
22.4134
41.0391
69.2658
97.9142
122.041
140.74
154.42
16.0851
15.8159
15.5554
15.3012
15.065
14.8487
14.6354
14.4377
28.5138
27.9033
40.9284
50.3859
43.3066
35.9927
22.4546
22.7099
22.9662
23.1147
23.2138
23.2861
23.4287
23.8352
24.7692
29.5017
47.5242
76.43
104.997
127.781
144.815
156.77
16.0851
15.8162
15.5581
15.3061
15.066
14.8485
14.6428
14.4457
28.5245
56.0359
202.884
252.48
214.006
135.641
42.5823
39.9525
37.9622
36.5052
35.4978
34.8119
34.2422
33.7276
34.7075
44.4092
67.518
94.4373
118.046
136.577
150.564
160.267
16.0851
15.8161
15.5579
15.3059
15.0657
14.848
14.6421
14.4442
28.5245
56.0836
277.261
266.714
210.994
54.5169
49.8483
46.2216
43.4066
41.1784
39.3301
37.7198
36.6185
39.789
55.5648
81.0042
106.508
127.652
143.819
155.786
163.744
16.0851
15.8157
15.555
15.3006
15.064
14.8472
14.6332
14.4346
28.5046
27.9323
57.2372
134.728
209.324
211.393
48.0264
46.3716
44.4501
42.5053
40.5766
38.3797
35.8634
33.5426
39.2204
62.5468
91.2652
116.281
135.738
150.096
160.426
166.882
16.0851
15.8156
15.5556
15.3049
15.0719
14.8491
14.6238
14.4245
14.2474
28.1163
27.4856
28.4929
31.8979
34.3338
16.8475
18.1114
18.9286
19.1201
18.762
18.2683
17.7383
19.268
38.5767
70.4188
100.181
124.059
142.032
154.988
164.078
169.336
16.085
15.8159
15.5586
15.3122
15.0767
14.8445
14.6195
14.4299
14.2395
14.0743
13.9208
13.7699
13.6395
13.4764
13.3394
13.2073
13.0843
12.9678
12.8557
12.7629
12.845
17.1966
41.3494
75.8753
105.722
128.937
146.1
158.251
166.578
170.996
16.0851
15.8159
15.5591
15.3128
15.0758
14.8438
14.6203
14.431
14.2388
14.0345
13.8736
13.7248
13.5679
13.412
13.2582
13.1068
12.9624
12.8282
12.7092
12.6145
12.6866
16.584
39.7731
76.3416
107.134
130.754
147.999
160.005
168.042
171.957
16.085
15.8158
15.559
15.3119
15.0744
14.8471
14.6357
14.4324
14.2344
14.0468
13.8756
13.6857
13.5251
13.3881
13.2328
13.0813
12.9382
12.809
12.6939
12.6004
12.6341
15.6958
36.7643
74.4864
106.46
130.895
148.607
160.785
168.777
172.39
16.0849
15.8158
15.5585
15.3117
15.0751
14.8494
14.637
14.4297
14.2312
14.0399
13.8635
13.697
13.5315
13.3658
13.2098
13.0598
12.9185
12.7899
12.6748
12.5793
12.5713
14.7383
32.9453
70.5516
103.803
129.41
147.962
160.62
168.806
172.376
16.0849
15.8157
15.5578
15.3114
15.0751
14.8498
14.6362
14.423
14.2278
14.0351
13.8557
13.6881
13.5201
13.352
13.1953
13.0452
12.9039
12.7748
12.6588
12.561
12.5204
13.8934
28.6974
65.0815
99.4352
126.421
146.116
159.535
168.144
171.908
16.0849
15.8156
15.5573
15.3105
15.0744
14.8495
14.6387
14.4207
14.224
14.0307
13.8503
13.6812
13.512
13.3436
13.1861
13.0351
12.8928
12.7625
12.6455
12.5455
12.4823
13.2565
24.5451
58.9353
93.9374
122.273
143.273
157.637
166.847
171.007
16.0849
15.8156
15.5569
15.3099
15.0735
14.8487
14.6387
14.4196
14.2228
14.0301
13.8472
13.6774
13.5078
13.3391
13.1809
13.0286
12.8852
12.7538
12.6354
12.5334
12.4566
12.8567
21.133
52.9004
88.6518
118.029
140.137
155.357
165.202
169.857
1.93945
2.081
2.20742
2.32158
2.42556
2.52076
2.61131
2.69485
2.77387
2.84692
2.91242
2.96598
3.00755
3.04309
3.07453
3.10281
3.12865
3.15458
3.17937
3.20635
3.23524
3.26651
3.29745
3.33568
3.52392
4.77684
8.90551
16.5844
24.6956
31.5427
1.93946
2.08102
2.20751
2.32176
2.42568
2.52146
2.61346
2.69856
2.77987
2.85555
2.92411
2.97922
3.02028
3.05496
3.08535
3.11279
3.13779
3.16288
3.18692
3.21325
3.24157
3.27237
3.30323
3.36971
3.9734
6.75197
12.5622
20.0182
27.3758
33.6661
1.93947
2.08113
2.20771
2.32219
2.42615
2.52307
2.61766
2.7061
2.79243
2.87509
2.9507
3.00946
3.0491
3.0818
3.10986
3.13535
3.15899
3.18214
3.20462
3.22979
3.25723
3.28735
3.32194
3.51551
4.90075
9.36052
16.0149
23.2265
30.0497
35.8357
1.93949
2.08126
2.20801
2.32286
2.42725
2.52557
2.62382
2.71795
2.81315
2.91136
3.00308
3.06593
3.10433
3.1333
3.15694
3.17861
3.19931
3.21941
3.23955
3.26329
3.29023
3.32098
3.37814
3.85987
6.32901
11.8744
18.7014
25.6562
32.0914
37.5526
1.93951
2.08141
2.20844
2.32375
2.42848
2.52749
2.63096
2.73443
2.84711
2.97711
3.09727
3.17504
3.20942
3.23171
3.24817
3.26311
3.27817
3.29318
3.31016
3.33403
3.36702
3.41706
3.56936
4.53795
8.13045
13.9582
20.7042
27.3842
33.6315
38.8801
1.93956
2.08156
2.20881
2.32471
2.43054
2.5265
2.63534
2.75717
2.90139
3.08313
3.27279
3.36347
3.40157
3.41243
3.4149
3.4192
3.42931
3.4464
3.47976
3.54537
3.66179
3.8603
4.31314
5.94185
10.0789
15.9024
22.4282
28.9355
34.9889
40.0565
1.93946
2.08154
2.20824
2.32425
2.4334
2.53047
2.63796
2.78837
2.98089
3.30374
3.73286
3.88446
3.89207
3.85883
3.83835
3.83901
3.9142
4.07514
4.37039
4.8397
5.50418
6.3973
7.58053
9.59596
13.3645
18.6692
24.7153
30.8298
36.5548
41.352
1.93929
2.08087
2.2048
2.31812
2.43545
2.54157
2.65111
2.82464
3.12786
3.61102
5.48445
6.79124
6.59888
6.11058
7.14804
7.9855
9.28073
10.8359
12.5865
14.4111
16.2251
18.0244
19.5881
20.6244
21.9006
24.6385
28.8549
33.7775
38.7093
42.9661
1.93926
2.08069
2.20458
2.31547
2.43256
2.55204
2.67573
2.87365
3.23249
5.12014
18.9261
23.6932
19.1817
14.1888
59.3978
56.6793
53.8574
51.26
48.8587
46.5171
44.1566
41.7107
39.1908
36.1574
33.3339
32.3691
33.9251
37.1512
41.0325
44.6642
1.93926
2.08118
2.20658
2.31705
2.42781
2.55291
2.6881
2.90122
3.36803
6.25792
150.263
386.349
305.076
263.608
145.977
105.932
82.9632
68.2247
58.1117
50.8527
45.5523
41.7524
39.3177
36.9761
34.642
34.002
35.6169
38.7512
42.4849
45.9814
1.93925
2.08116
2.20654
2.317
2.42766
2.55248
2.68606
2.89295
3.37018
7.53937
576.093
143.924
105.959
85.1521
72.1506
63.2963
56.7714
51.4587
46.5365
41.3212
35.4083
31.9733
32.2999
35.1874
39.1894
43.3654
47.0338
1.93923
2.08062
2.20451
2.3154
2.43207
2.5506
2.67095
2.85597
3.21405
5.46276
24.7866
102.071
269.2
235.497
85.502
74.5689
65.5436
58.2464
52.1723
46.7186
41.3917
35.6571
29.1265
25.1773
25.871
29.5664
34.4577
39.5012
44.161
48.0124
1.93925
2.08076
2.2047
2.31774
2.43456
2.53936
2.64493
2.8115
3.04085
3.54402
4.80075
5.97349
7.89144
11.2223
9.91006
11.3904
12.2982
12.7846
12.8872
12.6322
11.9092
11.037
11.8882
15.9036
21.7683
28.1464
34.3533
40.0271
44.9702
48.9215
1.9394
2.08139
2.20795
2.32371
2.43231
2.52802
2.63162
2.76988
2.93306
3.13761
3.33867
3.50308
3.64663
3.75523
3.89591
4.04601
4.18609
4.29553
4.36466
4.39051
4.40196
4.86981
7.84074
13.8862
20.9661
28.0588
34.6919
40.6104
45.684
49.6886
1.93949
2.08138
2.20847
2.3241
2.42937
2.52408
2.62992
2.74418
2.87262
3.01791
3.14904
3.25387
3.33791
3.39625
3.44792
3.49975
3.54889
3.57804
3.59706
3.60729
3.6279
4.04421
6.86162
13.3398
20.7147
28.0521
34.8988
40.9945
46.1923
50.2637
1.93943
2.08121
2.20807
2.3231
2.42733
2.52531
2.62659
2.72532
2.82817
2.93904
3.0429
3.12672
3.19263
3.24092
3.27963
3.31252
3.34041
3.36223
3.37866
3.39043
3.41187
3.74822
6.21193
12.7693
20.2875
27.8114
34.8393
41.1155
46.4671
50.6298
1.93941
2.08105
2.20763
2.32221
2.42615
2.52366
2.62032
2.71146
2.80133
2.89093
2.97456
3.04373
3.10148
3.14383
3.17966
3.21024
3.23593
3.25666
3.2732
3.28628
3.30397
3.55872
5.60415
11.9581
19.5179
27.2184
34.4681
40.9633
46.505
50.8152
1.93938
2.08091
2.20732
2.32154
2.4251
2.52136
2.61481
2.70129
2.78458
2.86322
2.93625
2.99903
3.04956
3.08957
3.12437
3.15432
3.17923
3.19983
3.21651
3.23012
3.24368
3.42073
5.01195
10.9129
18.4343
26.2925
33.795
40.5528
46.3258
50.8907
1.93937
2.08081
2.20712
2.32112
2.42468
2.5199
2.61103
2.69475
2.77416
2.84769
2.91531
2.97329
3.02117
3.06055
3.09511
3.12487
3.14929
3.17014
3.18706
3.20095
3.21134
3.32362
4.48644
9.66566
17.1449
25.1529
32.913
39.9481
45.9699
50.8304
1.93936
2.08079
2.20702
2.32096
2.4246
2.5193
2.60911
2.69157
2.76919
2.84088
2.90613
2.9621
3.00883
3.04789
3.0823
3.11189
3.13626
3.15708
3.17417
3.18816
3.19629
3.26375
4.09667
8.51077
15.9769
24.0712
32.0357
39.3002
45.5292
50.6835
1.7777
1.77823
1.78105
1.78576
1.79214
1.79996
1.80923
1.81997
1.83215
1.84538
1.85876
1.87026
1.87999
1.8886
1.89687
1.90518
1.91387
1.92374
1.93523
1.94769
1.96213
1.97965
2.00306
2.11941
2.93821
3.95621
6.14177
9.88264
14.1159
17.5228
1.7777
1.77823
1.78106
1.78577
1.79221
1.80011
1.80956
1.82064
1.83344
1.84758
1.86201
1.87388
1.88408
1.89258
1.90067
1.90885
1.91745
1.92721
1.93859
1.95098
1.96539
1.98364
2.02848
2.52475
3.62813
5.02967
7.86814
11.6359
15.4544
18.5837
1.7777
1.77824
1.78108
1.7858
1.79235
1.80043
1.81026
1.82209
1.83627
1.85258
1.86944
1.88275
1.89342
1.90179
1.90955
1.91751
1.92588
1.9356
1.94688
1.95924
1.97392
1.99555
2.11701
3.00335
4.04569
6.30282
9.66504
13.2919
16.8283
19.7789
1.77771
1.77825
1.78111
1.78586
1.79256
1.8009
1.81135
1.82451
1.84133
1.86181
1.88318
1.89933
1.91138
1.91982
1.92727
1.93501
1.94338
1.95296
1.96435
1.97716
1.9936
2.03064
2.38541
3.48449
4.90599
7.71426
11.1266
14.6306
18.0477
20.8879
1.77771
1.77826
1.78114
1.78595
1.79234
1.80162
1.81298
1.82831
1.84983
1.87739
1.90895
1.92901
1.94465
1.95394
1.96154
1.96934
1.97812
1.9886
2.00256
2.02122
2.05089
2.14303
2.85145
3.94972
6.02976
9.09726
12.4147
15.8389
19.1582
21.9127
1.77771
1.77827
1.78116
1.78605
1.79228
1.80242
1.81501
1.83384
1.86225
1.90972
1.97334
2.0048
2.02185
2.03068
2.03819
2.04792
2.0636
2.08893
2.13352
2.21092
2.34183
2.63143
3.70916
5.20684
7.70081
10.6665
13.8579
17.1343
20.3047
22.947
1.77771
1.77827
1.78108
1.78596
1.79279
1.80281
1.81768
1.84106
1.88658
1.99247
2.15045
2.23247
2.25542
2.25882
2.27277
2.33488
2.47932
2.70497
3.05471
3.57119
4.25121
5.11145
6.41706
8.40164
10.6759
13.1334
15.8584
18.7516
21.6304
24.0784
1.77771
1.77823
1.78107
1.78594
1.79263
1.80339
1.82092
1.85034
1.93501
2.21733
2.41055
2.90407
2.98898
2.98094
4.78317
6.23134
7.85251
9.51695
11.2221
12.9124
14.5116
15.5765
16.1283
16.3632
16.5182
17.2072
18.6765
20.7667
23.1442
25.2971
1.77771
1.77822
1.78098
1.78623
1.793
1.80421
1.8235
1.86219
1.93403
2.42098
4.46325
9.76807
11.2805
11.6545
57.2653
53.633
50.2525
47.3237
44.7868
42.5081
40.2521
37.3538
33.4949
28.3505
23.8479
21.5292
21.3605
22.5936
24.5066
26.4125
1.77771
1.77826
1.78091
1.7858
1.79296
1.80457
1.82434
1.87156
1.97891
2.68366
26.4209
557.929
499.122
312.986
153.042
113.909
90.9015
75.9217
65.3555
57.4213
50.8718
44.3233
37.4704
29.8399
24.3578
21.9874
21.9738
23.3272
25.2984
27.2258
1.77771
1.77826
1.78091
1.78579
1.79292
1.80445
1.824
1.86912
1.98727
2.9564
266.575
259.166
152.262
112.209
88.7281
73.2952
62.096
53.2839
45.4221
37.1566
29.0223
22.9097
20.1217
19.892
21.2071
23.3136
25.6901
27.8182
1.7777
1.77821
1.78096
1.78619
1.79289
1.8039
1.82228
1.85711
1.93392
2.51985
5.04551
310.375
260.212
305.047
57.6217
51.9952
46.5214
41.3884
36.4691
31.705
26.6259
21.1467
16.6979
15.1181
15.7974
17.751
20.3566
23.2059
25.9982
28.339
1.7777
1.77822
1.78105
1.78588
1.79247
1.80293
1.81942
1.84592
1.90658
2.06924
2.28181
3.18122
3.53415
4.33143
4.7457
5.69952
6.33821
6.71618
6.86357
6.7423
6.41708
6.64523
8.01286
10.349
13.2714
16.5446
19.9435
23.2726
26.3509
28.8455
1.7777
1.77826
1.78104
1.78588
1.7926
1.80231
1.81619
1.83737
1.87205
1.93325
2.02142
2.09116
2.1512
2.19348
2.24894
2.31828
2.38988
2.45318
2.49809
2.53324
2.68883
3.54588
5.54469
8.81911
12.3787
16.1307
19.887
23.4696
26.7222
29.3193
1.7777
1.77825
1.78113
1.78597
1.79209
1.80193
1.81371
1.83036
1.85452
1.88782
1.92895
1.95934
1.99131
2.01485
2.03508
2.0548
2.07422
2.09368
2.1102
2.12983
2.27593
3.2009
4.948
8.30549
12.0652
15.9884
19.9192
23.6632
27.0432
29.7227
1.7777
1.77825
1.78111
1.78586
1.79215
1.80117
1.8119
1.82573
1.84404
1.86684
1.89199
1.9128
1.93625
1.95325
1.96731
1.97988
1.99215
2.00498
2.01724
2.03372
2.16765
3.16908
4.69451
7.9425
11.8179
15.8534
19.901
23.7733
27.2697
30.0411
1.7777
1.77823
1.78107
1.78577
1.79237
1.8005
1.81047
1.82258
1.83732
1.85455
1.87326
1.8894
1.90632
1.91969
1.93167
1.9427
1.9533
1.9647
1.97592
1.99081
2.10351
3.08507
4.4503
7.51806
11.461
15.5964
19.7698
23.7685
27.3827
30.2589
1.7777
1.77823
1.78104
1.78571
1.79218
1.80006
1.80951
1.82058
1.83337
1.84759
1.86247
1.87579
1.88922
1.90046
1.91129
1.92163
1.9315
1.94231
1.95301
1.96639
2.0531
2.93391
4.18781
7.01668
10.9798
15.1983
19.506
23.6429
27.3797
30.3737
1.7777
1.77822
1.78102
1.78569
1.79204
1.79977
1.8089
1.81937
1.83113
1.84382
1.85687
1.86859
1.88031
1.89065
1.90089
1.91085
1.92051
1.93087
1.94132
1.95368
2.01566
2.74342
3.92712
6.48062
10.4121
14.7123
19.1434
23.4113
27.2696
30.3826
1.7777
1.77822
1.78102
1.7857
1.79199
1.79966
1.80864
1.81884
1.83016
1.84221
1.85449
1.86575
1.87647
1.88641
1.89636
1.90613
1.91564
1.92591
1.93619
1.94807
1.99202
2.55103
3.7838
6.02147
9.83825
14.235
18.7583
23.1195
27.0668
30.2784
1.77422
1.76858
1.76317
1.75803
1.75321
1.74882
1.74492
1.74167
1.73923
1.7376
1.7364
1.73488
1.73274
1.73042
1.72826
1.72659
1.72588
1.72656
1.72909
1.73368
1.74131
1.75427
1.85064
2.66271
4.30459
5.67413
6.97415
9.23032
11.8621
13.9063
1.77422
1.76858
1.76317
1.75803
1.75322
1.74885
1.74498
1.74184
1.73961
1.73833
1.73757
1.73621
1.73433
1.73198
1.72976
1.72809
1.72739
1.72808
1.73065
1.7353
1.7433
1.7671
2.14528
3.52249
5.08881
6.03385
7.78161
10.1469
12.6057
14.5433
1.77422
1.76858
1.76317
1.75804
1.75325
1.7489
1.74514
1.74223
1.74049
1.74009
1.74042
1.73963
1.73832
1.73599
1.73374
1.73212
1.73152
1.73233
1.73504
1.73996
1.74973
1.83694
2.64689
4.28541
5.49531
6.79541
8.84657
11.1677
13.461
15.3241
1.77422
1.76858
1.76318
1.75805
1.75329
1.749
1.74541
1.74293
1.74217
1.74357
1.74613
1.74723
1.74642
1.74432
1.74221
1.7408
1.74046
1.74167
1.74479
1.75056
1.76668
2.03122
3.26644
4.89656
5.90665
7.66478
9.80058
12.0664
14.3135
16.1323
1.77422
1.76858
1.76318
1.75807
1.75332
1.74914
1.74582
1.7441
1.74516
1.74997
1.75763
1.76139
1.7631
1.76184
1.76031
1.7595
1.75987
1.76224
1.76722
1.77672
1.81506
2.35105
3.89196
5.3444
6.6763
8.60081
10.7301
12.9763
15.1745
16.952
1.77422
1.76859
1.7632
1.75809
1.75336
1.74933
1.74644
1.74598
1.75019
1.76438
1.78631
1.79901
1.80306
1.80361
1.80348
1.80459
1.80853
1.81787
1.83587
1.86956
1.98577
2.82181
4.51303
5.88118
7.73843
9.72312
11.8233
13.9896
16.0982
17.8108
1.77422
1.76858
1.7632
1.7581
1.75342
1.74957
1.7473
1.7488
1.76053
1.79954
1.86404
1.90822
1.92221
1.92518
1.92879
1.94851
1.99729
2.07638
2.202
2.39285
2.70086
3.70477
5.36189
7.46455
9.47821
11.3235
13.2161
15.1783
17.1205
18.7245
1.77422
1.76859
1.76319
1.75812
1.75347
1.74983
1.74835
1.75269
1.78055
1.88508
1.96838
2.22443
2.31075
2.31388
2.56921
2.92276
3.41945
4.00748
4.7054
5.49403
6.26584
7.32322
9.1057
10.8985
12.241
13.4828
14.8789
16.4851
18.1884
19.6513
1.77422
1.76859
1.7632
1.75813
1.75356
1.75007
1.74934
1.75795
1.80852
2.05961
2.36953
4.3595
5.26979
4.99576
13.1922
14.5956
15.7693
16.7422
17.6015
18.2872
18.1591
17.5085
16.5762
15.6484
15.2738
15.4968
16.3142
17.5973
19.1166
20.4807
1.77423
1.7686
1.76322
1.75813
1.75357
1.75009
1.75004
1.76232
1.83819
2.04045
3.68511
198.126
187.366
192.036
60.542
55.5163
50.9778
46.9264
43.2026
39.4962
34.69
28.0702
21.4868
17.5294
16.0545
16.0119
16.8314
18.1699
19.7342
21.1238
1.77423
1.7686
1.76322
1.75812
1.75355
1.75003
1.74988
1.76115
1.83207
2.06717
3.93355
363.754
514.026
255.137
51.4894
45.3141
40.0063
35.3965
31.3089
27.4252
22.4791
18.0252
15.1038
14.1294
14.2959
15.1983
16.6093
18.3189
20.1065
21.6153
1.77422
1.76859
1.76319
1.75812
1.75352
1.74992
1.74884
1.75564
1.79599
1.98196
2.49244
95.225
119.393
138.896
10.5961
10.921
10.7974
10.3145
9.73271
8.86252
8.25275
8.67664
9.68673
10.9068
12.4211
14.2292
16.2504
18.3576
20.3934
22.0378
1.77422
1.76858
1.76318
1.75809
1.75341
1.74962
1.74767
1.7504
1.76974
1.83429
1.93902
2.4273
2.58991
2.70378
2.46068
2.57993
2.68663
2.75763
2.78895
2.82621
3.30035
4.82404
6.85168
9.02258
11.2547
13.6237
16.0578
18.4557
20.6849
22.4383
1.77422
1.76858
1.76319
1.75807
1.75334
1.74935
1.74661
1.74681
1.75365
1.77644
1.81714
1.85254
1.87518
1.8884
1.89861
1.91107
1.92596
1.9397
1.95397
2.04539
2.9227
4.62235
6.0529
8.30794
10.7651
13.3839
16.043
18.6235
20.986
22.8186
1.77422
1.76858
1.76318
1.75805
1.75328
1.7491
1.74581
1.74427
1.74603
1.75337
1.76588
1.77598
1.78487
1.79038
1.79406
1.79713
1.80171
1.80779
1.81676
1.91237
2.80919
4.58331
5.82275
8.03638
10.5855
13.3176
16.105
18.8052
21.2654
23.1625
1.77422
1.76858
1.76317
1.75803
1.75324
1.74891
1.74526
1.74271
1.742
1.74385
1.74764
1.75059
1.75442
1.75649
1.75778
1.75866
1.76045
1.76408
1.77093
1.84578
2.68063
4.47613
5.68307
7.83613
10.4584
13.2745
16.1558
18.9499
21.4931
23.4499
1.77422
1.76858
1.76317
1.75802
1.7532
1.74879
1.74491
1.74179
1.73975
1.73906
1.73944
1.73964
1.74026
1.74046
1.74065
1.74087
1.74195
1.74488
1.75088
1.79996
2.52155
4.29834
5.55649
7.60064
10.2705
13.1656
16.1445
19.0288
21.6481
23.6637
1.77422
1.76858
1.76316
1.75801
1.75317
1.7487
1.74469
1.74125
1.73854
1.73662
1.73526
1.73363
1.7329
1.73197
1.73144
1.73131
1.7321
1.73464
1.74007
1.77174
2.34553
4.05931
5.49913
7.3329
9.99011
12.9639
16.0471
19.0252
21.7185
23.7932
1.77422
1.76858
1.76316
1.758
1.75315
1.74866
1.74456
1.74096
1.73792
1.73542
1.73327
1.73104
1.72923
1.72769
1.72677
1.72642
1.72703
1.72937
1.7345
1.75579
2.17503
3.78037
5.48351
7.05845
9.62324
12.6766
15.8732
18.9357
21.6979
23.8275
1.77422
1.76858
1.76317
1.75801
1.75315
1.74865
1.74453
1.74085
1.73767
1.73495
1.73249
1.73007
1.72776
1.72594
1.72482
1.72438
1.72495
1.72727
1.73236
1.74819
2.0365
3.49415
5.43167
6.81623
9.24882
12.3448
15.6425
18.7655
21.5762
23.7472
1.77414
1.76828
1.76248
1.75673
1.75108
1.74556
1.74024
1.73524
1.73067
1.72657
1.72272
1.7187
1.71433
1.70978
1.70534
1.70137
1.69832
1.6967
1.69705
1.70014
1.70707
1.72946
2.06901
3.40956
5.22673
6.42801
7.75015
9.49269
11.3185
12.7134
1.77414
1.76828
1.76248
1.75673
1.75108
1.74557
1.74027
1.73532
1.73086
1.72695
1.72333
1.71949
1.71517
1.7106
1.70613
1.70216
1.69915
1.69756
1.69798
1.70119
1.70998
1.81437
2.66145
4.41594
5.89421
6.85685
8.28828
10.0383
11.7972
13.1575
1.77414
1.76828
1.76248
1.75674
1.75109
1.74559
1.74034
1.73551
1.73132
1.72787
1.72487
1.72148
1.71735
1.7128
1.70833
1.70444
1.70157
1.70014
1.70076
1.70452
1.72221
2.03717
3.37348
5.14727
6.24187
7.44434
8.99637
10.7119
12.3999
13.7337
1.77414
1.76828
1.76248
1.75674
1.7511
1.74564
1.74048
1.73587
1.7322
1.72973
1.72803
1.72564
1.72198
1.71761
1.71328
1.70963
1.70705
1.706
1.7071
1.71238
1.77151
2.42528
4.09221
5.63399
6.6816
8.08916
9.67738
11.3783
13.0555
14.3752
1.77414
1.76828
1.76249
1.75675
1.75112
1.7457
1.74069
1.73648
1.73377
1.73326
1.73443
1.73414
1.73168
1.72797
1.72418
1.72106
1.7191
1.7189
1.72124
1.73058
1.89089
2.9183
4.72152
5.99383
7.27922
8.76679
10.3919
12.0987
13.7575
15.0608
1.77414
1.76828
1.76249
1.75676
1.75115
1.7458
1.741
1.73746
1.73651
1.7404
1.74865
1.75337
1.75353
1.75141
1.74887
1.7469
1.74629
1.74832
1.75453
1.7759
2.09375
3.44108
5.25534
6.49205
8.02713
9.58781
11.2265
12.9028
14.5181
15.7897
1.77414
1.76828
1.76249
1.75677
1.75118
1.74592
1.74143
1.73896
1.74143
1.7565
1.783
1.79909
1.80569
1.80719
1.80709
1.80963
1.81785
1.83401
1.86241
1.92522
2.40969
3.94254
5.76793
7.38263
9.05812
10.6348
12.2105
13.7989
15.3336
16.5517
1.77414
1.76829
1.76248
1.75677
1.75122
1.74605
1.74198
1.74099
1.75041
1.78844
1.86956
1.9355
1.95834
1.96585
1.97962
2.02059
2.09236
2.19301
2.32976
2.51158
2.98319
4.37789
6.54723
8.74581
10.4132
11.8556
13.2706
14.7215
16.1528
17.3075
1.77415
1.76831
1.7625
1.75679
1.75125
1.74617
1.7425
1.74339
1.76256
1.84641
1.94352
2.34968
2.48036
2.51061
2.742
3.07241
3.43816
3.82734
4.23129
4.53108
5.12326
6.58472
8.68494
10.4463
11.7471
12.9291
14.1705
15.5134
16.8768
17.9928
1.77415
1.76831
1.76253
1.75682
1.75129
1.74623
1.74279
1.74525
1.77277
1.89239
2.13745
3.91919
4.2485
4.60099
5.70977
6.73816
7.4996
8.04195
8.3834
8.24835
8.14843
8.93449
10.1807
11.2684
12.2894
13.3958
14.6526
16.0335
17.4287
18.5629
1.77415
1.76831
1.76253
1.75682
1.75128
1.7462
1.74267
1.74479
1.77005
1.88076
2.17605
5.15154
5.51083
6.40091
4.74222
5.2261
5.52314
5.672
5.67318
5.47485
5.93076
7.40337
9.09578
10.5298
11.8726
13.2683
14.7622
16.3187
17.8314
19.0301
1.77414
1.76831
1.7625
1.75678
1.75121
1.74607
1.74217
1.74225
1.75747
1.82141
1.95652
2.73557
2.91744
2.96951
2.56744
2.69396
2.79682
2.86048
2.86441
2.96283
3.83028
5.71492
7.75255
9.53548
11.2384
12.9721
14.7451
16.5085
18.1608
19.4365
1.77414
1.76829
1.76247
1.75675
1.75117
1.74591
1.74154
1.73962
1.74545
1.77107
1.83351
1.89123
1.91956
1.93523
1.94353
1.95657
1.97
1.98216
1.9966
2.27764
3.59175
5.43093
7.01909
8.89433
10.8028
12.7746
14.7633
16.6975
18.47
19.8123
1.77414
1.76828
1.76248
1.75675
1.75112
1.74575
1.74096
1.73763
1.73768
1.74593
1.76303
1.7758
1.78591
1.79162
1.79299
1.79366
1.79558
1.79943
1.81283
2.11817
3.50104
5.40675
6.77596
8.62879
10.6231
12.7286
14.8547
16.9077
18.7702
20.1641
1.77414
1.76828
1.76248
1.75673
1.75108
1.74562
1.74054
1.73628
1.73371
1.73412
1.73786
1.7412
1.74333
1.74412
1.74334
1.74195
1.74185
1.74412
1.75585
2.03748
3.40772
5.38198
6.70116
8.53384
10.5755
12.7631
14.983
17.1207
19.0496
20.4834
1.77414
1.76828
1.76248
1.75672
1.75105
1.74553
1.74025
1.73545
1.73153
1.72894
1.72766
1.7265
1.72521
1.72364
1.72156
1.71938
1.71837
1.71977
1.72942
1.96616
3.27182
5.31511
6.64654
8.45692
10.5466
12.8005
15.0964
17.304
19.2881
20.7549
1.77414
1.76828
1.76247
1.75671
1.75103
1.74546
1.74007
1.73497
1.73035
1.72636
1.72294
1.71971
1.71667
1.71384
1.71115
1.70874
1.70752
1.70869
1.71669
1.89707
3.08422
5.18022
6.59879
8.34161
10.4626
12.7844
15.1614
17.4351
19.4674
20.9643
1.77414
1.76828
1.76247
1.75671
1.75102
1.74542
1.73996
1.7347
1.72973
1.72508
1.72068
1.71639
1.71236
1.70876
1.70562
1.70304
1.70169
1.70272
1.70946
1.83357
2.85379
4.97191
6.58794
8.18952
10.2923
12.6855
15.1574
17.4974
19.574
21.0989
1.77414
1.76828
1.76247
1.75671
1.75101
1.7454
1.7399
1.73456
1.72941
1.72445
1.71962
1.71484
1.71028
1.70625
1.70284
1.70015
1.69875
1.69972
1.70571
1.78207
2.6031
4.69719
6.58243
8.03262
10.0671
12.5053
15.0726
17.4791
19.5941
21.1442
1.77414
1.76829
1.76248
1.75672
1.75102
1.74541
1.73989
1.73452
1.7293
1.72423
1.71922
1.71424
1.70946
1.70522
1.70168
1.69895
1.69756
1.69857
1.70427
1.74486
2.37053
4.38575
6.52324
7.88089
9.83962
12.2845
14.911
17.3683
19.5105
21.0797
1.77414
1.76827
1.76246
1.75667
1.75097
1.74537
1.73991
1.73468
1.72978
1.72521
1.72084
1.71641
1.71175
1.70696
1.70227
1.69803
1.69472
1.69286
1.69312
1.69636
1.70468
1.78036
2.48408
4.24407
6.12337
7.24255
8.48764
9.92517
11.3032
12.3566
1.77414
1.76827
1.76245
1.75667
1.75097
1.74537
1.73993
1.73474
1.7299
1.72544
1.72122
1.71689
1.71226
1.70744
1.70273
1.6985
1.69522
1.6934
1.69372
1.69725
1.71345
2.00122
3.33577
5.28748
6.66883
7.61041
8.87981
10.2971
11.6608
12.7055
1.77414
1.76827
1.76246
1.75667
1.75098
1.74539
1.73998
1.73486
1.73019
1.72602
1.72216
1.71811
1.71359
1.70876
1.70404
1.69988
1.69672
1.69506
1.6956
1.70039
1.76216
2.42363
4.17368
5.95598
6.96073
8.08322
9.38943
10.7792
12.1318
13.173
1.77414
1.76828
1.76246
1.75668
1.75099
1.74542
1.74006
1.7351
1.73074
1.72714
1.72404
1.72057
1.71633
1.71161
1.70698
1.70301
1.70012
1.69879
1.69987
1.70854
1.88882
2.99094
4.91713
6.36419
7.37588
8.58632
9.90906
11.3116
12.6743
13.7174
1.77413
1.76828
1.76246
1.75668
1.751
1.74546
1.7402
1.73547
1.73167
1.72917
1.72761
1.72534
1.72178
1.71746
1.7132
1.70965
1.70723
1.70654
1.70872
1.7301
2.11744
3.60196
5.50507
6.6633
7.84855
9.115
10.4874
11.9105
13.2747
14.3169
1.77413
1.76827
1.76246
1.75669
1.75102
1.74552
1.74039
1.73605
1.73324
1.73286
1.73464
1.7349
1.7329
1.72965
1.72626
1.72352
1.7219
1.72222
1.7264
1.78587
2.43474
4.18164
5.95879
7.08835
8.40156
9.74723
11.153
12.5767
13.9276
14.9591
1.77414
1.76827
1.76245
1.75669
1.75104
1.7456
1.74065
1.7369
1.73574
1.73984
1.74934
1.75507
1.75642
1.75572
1.75425
1.75318
1.75352
1.75657
1.76569
1.88704
2.80337
4.69522
6.31938
7.66707
9.08689
10.4916
11.8996
13.2968
14.6159
15.6255
1.77415
1.76828
1.76245
1.7567
1.75106
1.74568
1.74096
1.738
1.73954
1.75319
1.78019
1.79661
1.80502
1.80846
1.80941
1.81229
1.81966
1.83222
1.85544
2.05186
3.18089
5.12668
6.65392
8.35693
9.87531
11.2902
12.6661
14.021
15.3003
16.2839
1.77415
1.7683
1.76248
1.7567
1.75108
1.74575
1.74124
1.7391
1.74467
1.772
1.83324
1.88205
1.90335
1.91032
1.91938
1.9439
1.97805
2.02256
2.07672
2.28143
3.45167
5.4145
7.2656
9.10329
10.6155
11.9966
13.3374
14.6657
15.9244
16.8941
1.77415
1.7683
1.7625
1.75673
1.75111
1.74578
1.7414
1.73982
1.7486
1.78832
1.89511
1.97236
2.02592
2.04043
2.06965
2.16015
2.2588
2.35511
2.40784
2.60442
3.63064
5.66906
7.80231
9.56741
11.0486
12.4374
13.8077
15.1669
16.4485
17.4293
1.77415
1.7683
1.7625
1.75673
1.7511
1.74575
1.74132
1.73956
1.74764
1.78459
1.88775
1.96472
2.01991
2.03495
2.05269
2.08773
2.12466
2.15703
2.19543
2.52484
3.99005
5.88639
7.83623
9.55384
11.1059
12.6039
14.0845
15.5341
16.8783
17.8917
1.77415
1.7683
1.76247
1.75669
1.75105
1.74567
1.74103
1.73845
1.74242
1.76424
1.81731
1.86413
1.88521
1.89511
1.90008
1.90906
1.91865
1.9273
1.95847
2.46835
4.12302
6.08991
7.6765
9.36697
11.0136
12.6491
14.2663
15.8265
17.2478
18.301
1.77415
1.76828
1.76244
1.75668
1.75102
1.74557
1.74065
1.73714
1.73709
1.74613
1.76675
1.7812
1.79126
1.79622
1.79612
1.7946
1.79397
1.79562
1.83675
2.40581
4.15597
6.16419
7.572
9.24439
10.9601
12.7075
14.4397
16.0955
17.5858
18.6742
1.77414
1.76826
1.76245
1.75667
1.75099
1.74546
1.7403
1.73599
1.73353
1.73471
1.74057
1.74549
1.74863
1.74966
1.74832
1.74586
1.7445
1.74602
1.78533
2.35247
4.14296
6.211
7.56282
9.22522
10.9873
12.8152
14.6325
16.3609
17.9029
19.0173
1.77413
1.76827
1.76245
1.75666
1.75096
1.74537
1.74003
1.73518
1.73131
1.72905
1.72867
1.72842
1.72781
1.72645
1.72408
1.72142
1.72004
1.72177
1.75387
2.28181
4.07196
6.22823
7.58463
9.24992
11.0497
12.9413
14.8263
16.6117
18.1929
19.3245
1.77413
1.76827
1.76245
1.75666
1.75094
1.74531
1.73984
1.73466
1.73
1.72611
1.72304
1.72025
1.71761
1.71494
1.71205
1.70934
1.70795
1.70961
1.73259
2.19038
3.93295
6.19083
7.6
9.26296
11.1032
13.0498
14.996
16.8287
18.4411
19.5853
1.77414
1.76827
1.76245
1.75665
1.75092
1.74526
1.73971
1.73435
1.72926
1.72454
1.72019
1.71608
1.71226
1.70878
1.70556
1.70284
1.70153
1.70323
1.71961
2.085
3.72318
6.08116
7.61591
9.23255
11.099
13.1085
15.1181
16.9945
18.6333
19.7877
1.77414
1.76827
1.76245
1.75665
1.75091
1.74523
1.73963
1.73416
1.72885
1.72372
1.71875
1.71393
1.70942
1.70538
1.70188
1.6991
1.69781
1.69949
1.71141
1.97746
3.45135
5.89519
7.65723
9.17748
11.0347
13.0976
15.1804
17.0962
18.7566
19.92
1.77414
1.76827
1.76245
1.75665
1.75091
1.74522
1.73959
1.73406
1.72863
1.72331
1.71806
1.71289
1.70798
1.70361
1.6999
1.69705
1.69577
1.69746
1.70691
1.88205
3.13831
5.63347
7.6976
9.12324
10.9418
13.0273
15.1635
17.1201
18.7968
19.9675
1.77414
1.76828
1.76246
1.75666
1.75092
1.74522
1.73959
1.73404
1.72856
1.72316
1.71779
1.71247
1.7074
1.70287
1.69908
1.69624
1.69502
1.69679
1.70527
1.81329
2.82959
5.31846
7.67057
9.05489
10.8269
12.906
15.0629
17.044
18.7343
19.9116
1.77414
1.76827
1.76246
1.75667
1.75096
1.74534
1.73985
1.73456
1.72951
1.72474
1.72016
1.71558
1.71089
1.70613
1.70151
1.69736
1.69417
1.69247
1.69301
1.69676
1.70901
1.89502
2.99338
5.02015
6.86344
7.92599
9.1172
10.3581
11.4928
12.3531
1.77414
1.76827
1.76245
1.75667
1.75096
1.74535
1.73987
1.73459
1.72959
1.72489
1.72039
1.71587
1.71119
1.70641
1.70176
1.69762
1.69445
1.6928
1.69341
1.69794
1.74305
2.30512
4.02648
6.03208
7.30961
8.26093
9.43419
10.6534
11.7924
12.6531
1.77414
1.76827
1.76245
1.75667
1.75097
1.74536
1.7399
1.73467
1.72978
1.72525
1.72097
1.71661
1.71198
1.70718
1.70253
1.69845
1.69539
1.69388
1.69477
1.70251
1.85713
2.90365
4.91155
6.62505
7.58713
8.66064
9.83645