/*--------------------------------*- C++ -*----------------------------------*\
| =========                 |                                                 |
| \\      /  F ield         | OpenFOAM: The Open Source CFD Toolbox           |
|  \\    /   O peration     | Version:  2512                                  |
|   \\  /    A nd           | Website:  www.openfoam.com                      |
|    \\/     M anipulation  |                                                 |
\*---------------------------------------------------------------------------*/
FoamFile
{
    version     2.0;
    format      ascii;
    arch        "LSB;label=32;scalar=64";
    class       volScalarField;
    location    "220";
    object      p;
}
// * * * * * * * * * * * * * * * * * * * * * * * * * * * * * * * * * * * * * //

dimensions      [0 2 -2 0 0 0 0];

internalField   nonuniform List<scalar> 
84826
(
2.86455
2.86474
2.86611
2.86007
2.82654
2.73149
2.5205
2.11184
1.40226
0.293045
-1.23146
-2.99906
-4.50105
-5.07747
-4.58486
-3.53545
-2.50033
-1.74246
-1.24539
-0.89777
-0.650564
-0.503646
-0.430525
-0.382312
-0.331583
-0.27835
-0.226462
-0.174335
-0.110955
-0.0482623
2.87611
2.87874
2.88648
2.89197
2.87677
2.80873
2.63377
2.2647
1.58135
0.448945
-1.18914
-3.18806
-4.906
-5.48251
-4.81565
-3.59218
-2.45474
-1.67004
-1.18135
-0.84199
-0.606169
-0.479048
-0.422825
-0.380388
-0.328113
-0.272421
-0.219403
-0.166582
-0.102835
-0.0419422
2.89819
2.90559
2.92583
2.95406
2.97553
2.96283
2.86418
2.58352
1.96743
0.801911
-1.06952
-3.59443
-5.80087
-6.35491
-5.29612
-3.69473
-2.34114
-1.5153
-1.05122
-0.723514
-0.505261
-0.416312
-0.396002
-0.372583
-0.329385
-0.281521
-0.235428
-0.185835
-0.121346
-0.058915
2.92907
2.94336
2.98164
3.04315
3.1197
3.19318
3.21962
3.09616
2.62231
1.44728
-0.792648
-4.29316
-7.35867
-7.79639
-6.06422
-3.82289
-2.10694
-1.2541
-0.85829
-0.556861
-0.365874
-0.320851
-0.325616
-0.30193
-0.254656
-0.211241
-0.1728
-0.126023
-0.0595004
-0.00817122
2.96621
2.98905
3.04985
3.15375
3.3029
3.49563
3.70726
3.84121
3.6474
2.56976
-0.191055
-5.49228
-9.95294
-9.94317
-7.14547
-3.91111
-1.64487
-0.799943
-0.530379
-0.318749
-0.253652
-0.338806
-0.404172
-0.382309
-0.328092
-0.29099
-0.262683
-0.218072
-0.139134
-0.0665134
3.00644
3.03882
3.12499
3.27786
3.51434
3.85944
4.32805
4.86289
5.1872
4.48726
1.10104
-7.47368
-14.268
-13.134
-8.64403
-3.838
-0.93283
-0.155063
0.0939495
0.301512
0.214097
-0.0534981
-0.19885
-0.179274
-0.122663
-0.104759
-0.105476
-0.0860845
-0.0254076
-0.0160611
3.04621
3.08824
3.20033
3.40458
3.737
4.2615
5.0645
6.1955
7.44642
7.70329
3.54705
-10.6322
-20.6768
-17.9098
-10.7102
-3.00581
0.0549988
0.185067
0.307193
0.497644
0.214591
-0.239808
-0.429633
-0.373588
-0.277881
-0.234305
-0.209604
-0.16923
-0.0295174
-0.112975
3.08191
3.13269
3.26841
3.52058
3.94662
4.65882
5.85287
7.79755
10.6554
13.4084
8.82151
-9.52734
-26.8587
-24.9938
-13.3678
0.166081
2.96913
1.87674
1.59784
1.52742
0.893308
0.222193
-0.0334957
-0.0120952
0.0332461
0.03357
0.0315396
0.0410051
0.161893
0.0326053
3.11028
3.16784
3.32195
3.6119
4.11426
4.98722
6.55584
9.41272
14.6621
22.6949
21.9775
-17.5869
-36.882
-40.7637
-17.4411
2.93595
5.69609
3.58302
2.44346
1.49367
0.271876
-0.546484
-0.762889
-0.726349
-0.692777
-0.668501
-0.621546
-0.515792
-0.596605
-0.0656042
3.1288
3.19027
3.35485
3.66636
4.21266
5.17986
6.97773
10.4607
17.7166
32.3136
46.2986
-7.07642
-50.4268
-70.4436
-15.1502
5.65191
8.85939
6.43555
4.55394
2.86719
1.25159
0.410891
0.267587
0.300476
0.286742
0.295483
0.366524
0.482471
0.304256
0.723627
3.13602
3.19807
3.36384
3.67734
4.22687
5.20038
7.01038
10.5146
17.8206
32.5529
54.1666
15.5937
-50.2739
-18.7276
2.92534
7.59712
5.89087
4.08763
2.38994
0.867237
0.154425
0.0653215
0.0797395
0.0308159
0.0239017
0.099595
0.219327
0.0607954
0.363012
3.13174
3.1911
3.34901
3.64552
4.15872
5.05016
6.6516
9.56861
14.9556
23.3384
34.7175
-5.81841
-27.5298
-47.0167
-24.5668
-3.45453
1.12722
0.6777
0.17464
-0.356375
-0.958944
-1.10454
-0.882143
-0.652456
-0.517048
-0.381036
-0.198597
-0.0330151
0.0517855
-0.0300547
3.11706
3.1708
3.31284
3.57593
4.01987
4.76098
6.00421
8.03801
11.0871
14.2556
16.266
-8.28145
-20.3108
-31.7597
-15.6998
-2.15142
1.55293
1.50038
1.30652
1.03268
0.508228
0.150547
0.0692207
0.0825883
0.0947327
0.134531
0.231124
0.304522
0.480552
0.0368489
3.09413
3.14018
3.26075
3.47947
3.83514
4.39664
5.26055
6.49768
7.95259
8.61648
5.365
-7.3815
-16.3798
-17.0513
-11.1253
-3.38939
-0.370498
-0.135834
-0.173099
-0.20088
-0.444016
-0.665132
-0.668111
-0.541378
-0.407935
-0.287809
-0.168136
-0.069923
0.0229062
-0.102333
3.06592
3.10322
3.19973
3.37005
3.63416
4.02212
4.55821
5.2034
5.71812
5.34672
2.52502
-5.29165
-11.6265
-11.9749
-8.40343
-3.64976
-1.0805
-0.510767
-0.377335
-0.261871
-0.322336
-0.431846
-0.39484
-0.245456
-0.105182
-0.01919
0.0321405
0.0681701
0.0985344
0.053844
3.03576
3.06429
3.13696
3.26066
3.44059
3.67978
3.96144
4.20267
4.17649
3.3548
0.965392
-3.93184
-8.21501
-8.91098
-6.76534
-3.7099
-1.72384
-1.05936
-0.843292
-0.674557
-0.616674
-0.61691
-0.5394
-0.393053
-0.27028
-0.211012
-0.185848
-0.157528
-0.105763
-0.0671085
3.00696
3.0276
3.07896
3.16199
3.27146
3.39343
3.49012
3.46808
3.13973
2.16479
0.176553
-3.09345
-6.09202
-6.90489
-5.61725
-3.57548
-2.05195
-1.34416
-1.01504
-0.764944
-0.60129
-0.51368
-0.419126
-0.301142
-0.207579
-0.161946
-0.137769
-0.101071
-0.0411129
0.0034276
2.98254
2.99681
3.03103
3.08196
3.1377
3.17445
3.1452
2.95999
2.47157
1.46678
-0.225099
-2.60732
-4.79527
-5.57879
-4.83231
-3.42452
-2.22932
-1.53441
-1.14744
-0.868949
-0.677897
-0.572432
-0.494686
-0.408493
-0.32867
-0.272255
-0.227432
-0.174437
-0.103433
-0.0419256
2.96489
2.97481
2.99715
3.02609
3.04589
3.02765
2.92107
2.64284
2.07493
1.0785
-0.420693
-2.32188
-4.04238
-4.78067
-4.34967
-3.30745
-2.31167
-1.64295
-1.2299
-0.938182
-0.732994
-0.608462
-0.52022
-0.427657
-0.332453
-0.253013
-0.190257
-0.132036
-0.0670323
-0.0153666
2.95566
2.96344
2.97976
2.99755
2.9994
2.95429
2.81107
2.49089
1.89069
0.905577
-0.498315
-2.18718
-3.69913
-4.40963
-4.11844
-3.24143
-2.3406
-1.69187
-1.2716
-0.975545
-0.764231
-0.628653
-0.531893
-0.43503
-0.335942
-0.253734
-0.193709
-0.145001
-0.0906739
-0.0408853
2.85593
2.85549
2.85532
2.84664
2.80949
2.71021
2.4953
2.08521
1.37979
0.283328
-1.21724
-2.94994
-4.41804
-4.98083
-4.50218
-3.48493
-2.48387
-1.74661
-1.25482
-0.907758
-0.661918
-0.51508
-0.439305
-0.387623
-0.334393
-0.279845
-0.227273
-0.174758
-0.110959
-0.0489724
2.86733
2.86926
2.87533
2.87787
2.85848
2.78528
2.60496
2.23247
1.55161
0.432537
-1.177
-3.13058
-4.80467
-5.36434
-4.71655
-3.53474
-2.44023
-1.67835
-1.19308
-0.853835
-0.619896
-0.492391
-0.432707
-0.386741
-0.33255
-0.275889
-0.221878
-0.167906
-0.103145
-0.0422623
2.88907
2.89564
2.91388
2.93849
2.95457
2.93467
2.82751
2.53902
1.9212
0.769484
-1.06355
-3.5182
-5.66046
-6.19022
-5.16068
-3.62364
-2.33465
-1.53592
-1.07113
-0.742714
-0.526154
-0.433529
-0.40584
-0.377455
-0.332973
-0.285185
-0.238579
-0.187771
-0.121963
-0.0586894
2.91951
2.93274
2.96858
3.0255
3.09479
3.15776
3.17024
3.03075
2.54625
1.3842
-0.79932
-4.18686
-7.15635
-7.55401
-5.86432
-3.73072
-2.11451
-1.28851
-0.887418
-0.592301
-0.407843
-0.354997
-0.345253
-0.311987
-0.261147
-0.216335
-0.176585
-0.128547
-0.0616318
-0.0093346
2.95613
2.97762
3.03536
3.13343
3.27276
3.45008
3.63907
3.74293
3.52152
2.45074
-0.218363
-5.34793
-9.66725
-9.57089
-6.84741
-3.81945
-1.70282
-0.851329
-0.55171
-0.354083
-0.304962
-0.38448
-0.43714
-0.40994
-0.354136
-0.31412
-0.281713
-0.23368
-0.153831
-0.0771253
2.9958
3.02648
3.10878
3.2543
3.47787
3.80097
4.23399
4.7159
4.98293
4.27606
1.03565
-7.33467
-13.9499
-12.533
-8.16142
-3.7601
-1.10017
-0.285287
0.0235061
0.235945
0.165948
-0.0692807
-0.194102
-0.175391
-0.122907
-0.102577
-0.0969865
-0.0730466
-0.0135933
0.00705072
3.03502
3.07504
3.18244
3.37727
3.69313
4.18775
4.93772
5.9842
7.12715
7.37794
3.42596
-10.7796
-20.5333
-16.933
-10.0952
-2.91248
-0.0379821
0.0812292
0.135011
0.273834
0.0366733
-0.352553
-0.519843
-0.478835
-0.396599
-0.350071
-0.313797
-0.256357
-0.141445
-0.123967
3.07024
3.11871
3.24908
3.48996
3.89479
4.56702
5.68649
7.50996
10.2126
13.0267
9.47163
-10.469
-27.798
-23.3202
-13.2941
-0.228249
3.02954
2.07231
1.5459
1.3288
0.755981
0.168235
-0.084665
-0.107572
-0.102986
-0.125904
-0.138251
-0.132606
-0.0241822
-0.123733
3.09825
3.15328
3.30149
3.57891
4.05627
4.87839
6.34772
9.03585
14.1322
22.9517
24.7062
-14.1403
-39.8326
-37.0054
-15.848
3.33481
6.11306
3.89907
2.3026
1.12369
-0.0910621
-0.90229
-1.17634
-1.20001
-1.19346
-1.1622
-1.07378
-0.92449
-0.9204
-0.360714
3.11657
3.1754
3.33382
3.63214
4.15172
5.06333
6.74271
10.0088
17.1254
34.072
60.6855
-60.7148
-84.2438
-78.1927
-15.2034
5.43558
7.99336
5.53905
3.38916
1.63684
0.178852
-0.521864
-0.603127
-0.515713
-0.45996
-0.383366
-0.248387
-0.0849308
-0.126984
0.253575
3.12376
3.18319
3.34284
3.64317
4.16594
5.08349
6.77434
10.0605
17.2212
34.2668
72.6706
-57.0694
-15.4848
4.98931
8.0474
5.82305
3.62058
1.79995
0.362915
-0.272564
-0.361255
-0.336761
-0.358604
-0.343887
-0.250026
-0.12011
-0.184888
0.0631703
3.11965
3.17645
3.32871
3.61288
4.10022
4.93991
6.44078
9.18529
14.4028
23.4973
41.5837
-39.8917
-50.6479
-80.9296
-16.0689
-0.337307
2.68632
1.68632
0.720588
-0.0473395
-0.724897
-0.902553
-0.765553
-0.58188
-0.47611
-0.380435
-0.246362
-0.114401
-0.0918474
-0.124963
3.10528
3.15669
3.29343
3.54524
3.96715
4.66726
5.834
7.74163
10.6162
13.7808
17.1955
-12.1059
-25.9266
-27.3021
-14.2224
-2.25281
1.28129
1.18655
0.904717
0.64359
0.229126
-0.0141259
-0.0369673
0.0262934
0.0705759
0.116726
0.194905
0.256955
0.359128
0.05213
3.08278
3.1268
3.24253
3.45158
3.79017
4.32094
5.12968
6.27686
7.60718
8.21674
5.02281
-8.10902
-17.28
-16.1454
-10.1535
-2.88656
-0.111039
0.0709823
-0.00401007
-0.0690386
-0.317422
-0.540286
-0.564397
-0.470947
-0.371297
-0.280899
-0.195033
-0.121252
-0.0562507
-0.118306
3.05507
3.09063
3.18313
3.34584
3.59657
3.96151
4.45984
5.04716
5.49219
5.08374
2.33821
-5.41893
-11.7419
-11.4937
-7.78133
-3.39977
-1.0779
-0.502347
-0.339762
-0.240104
-0.309479
-0.416568
-0.384309
-0.253128
-0.128921
-0.0493746
-0.00267126
0.0340199
0.0698747
0.0446767
3.02544
3.05256
3.12203
3.23961
3.40921
3.63198
3.88901
4.09605
4.0335
3.20058
0.865878
-3.91831
-8.118
-8.62647
-6.4313
-3.55567
-1.70539
-1.04371
-0.814937
-0.66226
-0.617024
-0.61875
-0.545571
-0.41079
-0.295568
-0.234833
-0.205039
-0.170667
-0.116061
-0.0718355
2.99713
3.01665
3.06541
3.14356
3.24525
3.35574
3.43668
3.39529
3.04996
2.07678
0.125334
-3.05696
-5.98136
-6.71946
-5.41811
-3.46708
-2.03622
-1.35503
-1.02361
-0.777097
-0.617377
-0.528444
-0.432665
-0.315721
-0.221109
-0.170195
-0.140363
-0.100294
-0.041119
0.00233506
2.97313
2.98649
3.01855
3.06557
3.11539
3.14401
3.10465
2.90888
2.41406
1.41567
-0.248795
-2.57304
-4.70556
-5.45062
-4.70576
-3.35052
-2.21389
-1.54202
-1.15392
-0.875028
-0.686335
-0.580213
-0.499694
-0.411479
-0.330195
-0.272201
-0.226616
-0.174562
-0.106047
-0.0461896
2.95581
2.96496
2.98544
3.01111
3.0262
3.00192
2.8885
2.60454
2.03549
1.04718
-0.430354
-2.29283
-3.97293
-4.68687
-4.26016
-3.25095
-2.29377
-1.64535
-1.23597
-0.945576
-0.742486
-0.617426
-0.526597
-0.432447
-0.337456
-0.258856
-0.196692
-0.13886
-0.0737181
-0.020871
2.94672
2.9538
2.96839
2.98321
2.98089
2.93068
2.78213
2.4584
1.85919
0.882586
-0.502574
-2.16094
-3.64034
-4.33192
-4.04452
-3.1927
-2.32247
-1.69248
-1.27731
-0.982207
-0.771782
-0.635592
-0.536978
-0.439345
-0.340919
-0.259328
-0.198701
-0.148423
-0.0920366
-0.0413227
2.83835
2.83639
2.83244
2.81759
2.77212
2.66295
2.43805
2.02149
1.31978
0.245126
-1.20819
-2.86935
-4.26838
-4.80702
-4.36102
-3.40626
-2.4635
-1.7573
-1.27195
-0.924775
-0.679986
-0.531348
-0.449531
-0.391465
-0.334286
-0.277551
-0.223537
-0.170135
-0.105968
-0.0459487
2.84944
2.84971
2.85168
2.84744
2.81864
2.73374
2.54069
2.15801
1.47715
0.378949
-1.17761
-3.04177
-4.62906
-5.15997
-4.55523
-3.44967
-2.42491
-1.696
-1.21386
-0.873196
-0.639912
-0.508652
-0.441147
-0.388968
-0.33211
-0.274309
-0.219136
-0.163942
-0.0985232
-0.0393341
2.87053
2.87518
2.88869
2.90527
2.90966
2.87417
2.74811
2.44119
1.8144
0.679253
-1.08765
-3.40957
-5.42295
-5.91817
-4.95256
-3.52383
-2.33076
-1.5677
-1.09923
-0.769568
-0.553806
-0.451785
-0.409746
-0.372119
-0.324714
-0.27625
-0.228657
-0.176512
-0.110203
-0.0492758
2.90005
2.91101
2.9412
2.98821
3.04231
3.08343
3.06658
2.89302
2.38025
1.22449
-0.869117
-4.04176
-6.81381
-7.16919
-5.57266
-3.6066
-2.13427
-1.33684
-0.917769
-0.627785
-0.451219
-0.38664
-0.359098
-0.31623
-0.263798
-0.218797
-0.178221
-0.129252
-0.0628533
-0.0106859
2.93556
2.95431
3.00527
3.09094
3.21027
3.35664
3.50001
3.54278
3.25696
2.16659
-0.383555
-5.12389
-9.13387
-8.98898
-6.39589
-3.65921
-1.78737
-0.938569
-0.581322
-0.377898
-0.324473
-0.376053
-0.405779
-0.372626
-0.319812
-0.281145
-0.248869
-0.202809
-0.129935
-0.0617355
2.97403
3.00144
3.07569
3.20588
3.40331
3.68313
4.04647
4.42325
4.56151
3.7683
0.666306
-7.02092
-13.1119
-11.6409
-7.38763
-3.48781
-1.25667
-0.46601
-0.119921
0.0837079
0.045553
-0.125129
-0.214963
-0.193725
-0.14316
-0.114372
-0.0953795
-0.0615426
-0.00242255
0.0267535
3.01208
3.04824
3.14617
3.32273
3.60552
4.04135
4.68739
5.56198
6.46091
6.47343
2.6736
-10.3079
-19.3836
-15.4889
-8.8633
-2.60948
-0.0995796
0.124978
0.159566
0.240779
0.0639458
-0.232142
-0.382245
-0.38265
-0.339925
-0.311973
-0.283251
-0.23377
-0.151249
-0.101457
3.04628
3.09033
3.20964
3.42929
3.79474
4.39199
5.36563
6.92238
9.172
11.4016
8.15075
-10.625
-27.5518
-20.9875
-10.9607
-0.943379
2.12158
1.64933
1.13668
0.905304
0.522645
0.142061
-0.0314256
-0.0457631
-0.0290167
-0.0194437
0.0057589
0.0508584
0.128616
0.098872
3.07351
3.12375
3.25968
3.51272
3.94402
4.67733
5.96106
8.2729
12.617
20.0842
22.4513
-15.5241
-46.1126
-31.3167
-10.5133
2.35236
4.9512
3.52537
2.10329
1.1373
0.272165
-0.304445
-0.528028
-0.565381
-0.564705
-0.532991
-0.449496
-0.326915
-0.265844
-0.0185827
3.0914
3.14522
3.29086
3.56303
4.0315
4.84284
6.30984
9.12333
15.2696
29.9787
58.5792
-67.2621
-82.2776
-54.3812
-6.63135
6.64384
7.89235
5.57948
3.34136
1.7701
0.578178
-0.022376
-0.169256
-0.160666
-0.148902
-0.107141
-0.00419901
0.133322
0.14707
0.325135
3.09854
3.15295
3.29975
3.57456
4.04856
4.86616
6.34065
9.17133
15.352
30.1245
70.3326
-72.2532
-3.64189
7.95634
8.54577
6.19252
3.88124
2.15745
0.885647
0.287103
0.108668
0.0705066
0.0258762
0.0147981
0.0770723
0.179348
0.15252
0.258876
3.09477
3.14683
3.28698
3.54729
3.98984
4.73975
6.05024
8.411
12.852
20.5085
38.9893
-44.5607
-79.0772
-51.5421
-6.61123
2.72354
4.1285
2.9466
1.68609
0.714815
-0.0315552
-0.320031
-0.322832
-0.222515
-0.158087
-0.102877
-0.00505139
0.104196
0.136507
0.11064
3.08108
3.1281
3.25381
3.48414
3.86573
4.48902
5.50633
7.13804
9.52972
12.0234
15.0961
-13.9612
-32.2197
-23.1459
-9.66179
-0.969537
1.59937
1.40201
0.963623
0.600147
0.203966
-0.0193843
-0.0406197
0.0216484
0.0657961
0.0965425
0.154165
0.214665
0.255656
0.13173
3.05949
3.09958
3.20558
3.39591
3.70061
4.17095
4.87179
5.83722
6.89661
7.1956
3.95645
-8.34443
-17.2927
-14.6657
-8.39088
-2.31328
-0.0948794
0.0833189
0.0302126
-0.0342416
-0.232154
-0.399662
-0.404514
-0.322631
-0.245172
-0.187854
-0.134022
-0.0833221
-0.0411925
-0.0632871
3.03287
3.06503
3.14922
3.29612
3.51975
3.8395
4.26406
4.73727
5.03286
4.49058
1.77969
-5.4823
-11.4629
-10.7438
-6.89434
-3.06272
-1.13231
-0.56039
-0.346977
-0.245317
-0.297755
-0.37737
-0.345056
-0.235254
-0.132924
-0.0676119
-0.0272088
0.0116539
0.0497582
0.0459077
3.00437
3.02863
3.09101
3.19565
3.34421
3.53409
3.74171
3.88009
3.73789
2.85511
0.581496
-3.89704
-7.8556
-8.15929
-5.94424
-3.34528
-1.71237
-1.05296
-0.781484
-0.62438
-0.576125
-0.568794
-0.502038
-0.383795
-0.280255
-0.219977
-0.185647
-0.146686
-0.0933923
-0.0506645
2.97712
2.99421
3.03701
3.10467
3.19012
3.27687
3.32509
3.24339
2.85847
1.87179
-0.0221308
-3.02901
-5.78263
-6.41733
-5.12836
-3.32593
-2.02903
-1.37459
-1.0284
-0.782686
-0.627867
-0.537909
-0.443704
-0.33066
-0.235079
-0.176666
-0.139396
-0.096312
-0.0395451
0.00140792
2.954
2.96529
2.99228
3.03066
3.06775
3.07897
3.01764
2.79829
2.28597
1.29057
-0.327024
-2.53883
-4.55464
-5.23783
-4.51295
-3.24882
-2.19939
-1.55706
-1.16397
-0.88278
-0.694763
-0.584081
-0.497346
-0.405152
-0.320534
-0.258854
-0.211468
-0.160922
-0.0966528
-0.0411636
2.93729
2.94462
2.96065
2.97892
2.98354
2.94582
2.81682
2.51824
1.94235
0.964983
-0.472458
-2.25766
-3.85623
-4.52667
-4.11746
-3.1701
-2.2751
-1.65476
-1.24749
-0.955793
-0.752425
-0.62353
-0.527404
-0.431023
-0.33666
-0.258954
-0.19728
-0.140179
-0.0757388
-0.0231918
2.92851
2.93389
2.94433
2.95234
2.94064
2.87881
2.71754
2.38322
1.78168
0.818636
-0.529248
-2.12473
-3.53771
-4.19499
-3.92223
-3.12047
-2.30196
-1.699
-1.28873
-0.992658
-0.781284
-0.641942
-0.539234
-0.440187
-0.342869
-0.261656
-0.199298
-0.146442
-0.08775
-0.0373667
2.81278
2.80849
2.79871
2.77454
2.71663
2.59265
2.35265
1.92533
1.22696
0.182398
-1.20286
-2.76018
-4.05999
-4.56681
-4.17154
-3.30365
-2.43705
-1.77173
-1.29867
-0.955047
-0.712456
-0.560889
-0.471291
-0.405718
-0.344038
-0.284655
-0.228194
-0.172754
-0.107067
-0.0475449
2.82338
2.82114
2.81684
2.80241
2.75964
2.65743
2.44543
2.04703
1.36448
0.29494
-1.18545
-2.91955
-4.38105
-4.87968
-4.34266
-3.3417
-2.40622
-1.72139
-1.24919
-0.910845
-0.67836
-0.541034
-0.463298
-0.403596
-0.343527
-0.284075
-0.226652
-0.169154
-0.10183
-0.04234
2.8435
2.84531
2.85168
2.85633
2.84364
2.78557
2.63226
2.29822
1.65726
0.545859
-1.12874
-3.25969
-5.08352
-5.54547
-4.68629
-3.404
-2.33079
-1.61575
-1.15196
-0.825254
-0.609721
-0.495085
-0.435809
-0.387009
-0.335104
-0.283966
-0.233392
-0.17868
-0.110668
-0.0497958
2.87168
2.87932
2.90106
2.93356
2.9658
2.97586
2.91771
2.69606
2.14374
0.994596
-0.981384
-3.83762
-6.3066
-6.63677
-5.20606
-3.46756
-2.17872
-1.42782
-0.994729
-0.706288
-0.531555
-0.451152
-0.404771
-0.351977
-0.295396
-0.245955
-0.200117
-0.147226
-0.0785867
-0.0226808
2.90558
2.92043
2.96128
3.02905
3.11998
3.22306
3.303
3.2618
2.88601
1.75815
-0.643524
-4.78484
-8.29293
-8.20772
-5.85292
-3.48369
-1.92573
-1.1262
-0.718707
-0.490156
-0.409311
-0.420348
-0.425121
-0.387257
-0.334656
-0.292136
-0.254369
-0.205912
-0.135238
-0.0681707
2.94231
2.96516
3.02751
3.13577
3.29656
3.51661
3.7846
4.01832
3.97155
3.02903
0.08576
-6.3993
-11.6014
-10.4074
-6.54057
-3.29432
-1.54528
-0.806153
-0.421711
-0.196481
-0.166662
-0.247875
-0.292892
-0.263325
-0.208464
-0.166617
-0.131397
-0.0873826
-0.0266029
0.011856
2.97865
3.00959
3.09378
3.24435
3.48117
3.83661
4.34292
4.97803
5.51672
5.09522
1.4361
-8.99186
-16.7166
-13.2965
-7.27609
-2.62947
-0.67193
-0.253997
-0.136301
-0.0550531
-0.140445
-0.317616
-0.421665
-0.4227
-0.381674
-0.342798
-0.298526
-0.241728
-0.166387
-0.101575
3.01134
3.04956
3.1535
3.34338
3.65403
4.14994
4.92856
6.10385
7.63041
8.68059
5.74845
-9.21395
-24.1223
-18.1462
-7.77791
-1.90043
0.464096
0.717108
0.552942
0.431326
0.222179
-0.00797745
-0.132097
-0.14393
-0.121541
-0.0923916
-0.047054
0.0132556
0.0739984
0.0888479
3.03743
3.08124
3.20046
3.42108
3.79011
4.40496
5.44397
7.2158
10.2141
14.3626
15.2504
-12.3412
-40.566
-25.1205
-6.35264
-0.571935
1.53872
1.49973
0.956626
0.478051
0.0159734
-0.328716
-0.482953
-0.51592
-0.517941
-0.493706
-0.427996
-0.330556
-0.252683
-0.123333
3.05468
3.10173
3.22956
3.46707
3.86837
4.54892
5.74555
7.92961
12.1944
20.2227
34.3767
-34.3289
-74.175
-32.8049
-2.77174
2.08579
3.13344
2.5597
1.5797
0.781177
0.113644
-0.252393
-0.342138
-0.318862
-0.283031
-0.231843
-0.138371
-0.0174291
0.0375598
0.131193
3.06176
3.10949
3.23853
3.47819
3.88537
4.57314
5.775
7.97317
12.2634
20.3284
40.2757
-20.6828
-86.7682
-47.6339
-2.95446
1.94621
2.98043
2.60358
1.72041
0.877139
0.171754
-0.190198
-0.279136
-0.25984
-0.242188
-0.2182
-0.146861
-0.0433362
-0.0101634
0.072295
3.05847
3.10417
3.22715
3.45398
3.83451
4.4659
5.52782
7.3408
10.413
14.6829
24.4495
-22.5736
-86.7449
-35.5323
-5.35583
-0.267382
1.24788
1.27359
0.784603
0.228851
-0.253616
-0.473142
-0.468969
-0.376841
-0.310733
-0.260061
-0.180411
-0.085251
-0.0301688
-0.011432
3.04575
3.0868
3.19667
3.39643
3.72255
4.24264
5.06045
6.29998
7.93853
9.17593
10.4925
-11.6301
-29.8286
-19.1975
-6.89036
-1.52918
0.335652
0.572095
0.397429
0.148426
-0.125005
-0.272376
-0.255807
-0.171969
-0.110179
-0.0707448
-0.0162838
0.0481965
0.0926135
0.0698634
3.02555
3.06024
3.15221
3.31592
3.57349
3.96102
4.5169
5.2308
5.90055
5.69467
2.41464
-7.62965
-15.4164
-12.591
-6.79453
-2.4137
-0.771877
-0.436049
-0.352287
-0.34849
-0.44724
-0.524355
-0.487711
-0.393176
-0.311865
-0.257035
-0.204557
-0.148158
-0.0945957
-0.0703384
3.00053
3.02797
3.09988
3.22412
3.40972
3.66703
3.99082
4.30967
4.39579
3.65335
0.995289
-5.21705
-10.4069
-9.66656
-6.09567
-2.9824
-1.46399
-0.880001
-0.579511
-0.422216
-0.408049
-0.42871
-0.38112
-0.281005
-0.190617
-0.131545
-0.0892658
-0.0442416
0.00181184
0.0201924
2.97367
2.99383
3.0457
3.13164
3.25032
3.39422
3.53332
3.57797
3.32676
2.3712
0.183891
-3.77414
-7.27392
-7.4995
-5.4257
-3.19795
-1.83708
-1.19738
-0.86725
-0.677888
-0.604773
-0.577745
-0.513697
-0.409613
-0.313803
-0.250267
-0.207413
-0.161772
-0.105154
-0.0562536
2.94795
2.96152
2.99542
3.04773
3.10982
3.1629
3.16513
3.02721
2.58817
1.58361
-0.229769
-2.96068
-5.43257
-5.97871
-4.78808
-3.20084
-2.06918
-1.44707
-1.08128
-0.829756
-0.673913
-0.578962
-0.484341
-0.373917
-0.275584
-0.207921
-0.161118
-0.113772
-0.0563016
-0.0122234
2.92611
2.93435
2.95372
2.97931
2.99782
2.98393
2.89109
2.63776
2.09993
1.11094
-0.437875
-2.48224
-4.31861
-4.93507
-4.27379
-3.14024
-2.19903
-1.59434
-1.20028
-0.917457
-0.72773
-0.609489
-0.514929
-0.418188
-0.32959
-0.262713
-0.211588
-0.161084
-0.0990164
-0.0445224
2.91033
2.91493
2.9242
2.93139
2.92057
2.86308
2.71121
2.39088
1.80402
0.842259
-0.535141
-2.20498
-3.68222
-4.30124
-3.93192
-3.07391
-2.25888
-1.67511
-1.27372
-0.98156
-0.776578
-0.642038
-0.539762
-0.44098
-0.346808
-0.26894
-0.206292
-0.14892
-0.0844113
-0.0307059
2.90201
2.90483
2.90894
2.90673
2.88111
2.80205
2.6219
2.27113
1.6646
0.720433
-0.57243
-2.07506
-3.39157
-4.00381
-3.76068
-3.03141
-2.28046
-1.71194
-1.30995
-1.01419
-0.801504
-0.657853
-0.550348
-0.449726
-0.3532
-0.271719
-0.206809
-0.150834
-0.0895481
-0.0383983
2.78058
2.77348
2.75653
2.72093
2.648
2.50655
2.24945
1.81203
1.12155
0.117191
-1.18438
-2.61833
-3.80219
-4.27556
-3.94318
-3.17598
-2.39445
-1.77742
-1.3229
-0.986055
-0.745372
-0.589379
-0.491093
-0.417672
-0.35095
-0.288129
-0.228503
-0.170307
-0.102912
-0.0445004
2.79056
2.78531
2.77329
2.74638
2.68677
2.56409
2.33054
1.91653
1.23677
0.207415
-1.17711
-2.75714
-4.07062
-4.5371
-4.08621
-3.20763
-2.37062
-1.73745
-1.28197
-0.948751
-0.715935
-0.570746
-0.481798
-0.413819
-0.349561
-0.287549
-0.227398
-0.167332
-0.0983815
-0.0397002
2.8095
2.8079
2.80547
2.79555
2.76232
2.67762
2.4931
2.13054
1.47974
0.406426
-1.14855
-3.05159
-4.65197
-5.08631
-4.3697
-3.26009
-2.31467
-1.65394
-1.20079
-0.877248
-0.659275
-0.531414
-0.455727
-0.395601
-0.337628
-0.282285
-0.227791
-0.1703
-0.101382
-0.0425129
2.83601
2.83966
2.85103
2.86583
2.87184
2.84541
2.73994
2.46648
1.87809
0.75415
-1.06565
-3.53879
-5.64255
-5.97177
-4.78463
-3.31362
-2.21018
-1.51095
-1.06747
-0.771699
-0.589874
-0.493308
-0.431549
-0.370547
-0.308873
-0.253747
-0.201991
-0.145737
-0.0768518
-0.021732
2.8679
2.87803
2.90651
2.95252
3.00948
3.06191
3.07019
2.93778
2.47251
1.32694
-0.85982
-4.29628
-7.20298
-7.24072
-5.28597
-3.32469
-2.04136
-1.29554
-0.850083
-0.586071
-0.467989
-0.440302
-0.423216
-0.379776
-0.323667
-0.273792
-0.228102
-0.176437
-0.10897
-0.0489632
2.90245
2.9198
2.96745
3.04908
3.16629
3.31679
3.47687
3.55431
3.31758
2.24305
-0.415468
-5.48387
-9.63595
-8.95784
-5.82013
-3.23907
-1.80175
-1.063
-0.632469
-0.377233
-0.291319
-0.309743
-0.324094
-0.289918
-0.232134
-0.179813
-0.132973
-0.0829254
-0.0242484
0.0131633
2.93667
2.96129
3.02843
3.14713
3.32935
3.59194
3.94132
4.31598
4.47595
3.65752
0.42016
-7.34989
-13.3611
-11.054
-6.2128
-2.95541
-1.31247
-0.634566
-0.356126
-0.225448
-0.234545
-0.324896
-0.384187
-0.372524
-0.323698
-0.271408
-0.216555
-0.157373
-0.0917493
-0.040728
2.9675
2.99871
3.08345
3.23642
3.48158
3.85901
4.41944
5.18164
5.97616
5.84753
1.95274
-10.4107
-19.0423
-13.6543
-6.43254
-2.75803
-0.780705
0.023368
0.19849
0.176476
0.0477159
-0.105314
-0.188867
-0.186565
-0.148093
-0.0992352
-0.0406581
0.0255666
0.0825769
0.100647
2.99219
3.02847
3.12679
3.30645
3.60219
4.07806
4.83526
6.01389
7.6428
9.01065
7.53895
-10.4011
-27.837
-18.1116
-6.39798
-2.63006
-0.444633
0.455381
0.533817
0.329701
0.0314065
-0.213215
-0.321405
-0.329694
-0.306575
-0.267782
-0.20773
-0.128065
-0.061278
-0.00188892
3.00863
3.04785
3.15397
3.34851
3.67178
4.20369
5.08487
6.55163
8.87207
11.7761
14.2965
-14.3673
-40.175
-21.2707
-5.93299
-1.771
0.421087
1.21445
1.12127
0.71615
0.245067
-0.0744087
-0.181634
-0.178627
-0.152137
-0.119607
-0.0621972
0.0198135
0.073152
0.104191
3.01561
3.05543
3.16295
3.3599
3.68711
4.22367
5.11134
6.59001
8.92927
11.8582
16.1098
-14.9445
-43.5032
-23.9698
-6.38271
-1.70898
0.598417
1.44322
1.35026
0.880783
0.357623
0.0180305
-0.0961397
-0.0988853
-0.0883609
-0.0802626
-0.0445876
0.02097
0.0620538
0.0821783
3.01291
3.05088
3.15293
3.33892
3.6439
4.13333
4.91195
6.12522
7.81017
9.25867
11.0023
-12.6355
-34.9126
-19.998
-6.22604
-2.06684
-0.0834109
0.691845
0.67416
0.32818
-0.0588477
-0.28506
-0.317351
-0.259099
-0.206792
-0.171198
-0.11918
-0.0446809
0.0128411
0.0363749
3.00142
3.03527
3.12565
3.288
3.54738
3.94688
4.54164
5.35775
6.23885
6.24659
2.59721
-9.55984
-18.5568
-13.3667
-5.89326
-2.21443
-0.551018
0.111718
0.212941
0.0735281
-0.129782
-0.24952
-0.237788
-0.164503
-0.106118
-0.0717884
-0.0295224
0.0294302
0.0778642
0.0810781
2.98293
3.01112
3.08569
3.2168
3.41835
3.71009
4.10317
4.54448
4.80876
4.14942
1.14628
-6.41737
-12.5159
-10.5069
-5.79661
-2.68255
-1.26871
-0.690973
-0.450203
-0.380591
-0.41716
-0.451314
-0.410707
-0.32683
-0.255999
-0.209846
-0.164572
-0.110164
-0.0544257
-0.0228431
2.95989
2.98162
3.03838
3.13512
3.27547
3.46009
3.66996
3.82063
3.69274
2.77274
0.311657
-4.58937
-8.76458
-8.3616
-5.43745
-2.97488
-1.69812
-1.07187
-0.702377
-0.500499
-0.438178
-0.423838
-0.373223
-0.286372
-0.206371
-0.150505
-0.105291
-0.0563023
-0.00512762
0.021379
2.93508
2.9503
2.98929
3.05249
3.13545
3.22552
3.28715
3.23001
2.86949
1.86202
-0.164867
-3.47688
-6.39569
-6.64804
-4.90282
-3.06907
-1.93507
-1.31265
-0.932827
-0.705978
-0.603159
-0.556415
-0.492512
-0.39907
-0.308894
-0.242908
-0.193469
-0.144083
-0.0863159
-0.0387852
2.91128
2.92061
2.94359
2.97718
3.01123
3.02468
2.97421
2.7753
2.28453
1.28009
-0.412482
-2.79541
-4.9142
-5.40492
-4.40396
-3.0668
-2.09433
-1.50289
-1.11938
-0.857342
-0.69539
-0.594267
-0.499536
-0.392892
-0.294286
-0.221108
-0.167457
-0.117071
-0.058927
-0.0139809
2.89103
2.89559
2.90559
2.91556
2.91173
2.86818
2.7392
2.44933
1.88911
0.919881
-0.533093
-2.37116
-3.9891
-4.54685
-3.99078
-3.01244
-2.1834
-1.61931
-1.22871
-0.944864
-0.751772
-0.625752
-0.524465
-0.424228
-0.332236
-0.260582
-0.205211
-0.153488
-0.0923422
-0.0395554
2.87639
2.8777
2.87865
2.8723
2.84284
2.76194
2.58388
2.24073
1.64613
0.710212
-0.588281
-2.11809
-3.44968
-4.01758
-3.70787
-2.95599
-2.2277
-1.68542
-1.29444
-1.00356
-0.796335
-0.655736
-0.547623
-0.446389
-0.351572
-0.272537
-0.208231
-0.150149
-0.085591
-0.0320204
2.86867
2.8684
2.86472
2.85001
2.80757
2.70814
2.50643
2.1388
1.53061
0.61422
-0.608908
-1.99923
-3.20144
-3.76619
-3.5646
-2.92078
-2.24453
-1.71568
-1.3263
-1.03313
-0.819287
-0.671026
-0.558681
-0.456207
-0.359601
-0.277114
-0.209638
-0.150983
-0.0876784
-0.0362963
2.74336
2.73311
2.70808
2.65971
2.57021
2.40986
2.13508
1.6885
1.00898
0.0512487
-1.15737
-2.45886
-3.52169
-3.96332
-3.70119
-3.04234
-2.34923
-1.78316
-1.35098
-1.02283
-0.783788
-0.622957
-0.516258
-0.435247
-0.363302
-0.296493
-0.233185
-0.172026
-0.102733
-0.0446743
2.75264
2.74401
2.72332
2.68251
2.60439
2.45975
2.20406
1.77545
1.10213
0.120737
-1.15751
-2.57428
-3.73766
-4.17536
-3.82014
-3.07125
-2.33303
-1.75267
-1.31809
-0.992214
-0.75932
-0.606818
-0.507457
-0.431143
-0.361791
-0.296245
-0.233003
-0.170629
-0.100164
-0.0414416
2.77023
2.76481
2.75255
2.72649
2.67086
2.55783
2.34166
1.95234
1.2968
0.272196
-1.1483
-2.81497
-4.1966
-4.61449
-4.05437
-3.12136
-2.29534
-1.6884
-1.25132
-0.932898
-0.713415
-0.575611
-0.486829
-0.41624
-0.351033
-0.290124
-0.231192
-0.171254
-0.101487
-0.043158
2.79485
2.79407
2.79389
2.78922
2.76688
2.702
2.5487
2.22645
1.61077
0.531284
-1.11123
-3.20826
-4.9635
-5.31213
-4.393
-3.17729
-2.22729
-1.58098
-1.14062
-0.84052
-0.651893
-0.543338
-0.470144
-0.401631
-0.333789
-0.272076
-0.214472
-0.15562
-0.0865275
-0.0307122
2.82446
2.82938
2.84416
2.86637
2.88697
2.88666
2.8229
2.60479
2.06816
0.941559
-1.00287
-3.78818
-6.13312
-6.30038
-4.8007
-3.20288
-2.1132
-1.42372
-0.972547
-0.689912
-0.545565
-0.488813
-0.452402
-0.400249
-0.337799
-0.279922
-0.227095
-0.173031
-0.107411
-0.0504786
2.85656
2.86781
2.89928
2.95202
3.02298
3.10193
3.1553
3.08885
2.69663
1.56962
-0.753309
-4.61681
-7.84144
-7.60723
-5.24489
-3.1649
-1.92386
-1.22053
-0.790484
-0.53276
-0.421846
-0.402017
-0.390217
-0.345549
-0.281238
-0.219944
-0.165366
-0.112247
-0.0535306
-0.0122174
2.88836
2.90599
2.95439
3.03871
3.16353
3.33177
3.52812
3.6685
3.51905
2.49428
-0.282739
-5.8346
-10.28
-9.14811
-5.61574
-3.04615
-1.59348
-0.855431
-0.51389
-0.366604
-0.34605
-0.388644
-0.412628
-0.385693
-0.330424
-0.272798
-0.217155
-0.161867
-0.102235
-0.0548578
2.91706
2.94043
3.00411
3.11767
3.294
3.55224
3.90445
4.30156
4.52321
3.79308
0.564937
-7.54757
-13.7759
-10.8934
-5.75698
-2.85206
-1.23271
-0.391225
-0.102967
-0.0824199
-0.172573
-0.272151
-0.308845
-0.280842
-0.227073
-0.171819
-0.115399
-0.0556791
-0.000451894
0.0259302
2.94014
2.96793
3.04333
3.17962
3.39787
3.73252
4.22594
4.88805
5.56521
5.43707
1.95826
-9.42615
-17.9988
-12.7298
-5.676
-2.38007
-0.773907
0.0448844
0.244652