/*--------------------------------*- C++ -*----------------------------------*\
| =========                 |                                                 |
| \\      /  F ield         | OpenFOAM: The Open Source CFD Toolbox           |
|  \\    /   O peration     | Version:  2512                                  |
|   \\  /    A nd           | Website:  www.openfoam.com                      |
|    \\/     M anipulation  |                                                 |
\*---------------------------------------------------------------------------*/
FoamFile
{
    version     2.0;
    format      ascii;
    arch        "LSB;label=32;scalar=64";
    class       volScalarField;
    location    "220";
    object      p;
}
// * * * * * * * * * * * * * * * * * * * * * * * * * * * * * * * * * * * * * //

dimensions      [0 2 -2 0 0 0 0];

internalField   nonuniform List<scalar> 
90398
(
68.701
68.6864
68.6524
68.5895
68.476
68.2719
67.9133
67.311
66.362
64.998
63.2674
61.4644
60.1075
59.465
59.2102
58.7358
57.6238
55.8274
53.4482
50.4682
46.7853
42.3607
37.2726
31.734
26.065
20.9119
16.6003
14.7643
10.1839
11.8564
68.7172
68.7053
68.6786
68.6289
68.5358
68.3609
68.0385
67.4698
66.5284
65.1075
63.2187
61.2174
59.8053
59.3059
59.2511
58.8993
57.8132
56.0154
53.6581
50.7082
47.0396
42.6137
37.5108
31.9363
26.2218
21.0739
16.9122
15.0949
10.3827
11.3941
68.7481
68.7417
68.7295
68.7059
68.6544
68.54
68.2959
67.8053
66.8928
65.3615
63.117
60.6514
59.1274
58.9667
59.3557
59.2589
58.2075
56.3924
54.0768
51.1854
47.5429
43.1155
37.9916
32.3665
26.6039
21.4676
17.437
15.4479
10.4251
10.6778
68.7919
68.7935
68.8023
68.8176
68.8294
68.8117
68.7015
68.3599
67.5327
65.8487
62.9509
59.5953
57.9181
58.4037
59.5545
59.8576
58.8224
56.971
54.7305
51.9284
48.321
43.8954
38.7517
33.0728
27.2591
22.1298
18.0976
15.6612
10.3195
9.75473
68.8455
68.857
68.8925
68.958
69.0557
69.1768
69.2762
69.2015
68.5967
66.7536
62.6772
57.6806
55.9122
57.5974
59.9397
60.7525
59.6151
57.6885
55.5718
52.8793
49.3005
44.8769
39.7086
33.9433
28.0272
22.8661
18.7089
15.6983
10.1041
8.70938
68.9052
68.9279
68.9939
69.1186
69.3226
69.6295
70.0418
70.426
70.3492
68.462
62.2319
54.1847
52.661
56.5277
60.7691
62.2007
60.7147
58.67
56.7357
54.1388
50.5464
46.1071
40.8871
34.9585
28.8787
23.6783
19.2624
15.6154
9.78071
7.67005
68.9665
69.0007
69.0983
69.2866
69.6114
70.1485
71.0047
72.1707
73.2391
71.6235
61.2971
47.8314
47.6054
54.8157
61.9712
63.9871
61.9043
59.9571
58.4265
55.9589
52.3092
47.7888
42.4307
36.2836
30.0898
24.8031
19.9787
15.6104
9.42285
6.77302
69.025
69.0696
69.1965
69.4448
69.8902
70.6821
72.0988
74.5636
78.3097
77.2045
65.1554
40.7227
40.2308
50.7193
64.8458
65.8319
62.3968
60.8311
59.9181
57.6086
53.95
49.4375
44.0743
37.9425
31.8105
26.2656
20.8043
15.5857
9.00275
5.87654
69.0765
69.1294
69.2793
69.5748
70.1194
71.1346
73.1448
77.1544
81.7236
93.1841
65.619
11.8913
30.3713
44.0653
72.2678
69.1548
63.082
61.8171
61.4453
59.365
55.9777
51.7511
46.5128
40.2691
33.6869
27.2719
20.9788
15.0863
8.49353
4.7797
69.1177
69.1753
69.3389
69.662
70.263
71.3998
73.806
79.0389
88.7041
114.532
71.6246
-30.7973
14.1359
31.613
79.517
72.3758
64.3237
63.3552
63.2415
61.1989
57.8976
53.66
48.0724
41.1791
34.0046
27.2411
20.7351
14.4741
8.10165
3.52465
69.1465
69.2049
69.3708
69.6967
70.2974
71.4254
73.7759
78.8098
89.6984
130.559
106.826
20.9998
30.6541
80.5999
73.6106
65.3549
64.1798
63.8841
61.8822
58.8554
55.0434
49.9749
43.3965
35.9976
28.5017
21.1362
14.0791
7.77792
2.25597
69.1624
69.2176
69.3747
69.6794
70.226
71.2207
73.1036
76.666
83.5074
93.4269
29.3662
37.9678
33.5434
41.9614
71.2468
70.5817
65.2213
63.9107
63.4839
61.8669
59.4411
56.4815
52.6117
46.7964
39.0335
30.3757
21.824
13.8334
7.47947
1.11479
69.1661
69.2149
69.3544
69.6197
70.0757
70.8483
72.1417
74.1656
76.5125
78.1334
58.8833
46.1039
46.0883
52.9123
68.507
70.6393
67.5016
65.9579
65.5232
64.5347
62.9567
61.1498
58.5149
52.7597
43.4648
32.8342
22.753
13.7281
7.20387
0.135482
69.1597
69.2001
69.3164
69.5316
69.8809
70.4207
71.2101
72.1546
72.7176
70.7382
62.7494
55.0558
54.9742
60.069
66.7565
69.0864
67.5145
66.4283
66.3024
65.8766
64.8435
63.3918
61.1072
55.7086
45.9605
34.3405
23.3087
13.536
6.8902
-0.707178
69.1461
69.1773
69.2682
69.4311
69.6779
70.0214
70.4451
70.7988
70.6747
68.96
64.2134
59.2902
58.7778
62.0529
66.246
68.2872
67.9429
67.5503
67.6879
67.5648
66.8428
65.6051
63.5016
58.3494
48.2848
35.8072
23.892
13.412
6.61177
-1.42266
69.1286
69.1507
69.2174
69.3326
69.4929
69.6861
69.8676
69.8978
69.4781
68.0739
65.1882
62.158
61.5334
63.4625
66.2513
68.0413
68.4068
68.4569
68.6938
68.7145
68.1956
67.0875
65.042
60.0615
49.9339
36.8831
24.2804
13.2286
6.31261
-2.04043
69.1102
69.1244
69.1702
69.2459
69.3386
69.4244
69.4518
69.3071
68.7965
67.67
65.7873
63.8564
63.3124
64.515
66.5212
68.0845
68.7757
69.1186
69.4869
69.6616
69.3176
68.2937
66.2267
61.3226
51.2399
37.7798
24.5958
13.0501
6.03457
-2.55044
69.0937
69.1018
69.1314
69.1771
69.221
69.2348
69.1683
68.9346
68.4117
67.4847
66.1593
64.8787
64.484
65.3103
66.8289
68.2022
69.0569
69.6196
70.1177
70.3987
70.1463
69.1331
66.9786
62.0856
52.1299
38.439
24.8137
12.8741
5.78655
-2.95866
69.0813
69.0854
69.104
69.1297
69.1425
69.1125
68.9935
68.7173
68.2044
67.4069
66.3889
65.4702
65.1905
65.8227
67.0627
68.323
69.2702
69.9721
70.5545
70.8923
70.6808
69.6446
67.3762
62.4371
52.6294
38.878
24.9846
12.7703
5.63536
-3.24778
69.0742
69.0766
69.0897
69.1054
69.103
69.0523
68.9098
68.6168
68.1134
67.3797
66.4996
65.7411
65.5196
66.0725
67.19
68.3985
69.3848
70.1499
70.7721
71.1352
70.9356
69.8713
67.5204
62.5106
52.773
39.0423
25.0558
12.7041
5.5981
-3.47257
68.6924
68.6773
68.6416
68.576
68.4587
68.25
67.888
67.2858
66.3439
64.9988
63.301
61.5333
60.1937
59.5388
59.2527
58.7475
57.6192
55.8196
53.4361
50.4439
46.7398
42.2831
37.1455
31.5401
25.8339
20.7456
16.4546
14.8558
10.1265
13.68
68.7084
68.6959
68.6674
68.6146
68.5171
68.3364
68.0088
67.4381
66.5024
65.1021
63.257
61.3043
59.914
59.394
59.2981
58.9096
57.8071
56.0084
53.6472
50.6844
46.994
42.5333
37.3756
31.7228
25.9808
20.889
16.7597
15.3931
10.6327
13.0796
68.7389
68.7318
68.7173
68.6899
68.6324
68.5097
68.2565
67.7592
66.8485
65.3414
63.167
60.7832
59.2895
59.087
59.4095
59.2631
58.1959
56.3852
54.0682
51.1656
47.5036
43.0429
37.8529
32.141
26.3549
21.2541
17.3259
15.913
10.7153
12.2276
68.7822
68.7828
68.7888
68.799
68.8024
68.7724
68.6458
68.2872
67.452
65.7949
63.0203
59.8205
58.1801
58.5824
59.6201
59.8514
58.8017
56.9586
54.713
51.8964
48.2718
43.8185
38.6058
32.8497
26.9891
21.8841
18.0303
16.055
10.4647
11.0601
68.8352
68.8454
68.8773
68.936
69.0218
69.1239
69.1941
69.0818
68.4422
66.6224
62.7894
58.0865
56.3444
57.8679
60.0278
60.7433
59.6022
57.7031
55.5834
52.8694
49.2676
44.8042
39.5628
33.7166
27.671
22.4642
18.5453
15.8707
10.0438
9.72425
68.8942
68.9152
68.9768
69.0926
69.2797
69.5569
69.9195
70.2245
70.0427
68.1405
62.4153
54.9488
53.363
56.8995
60.8817
62.1867
60.6607
58.6485
56.7491
54.177
50.5866
46.1104
40.825
34.7349
28.3814
23.1803
18.9589
15.568
9.57544
8.38048
68.9549
68.987
69.0795
69.2563
69.5581
70.0516
70.822
71.8254
72.6215
70.8801
61.6296
49.311
48.8629
55.3595
62.2318
64.1634
61.9092
59.8005
58.209
55.783
52.1935
47.7099
42.2834
35.8603
29.3873
24.2471
19.5928
15.4062
9.15355
7.13468
69.0129
69.0551
69.1762
69.4118
69.8287
70.5575
71.8356
73.9732
76.9535
76.241
65.2294
42.8847
42.2068
51.3694
65.6752
66.5214
62.9464
61.0345
59.8154
57.438
53.8426
49.3845
43.8118
37.122
30.6679
25.3351
20.1171
15.0712
8.57055
5.82424
69.064
69.1141
69.2576
69.5404
70.0546
70.9922
72.7955
76.259
80.478
88.7298
65.0455
25.2446
32.781
43.8024
74.5053
70.0605
63.7859
62.4588
61.8888
59.6503
56.1258
51.6743
45.8063
38.4165
31.1742
25.1846
19.5032
13.944
7.64048
4.27594
69.1051
69.1598
69.3163
69.6246
70.1928
71.2454
73.3929
77.8621
86.3349
107.37
66.1841
-56.6443
25.2895
15.1176
86.8976
75.6694
65.4754
63.5616
62.8675
60.4648
56.8832
52.2759
46.1057
38.6359
31.4013
24.9432
18.6625
12.6363
6.73651
2.6246
69.134
69.1895
69.3484
69.6596
70.228
71.2734
73.3739
77.6878
87.1586
121.706
9.81941
85.7955
75.3641
64.9191
63.2638
62.8526
60.8701
57.9675
54.4252
49.6309
42.8168
34.6597
26.396
18.7271
11.8519
6.15389
1.09849
69.1501
69.2026
69.3535
69.6462
70.1645
71.0852
72.7811
75.8932
82.0355
90.3181
40.8689
20.6295
43.3387
34.8206
74.5115
70.975
64.7396
63.6057
63.3776
62.0113
60.0123
57.7578
54.1402
47.2241
37.7649
27.9789
19.1379
11.4015
5.75744
-0.242231
69.1543
69.2008
69.335
69.5888
70.0179
70.7337
71.9105
73.694
75.63
77.2903
61.4456
46.9983
48.6814
52.9092
67.2495
69.5924
67.0554
65.9495
65.7064
64.8497
63.4471
61.8585
58.8182
51.6014
40.7834
29.5149
19.5653
11.0191
5.37642
-1.41979
69.1486
69.187
69.2986
69.5032
69.8318
70.3349
71.0574
71.8898
72.3217
70.4907
63.3841
55.7883
55.703
60.2629
66.4564
69.1246
67.7603
66.7194
66.5864
66.1759
65.1486
63.6621
60.6792
53.7034
42.5775
30.5198
19.7898
10.608
4.97826
-2.44284
69.1358
69.1652
69.2522
69.4071
69.6394
69.9591
70.3457
70.6474
70.4738
68.842
64.5374
59.8136
59.2621
62.3094
66.2227
68.2533
67.9698
67.6339
67.8164
67.7445
67.022
65.6637
62.787
55.9039
44.4618
31.6157
20.1093
10.2929
4.62281
-3.31155
69.1189
69.1397
69.2034
69.3127
69.4632
69.642
69.8023
69.8092
69.3788
68.0284
65.3428
62.4579
61.8353
63.6591
66.2975
68.0485
68.4678
68.5882
68.8832
68.9567
68.4294
67.1832
64.3738
57.485
45.8772
32.4141
20.2835
9.96042
4.26711
-4.05194
69.1012
69.1144
69.158
69.2294
69.3155
69.3925
69.4085
69.2546
68.7464
67.6526
65.869
64.0361
63.5162
64.6733
66.6024
68.1387
68.8645
69.2652
69.6899
69.9165
69.5664
68.4148
65.6451
58.7628
47.107
33.1449
20.4411
9.67571
3.96474
-4.64541
69.0853
69.0927
69.1205
69.163
69.2026
69.2108
69.1385
68.9022
68.3857
67.4829
66.2138
64.9925
64.6242
65.4329
66.9135
68.275
69.1581
69.7725
70.3277
70.6653
70.42
69.3047
66.5476
59.706
48.0668
33.8063
20.6332
9.4786
3.74646
-5.08373
69.0733
69.0768
69.0941
69.1174
69.127
69.0934
68.9715
68.6959
68.1906
67.4126
66.4305
65.5503
65.2931
65.9226
67.1468
68.4061
69.3796
70.1295
70.7701
71.17
70.9764
69.8618
67.0912
60.2928
48.7539
34.4209
20.9473
9.4823
3.70438
-5.34357
69.0664
69.0682
69.0802
69.0939
69.0889
69.0355
68.8914
68.6003
68.1051
67.3887
66.5363
65.8076
65.6058
66.1612
67.2725
68.485
69.4972
70.3093
70.9906
71.4185
71.2411
70.1141
67.3316
60.5399
49.1383
34.8577
21.265
9.56543
3.85572
-5.61956
68.675
68.6584
68.6188
68.5471
68.4217
68.2039
67.8339
67.2296
66.2996
64.9879
63.3509
61.6524
60.3482
59.6717
59.3317
58.7782
57.6289
55.8272
53.4392
50.4309
46.6946
42.1811
36.9537
31.2269
25.4249
20.3698
16.4046
15.4494
9.97657
16.3478
68.6906
68.6765
68.6437
68.584
68.477
68.2848
67.9458
67.369
66.442
65.0782
63.311
61.4504
60.1012
59.5472
59.381
58.9358
57.8133
56.0156
53.6516
50.6729
46.9503
42.4318
37.1764
31.3899
25.5366
20.2565
15.8958
15.1672
10.1513
15.3962
68.7205
68.7113
68.6919
68.6559
68.586
68.4467
68.1745
67.6611
66.751
65.285
63.2306
60.9954
59.5551
59.2834
59.4965
59.274
58.1895
56.3897
54.0744
51.1588
47.4696
42.9568
37.6633
31.8301
25.9095
20.3231
15.8666
15.3308
10.0373
14.3634
68.7627
68.7608
68.7607
68.7599
68.7462
68.6912
68.5313
68.1369
67.2807
65.67
63.106
60.1679
58.5889
58.8531
59.7081
59.8281
58.7706
56.9568
54.718
51.8907
48.2493
43.7567
38.4607
32.6236
26.4897
20.7582
16.8841
15.6837
9.81954
12.9673
68.8144
68.8215
68.8459
68.8904
68.9524
69.0164
69.0286
68.8403
68.1289
66.3593
62.9251
58.715
57.0184
58.2631
60.1114
60.6591
59.5325
57.6977
55.5996
52.8873
49.287
44.8022
39.5083
33.5741
26.9942
21.4415
17.8091
15.6118
9.44009
11.3278
68.872
68.8893
68.9415
69.0391
69.1936
69.4138
69.6759
69.8316
69.4512
67.5741
62.6795
56.1618
54.4853
57.4488
60.8965
61.9562
60.4679
58.5488
56.6981
54.177
50.6436
46.1946
40.8793
34.6047
27.706
22.6405
18.4811
15.2891
9.00006
9.61016
68.9313
68.9591
69.04
69.1942
69.4527
69.8624
70.4659
71.1776
71.4951
69.6744
62.1688
51.7006
50.7546
56.2055
62.1158
63.8211
61.6941
59.6249
58.0225
55.6783
52.2217
47.8151
42.3745
35.8382
29.263
24.2383
19.2325
15.0098
8.58295
7.92094
68.9882
69.0255
69.1334
69.342
69.7047
70.3189
71.3377
72.9093
74.6466
73.9553
64.8102
46.8185
44.9796
52.6886
64.7307
65.6734
62.6795
60.8905
59.6185
57.3595
53.9612
49.6241
44.178
37.6334
31.3992
25.7031
19.73
14.4825
7.99402
6.16171
69.0385
69.0833
69.2125
69.4646
69.915
70.7119
72.1442
74.6791
77.5982
81.5455
69.1774
35.2634
38.2654
45.7161
72.1833
68.2111
62.827
61.7273
61.1644
59.1511
55.9166
51.7736
46.3456
39.2421
32.1827
25.5347
18.9452
13.143
7.03627
4.21707
69.0792
69.1283
69.2699
69.5458
70.0441
70.941
72.6346
75.892
81.5099
92.1625
70.5609
23.6088
41.7968
17.6713
84.7804
74.803
65.3483
63.5491
62.7571
60.4243
56.824
52.2753
46.2733
38.761
31.3869
24.2619
17.4234
11.4295
5.99159
2.19637
69.1082
69.1582
69.3023
69.5815
70.0811
70.9735
72.6365
75.7974
82.0969
98.3969
15.2071
29.8698
84.1275
74.8993
65.2498
63.873
63.5516
61.7437
59.0397
56.0226
51.076
42.6251
32.9962
24.1254
16.5461
10.1451
5.22123
0.306904
69.125
69.1724
69.3094
69.5726
70.0306
70.8186
72.1786
74.4983
78.8443
82.921
69.8145
18.2482
55.0287
26.0171
75.4712
71.3528
65.5371
64.7431
64.6986
63.5545
61.9139
60.1027
55.4921
45.7256
34.4381
24.4593
16.26
9.32518
4.71068
-1.36826
69.1303
69.1722
69.2939
69.5224
69.9016
70.5144
71.469
72.8239
73.9769
72.7877
65.7843
47.9627
50.3969
53.4424
67.289
69.1005
66.9249
66.1624
66.1219
65.4752
64.3045
62.7874
58.4491
48.5587
36.2551
25.2161
16.2892
8.73534
4.30792
-2.83298
69.1259
69.1604
69.2612
69.4451
69.7351
70.1663
70.754
71.3756
71.5382
69.8734
64.1947
57.0743
56.6252
60.641
66.2079
68.8862
67.9071
67.1479
67.1584
66.8845
65.9977
64.5349
60.3703
50.5264
37.7023
25.8771
16.3149
8.2095
3.93907
-4.09481
69.1146
69.1407
69.2192
69.3581
69.5623
69.8348
70.1432
70.3421
70.0582
68.5661
64.9693
60.6289
59.9135
62.6065
66.2012
68.2362
68.1538
67.9842
68.2719
68.3167
67.7268
66.4314
62.4613
52.5871
39.214
26.6096
16.4305
7.79369
3.62329
-5.15592
69.0993
69.1174
69.1745
69.2717
69.4021
69.5505
69.6672
69.6251
69.1644
67.9013
65.5379
62.9106
62.2756
63.9275
66.3848
68.1043
68.6357
68.8961
69.3226
69.537
69.1518
68.0121
64.225
54.3124
40.5044
27.169
16.4513
7.40807
3.34677
-6.02365
69.083
69.0941
69.1325
69.1947
69.2668
69.3245
69.3167
69.1419
68.6325
67.5956
65.9794
64.3104
63.8199
64.8994
66.7257
68.2407
69.0512
69.5824
70.1493
70.5261
70.3169
69.299
65.6606
55.8674
41.8276
27.81
16.5222
7.10368
3.14278
-6.68791
69.0682
69.0739
69.0977
69.1333
69.1628
69.1588
69.0739
68.8304
68.3232
67.4643
66.2932
65.1774
64.8505
65.627
67.0553
68.4142
69.3694
70.1018
70.8001
71.2973
71.1965
70.2532
66.7563
57.1531
42.9936
28.575
16.7686
6.94387
3.04416
-7.14288
69.057
69.0592
69.0731
69.0909
69.0931
69.0514
68.9228
68.6465
68.1544
67.4123
66.496
65.6883
65.4708
66.0939
67.2956
68.5642
69.6022
70.4625
71.2484
71.8195
71.7737
70.8674
67.4564
57.953
43.8785
29.4117
17.2864
7.08744
3.1678
-7.36565
69.0506
69.0511
69.0601
69.069
69.0578
68.9982
68.85
68.561
68.0802
67.3962
66.5966
65.9267
65.7626
66.3222
67.4247
68.6523
69.727
70.6471
71.4756
72.081
72.0488
71.1802
67.8169
58.2613
44.2806
29.9781
17.849
7.30088
3.56511
-7.70731
68.6499
68.6309
68.5855
68.5048
68.3681
68.1376
67.7569
67.1503
66.2372
64.9725
63.4183
61.8152
60.5603
59.8559
59.4452
58.8316
57.6602
55.858
53.4634
50.4341
46.6563
42.0711
36.7379
30.89
25.0276
20.0211
16.8026
17.4759
11.4607
19.7753
68.665
68.6483
68.6092
68.5394
68.4191
68.2113
67.8571
67.2729
66.3601
65.0485
63.3841
61.6478
60.3551
59.7565
59.4977
58.9822
57.8397
56.0466
53.6785
50.6802
46.9177
42.3303
36.9655
31.0688
25.081
19.4526
15.3466
15.782
10.4104
18.3028
68.6937
68.6816
68.6547
68.6065
68.5193
68.3578
68.0603
67.5274
66.6229
65.2184
63.314
61.2734
59.904
59.5449
59.6138
59.2976
58.2014
56.4208
54.1076
51.1751
47.4543
42.8821
37.4998
31.6053
25.3767
18.8572
14.1169
14.5949
9.44769
16.9554
68.7344
68.7289
68.7198
68.7034
68.6662
68.5776
68.3741
67.9354
67.0637
65.5238
63.2047
60.5988
59.1128
59.1999
59.8165
59.8012
58.7489
56.9823
54.7595
51.9239
48.2678
43.7368
38.4185
32.5356
25.7327
19.013
15.1084
14.7925
9.10828
15.2976
68.7842
68.787
68.8002
68.8247
68.854
68.8674
68.8053
68.5264
67.7458
66.0509
63.0551
59.4621
57.8539
58.7298
60.1803
60.5374
59.4609
57.7151
55.6491
52.9541
49.375
44.9136
39.6899
33.5341
25.8886
20.1395
16.6325
15.0057
8.84566
13.3385
68.8398
68.8519
68.8906
68.9626
69.0728
69.2181
69.3558
69.3347
68.7654
66.9429
62.8816
57.5377
55.8678
58.0976
60.825
61.6168
60.3169
58.546
56.7178
54.2376
50.7898
46.4829
41.3232
34.5221
26.7151
21.9502
17.7243
14.825
8.52027
11.2096
68.8972
68.9188
68.9836
69.1062
69.3063
69.6087
70.0104
70.389
70.2602
68.387
62.6185
54.4312
53.0301
57.2603
61.8413
63.1299
61.4426
59.6211
58.0205
55.7357
52.4375
48.3192
43.1369
35.8423
28.7475
23.7124
18.4773
14.4628
8.1412
9.01903
68.9523
68.9828
69.0719
69.2427
69.532
70.0015
70.7151
71.6731
72.3622
71.041
64.6384
51.2312
48.2882
54.3747
63.5674
64.4981
62.2955
60.7624
59.5179
57.4174
54.2998
50.516
45.3837
37.8654
31.0304
24.8805
18.7059
13.744
7.56653
6.74964
69.0015
69.0388
69.1473
69.3563
69.7188
70.3355
71.3542
72.9773
74.9304
75.3472
68.1915
43.0697
42.9275
49.8621
67.8395
66.3909
62.6982
61.6256
60.9624
59.1676
56.4661
53.3421
48.1635
39.7725
31.773
24.5295
17.8398
12.3687
6.68359
4.36549
69.0417
69.0829
69.2031
69.4337
69.8373
70.5354
71.7472
73.8288
76.9767
80.6463
77.8434
3.97579
45.2064
35.3678
73.4479
69.8962
64.1534
62.9842
62.4589
60.6399
57.9374
54.8161
48.9296
39.5686
30.7724
23.103
16.3509
10.6991
5.71424
1.96324
69.0709
69.1131
69.236
69.4706
69.877
70.5743
71.771
73.7988
76.7999
81.6487
80.6368
29.2947
35.2413
31.9368
73.3249
69.7186
64.1522
63.4818
63.4807
62.2753
60.3796
57.9204
51.6449
41.0708
30.9108
22.39
15.3269
9.36345
4.96063
-0.293786
69.0886
69.1287
69.2458
69.467
69.8412
70.4592
71.4437
72.9513
74.6164
74.5557
72.5392
26.012
51.1945
42.7695
70.3576
69.0083
65.3936
64.8942
64.9787
64.1175
62.7122
60.732
54.4903
43.0663
31.77
22.4407
14.9372
8.49115
4.47177
-2.31574
69.0954
69.1307
69.2347
69.4275
69.7392
70.2212
70.9144
71.7762
72.2783
70.9648
66.5482
51.7019
52.0646
56.2102
66.7685
68.203
66.6805
66.247
66.3932
65.9829
65.0314
63.328
57.5381
45.979
33.542
23.1479
14.9583
7.91217
4.14387
-4.08403
69.093
69.1218
69.2077
69.3627
69.6004
69.9382
70.3607
70.7347
70.6264
69.0848
64.7255
58.7088
57.8698
61.4435
66.0804
68.2495
67.7601
67.4357
67.6645
67.5856
66.9473
65.4721
60.1066
48.6342
35.3207
23.9625
15.1195
7.48936
3.89341
-5.60115
69.0839
69.1053
69.1716
69.2876
69.4532
69.6627
69.8726
69.9469
69.5604
68.1914
65.2462
61.5451
60.7419
63.0447
66.2115
68.0996
68.3064
68.4049
68.8579
69.0773
68.7527
67.4883
62.2594
50.9833
37.0129
24.797
15.3421
7.17863
3.71642
-6.85714
69.0708
69.0851
69.1324
69.2121
69.3147
69.4216
69.4818
69.3792
68.8926
67.7272
65.7036
63.4427
62.8276
64.2704
66.5176
68.1698
68.8497
69.3155
69.9425
70.3706
70.2864
69.2482
64.1778
52.975
38.6034
25.5924
15.5514
6.91692
3.58814
-7.85857
69.0565
69.0646
69.0953
69.1442
69.1965
69.2276
69.1882
68.9869
68.4817
67.522
66.0985
64.6475
64.2149
65.1977
66.902
68.3885
69.3165
70.0406
70.8279
71.4357
71.5367
70.6974
65.8103
54.7115
40.3147
26.5932
15.8861
6.7744
3.53073
-8.60963
69.0434
69.0466
69.0642
69.0896
69.1051
69.0841
68.9821
68.7295
68.2376
67.4398
66.3913
65.4176
65.149
65.8864
67.2542
68.6167
69.678
70.5883
71.5126
72.2563
72.4753
71.796
67.1218
56.0275
41.716
27.7711
16.4498
6.78409
3.5708
-9.10477
69.0334
69.0334
69.0422
69.0518
69.0434
68.9903
68.8525
68.5757
68.1029
67.4114
66.5826
65.8754
65.7133
66.33
67.5082
68.7972
69.9348
70.9652
71.9832
72.815
73.0924
72.526
67.9739
56.677
42.3088
28.5457
17.1507
7.07278
3.80292
-9.34045
69.0275
69.0262
69.0305
69.0323
69.0122
68.9437
68.7898
68.5038
68.0435
67.405
66.6783
66.091
65.9806
66.5484
67.6427
68.8979
70.0697
71.1565
72.2213
73.0932
73.3945
72.9429
68.3825
56.8005
42.3141
28.7245
17.6593
7.34058
4.34243
-9.81034
68.6185
68.5967
68.5445
68.4531
68.3027
68.0574
67.6649
67.0574
66.1667
64.9608
63.5045
62.0112
60.8125
60.0765
59.5835
58.8981
57.6963
55.8893
53.4827
50.4226
46.5886
41.9166
36.4675
30.5141
24.6182
19.8562
17.8786
20.2514
13.4881
22.9731
68.6329
68.6131
68.5665
68.4848
68.3487
68.1227
67.752
67.1619
66.2695
65.0235
63.4793
61.8824
60.6563
60.0069
59.6414
59.0423
57.8723
56.081
53.7029
50.6749
46.8595
42.1872
36.7066
30.705
24.456
18.5491
15.4582
17.3988
11.6333
21.17
68.6603
68.6446
68.6089
68.5463
68.4388
68.2519
67.9274
67.3767
66.4862
65.1607
63.4279
61.5993
60.3155
59.859
59.7637
59.3382
58.2249
56.4635
54.1453
51.1864
47.4228
42.7741
37.3115
31.3142
24.3684
16.9657
12.9718
14.8778
9.70783
19.5309
68.699
68.6893
68.6694
68.6348
68.5704
68.4443
68.1952
67.7155
66.8416
65.3976
63.3459
61.1007
59.7296
59.6214
59.9698
59.8024
58.7533
57.0338
54.8172
51.9672
48.2863
43.7148
38.4029
32.2755
24.3044
16.9794
13.5563
14.3812
8.96225
17.5895
68.7465
68.7442
68.7442
68.7453
68.7376
68.6953
68.5574
68.1949
67.3726
65.785
63.2397
60.2868
58.8084
59.2909
60.3057
60.4653
59.4449
57.7771
55.7235
53.0382
49.4719
45.0586
39.912
33.0696
24.1893
18.7185
15.4275
14.5073
8.59557
15.2998
68.7996
68.8056
68.8281
68.8706
68.931
68.9953
69.0103
68.8303
68.1323
66.4075
63.1234
58.9939
57.4256
58.861
60.835
61.3737
60.2886
58.6507
56.8101
54.3516
50.9748
46.8412
41.6814
33.7162
25.3522
20.9159
16.7533
14.323
8.2403
12.7625
68.8546
68.8691
68.9149
69.0011
69.1364
69.3248
69.5354
69.6247
69.1804
67.3693
63.0025
56.9504
55.4449
58.3607
61.6813
62.5906
61.3559
59.763
58.1487
55.9094
52.7575
48.9672
43.5707
34.8069
27.6567
22.6259
17.467
13.8645
7.81762
10.0904
68.9077
68.93
68.9973
69.1251
69.334
69.652
70.0852
70.5379
70.5557
68.8604
62.9655
53.7238
52.7059
57.5782
62.8551
63.8618
62.3134
60.918
59.6559
57.6734
54.8045
51.4798
45.7947
36.726
29.736
23.5185
17.5384
13.0162
7.21055
7.32753
68.9555
68.9838
69.0682
69.2292
69.4988
69.9293
70.5736
71.424
72.0895
71.14
65.9115
50.6013
48.4513
54.8485
64.7792
65.5091
63.1852
61.9259
61.1005
59.4952
57.2311
54.6188
48.4331
38.5454
30.3466
23.1511
16.7408
11.6812
6.37977
4.50682
68.995
69.0271
69.122
69.3023
69.6061
70.1011
70.88
71.9948
73.2312
73.117
68.9622
44.3247
45.5686
52.7587
66.4673
67.6391
64.7458
63.4957
62.9015
61.5138
59.6192
57.0291
49.6672
38.6459
29.6194
22.0232
15.5334
10.1797
5.51131
1.73114
69.0244
69.0576
69.1555
69.3403
69.6486
70.1468
70.9222
72.0178
73.2108
73.0811
70.3085
44.8563
45.4952
52.5118
66.4703
67.8888
65.3129
64.4255
64.212
63.2029
61.7067
59.1975
51.2967
39.6257
29.6263
21.4702
14.7296
8.97982
4.83753
-0.866497
69.0433
69.0747
69.1684
69.3435
69.6289
70.0709
70.712
71.527
72.1268
71.1789
67.6401
50.0901
50.1773
55.5565
66.8656
68.1341
66.3018
65.7178
65.718
65.061
63.8434
61.5705
53.9579
41.8808
30.8079
21.7805
14.5311
8.22535
4.42167
-3.20151
69.0519
69.0794
69.1628
69.3152
69.5522
69.8968
70.3466
70.7962
70.8243
69.3701
64.7053
57.1306
56.3975
60.72
66.19
67.7556
67.0258
66.8203
67.0597
66.8535
66.1412
64.2514
57.363
45.2223
32.935
22.7714
14.7717
7.77699
4.18633
-5.24397
69.052
69.0741
69.1425
69.2639
69.4432
69.6814
69.9453
70.0996
69.7905
68.376
65.0652
60.4557
59.5682
62.4276
66.1009
67.8921
67.9349
68.003
68.4229
68.5679
68.2515
66.557
60.0458
48.3296
35.1127
23.8802
15.1893
7.53122
4.06318
-6.98837
69.0456
69.0614
69.1131
69.2023
69.3242
69.4651
69.5776
69.5373
69.083
67.8356
65.4873
62.6123
61.8665
63.6962
66.3501
68.0705
68.5994
69.003
69.6637
70.1304
70.1844
68.7591
62.3155
51.0735
37.2934
25.069
15.627
7.36319
4.00634
-8.42086
69.0352
69.045
69.0804
69.1395
69.2103
69.2716
69.2741
69.1152
68.6182
67.5677
65.8943
64.0708
63.5446
64.7735
66.7629
68.3368
69.198
69.9158
70.7949
71.5134
71.8565
70.7478
64.4081
53.366
39.4433
26.3821
16.1345
7.26005
3.98502
-9.557
69.0234
69.0278
69.0491
69.0823
69.1119
69.1133
69.0409
68.8154
68.323
67.4574
66.247
65.0563
64.7214
65.6101
67.1758
68.636
69.7069
70.6684
71.7379
72.6627
73.2241
72.4294
66.2941
55.1621
41.499
27.946
16.8144
7.25723
4.03054
-10.3977
69.0123
69.0125
69.0226
69.0358
69.0349
68.9945
68.8745
68.6148
68.1448
67.4214
66.5142
65.7055
65.5182
66.2276
67.5355
68.9134
70.1092
71.2461
72.4678
73.5485
74.2586
73.7557
67.8807
56.3219
42.577
29.0653
17.5793
7.33471
4.12001
-10.9535
69.0037
69.0012
69.0037
69.0035
68.9827
68.9163
68.7688
68.4934
68.0456
67.4162
66.6908
66.1012
66.0109
66.6319
67.7937
69.12
70.3892
71.6405
72.9657
74.1491
74.9436
74.6569
68.8891
56.7338
42.429
28.8633
17.7927
7.49472
4.31868
-11.2382
68.9985
68.995
68.9937
68.9867
68.9561
68.8772
68.7172
68.4362
68.0018
67.4194
66.7797
66.2905
66.2474
66.8326
67.9293
69.2321
70.5357
71.8426
73.2215
74.4526
75.3082
75.1997
69.3397
56.6699
41.8932
28.0516
17.4067
7.44159
4.83211
-11.8568
68.5824
68.5575
68.4977
68.3946
68.2295
67.9691
67.5656
66.96
66.0969
64.9566
63.6037
62.2225
61.0816
60.3142
59.7375
58.9793
57.7466
55.9332
53.5143
50.4212
46.5294
41.7758
36.2337
30.2258
24.3435
20.0569
19.5714
22.9632
14.6717
25.4435
68.5959
68.5728
68.5179
68.4233
68.2704
68.0259
67.6398
67.0473
66.1815
65.0086
63.5886
62.1313
60.9718
60.2729
59.8001
59.1174
57.9197
56.1281
53.7403
50.6807
46.8122
42.0593
36.4954
30.39
23.7055
17.7941
16.1256
19.1226
12.6883
23.4893
68.6218
68.6022
68.5569
68.4787
68.3501
68.1377
67.7881
67.2248
66.3572
65.1197
63.558
61.9332
60.7336
60.1838
59.928
59.3968
58.2647
56.5172
54.195
51.2111
47.4048
42.6921
37.2053
30.9691
22.8533
15.0036
12.4147
15.651
10.2792
21.6892
68.6584
68.6441
68.6126
68.5584
68.4659
68.3029
68.0121
67.5003
66.6386
65.3051
63.5087
61.5911
60.3297
60.0404
60.1348
59.8276
58.7802
57.0993
54.8852
52.0266
48.3218
43.7515
38.4841
31.7254
22.2434
14.9233
12.4604
14.4208
9.11336
19.5106
68.7034
68.6955
68.6813
68.6576
68.6121
68.5162
68.3101
67.8811
67.0462
65.5912
63.4446
61.0488
59.7057
59.84
60.4504
60.431
59.4572
57.8518
55.8056
53.1323
49.5848
45.2893
40.1086
32.017
22.2382
17.2168
14.3588
14.1684
8.51354
16.9365
68.7537
68.7531
68.7584
68.7699
68.7803
68.7679
68.6752
68.3712
67.6033
66.0211
63.3831
60.2375
58.8039
59.5839
60.9054
61.2279
60.2946
58.759
56.919
54.4841
51.1888
47.2864
41.8032
32.2308
23.9329
19.6199
15.6683
13.7846
8.00866
14.0485
68.8061
68.8128
68.8382
68.8866
68.9579
69.041
69.0886
68.9602
68.3309
66.6532
63.3399
59.0413
57.5823
59.3233
61.5657
62.2325
61.3049
59.8683
58.2726
56.0917
53.1131
49.6255
43.464
33.2074
26.3655
21.2454
16.3143
13.207
7.4926
10.9724
68.8569
68.8705
68.9145
68.9979
69.1282
69.3089
69.5117
69.6075
69.2193
67.5449
63.4021
57.362
55.9525
59.0254
62.4645
63.3889
62.2939
61.0067
59.7604
57.8894
55.2924
52.1869
45.2366
35.1813
28.3269
22.0801
16.357
12.2897
6.84387
7.79664
68.903
68.922
68.981
69.0926
69.2718
69.5365
69.8819
70.2111
70.1535
68.6649
63.7131
55.5395
54.2219
58.6935
63.5381
64.8632
63.3841
62.1422
61.2874
59.823
57.779
55.0625
47.3984
37.1218
29.114
21.9724
15.8073
11.07
6.0595
4.60136
68.9418
68.9642
69.0327
69.1616
69.3701
69.6853
70.1201
70.6059
70.8313
69.6288
64.4156
54.4719
53.2278
58.4774
64.4505
66.4433
64.7561
63.5249
62.9611
61.8474
60.2718
57.5432
48.9738
37.956
29.0407
21.4124
14.9978
9.78294
5.29091
1.49999
68.9716
68.9951
69.0669
69.2008
69.4153
69.7372
70.1769
70.6641
70.8964
69.7435
64.7867
55.181
53.9816
59.0976
64.9608
67.1667
65.7049
64.7352
64.5022
63.776
62.6317
60.0045
51.1606
39.5177
29.5248
21.25
14.5
8.76579
4.70413
-1.39103
68.9916
69.014
69.083
69.2107
69.4094
69.6945
70.0589
70.4049
70.3881
69.0523
64.7588
57.4395
56.361
60.6194
65.6171
67.4568
66.5626
66.0579
66.1258
65.7706
64.9886
62.6715
54.4285
42.2898
31.105
21.893
14.5435
8.13399
4.34734
-3.99246
69.0024
69.0217
69.0829
69.1933
69.3572
69.5771
69.8245
69.9764
69.6982
68.3172
64.961
59.9548
58.9962
62.0565
65.8245
67.4503
67.3258
67.3294
67.6967
67.7631
67.4499
65.3586
57.806
45.6589
33.4391
23.1582
15.0356
7.84954
4.19305
-6.2652
69.0051
69.0201
69.0695
69.1561
69.2774
69.4233
69.5504
69.5352
69.1047
67.8282
65.3161
62.0551
61.2415
63.2833
66.0967
67.7477
68.1985
68.5723
69.2028
69.654
69.759
67.8346
60.6407
48.9453
35.8508
24.5025
15.6144
7.72795
4.15633
-8.19336
69.0017
69.0117
69.0475
69.1088
69.1867
69.2625
69.2884
69.1566
68.6687
67.5634
65.7159
63.5781
62.9547
64.3563
66.5385
68.1454
68.9516
69.6567
70.5756
71.3838
71.8915
70.2669
63.1685
52.0614
38.4745
26.0583
16.3041
7.69611
4.16752
-9.77358
68.9944
68.9993
69.022
69.0592
69.0977
69.1148
69.0648
68.861
68.3694
67.4461
66.0888
64.6809
64.2768
65.3001
67.0325
68.5524
69.6113
70.6138
71.7971
72.902
73.7498
72.5277
65.5674
54.7973
41.107
27.8068
17.0341
7.70801
4.21814
-11.018
68.9853
68.9858
68.9969
69.0133
69.0194
68.9915
68.8887
68.6452
68.175
67.4111
66.408
65.4716
65.2444
66.0461
67.4819
68.9364
70.1753
71.4121
72.8202
74.166
75.2843
74.4897
67.7667
56.7676
43.1614
29.474
17.8503
7.71347
4.28274
-11.9421
68.9765
68.9735
68.9753
68.9754
68.9574
68.8977
68.7609
68.498
68.0563
67.4145
66.6509
66.0108
65.9147
66.602
67.8578
69.2661
70.6233
72.0316
73.6113
75.1402
76.4663
76.103
69.6434
57.9261
43.7657
29.7725
18.1325
7.60365
4.33385
-12.5601
68.9694
68.9643
68.9598
68.9489
68.915
68.8352
68.6788
68.4078
67.9902
67.4296
66.8133
66.3478
66.3377
66.9703
68.1242
69.5036
70.9329
72.4535
74.1521
75.8016
77.2643
77.2115
70.7468
58.092
43.1046
28.6531
17.2841
7.25761
4.40743
-12.9052
68.9652
68.9591
68.9515
68.9351
68.8932
68.8039
68.6386
68.3651
67.9612
67.4414
66.8955
66.5111
66.5428
67.1536
68.2618
69.6281
71.0918
72.6678
74.4289
76.1387
77.7209
77.8802
71.1848
57.7154
42.1433
27.3743
16.1012
6.63717
4.84812
-13.6529
68.5432
68.5151
68.4476
68.3326
68.1532
67.8784
67.4656
66.8649
66.033
64.9604
63.7096
62.4357
61.3507
60.5558
59.901
59.0732
57.8091
55.9865
53.5528
50.4242
46.4753
41.6463
36.0377
30.0211
24.2014
20.6329
21.5513
25.2221
15.0983
27.276
68.556
68.5294
68.4661
68.3583
68.189
67.9271
67.528
66.9369
66.1022
65.0045
63.7046
62.3774
61.2814
60.5403
59.9693
59.2078
57.9811
56.1858
53.7859
50.6933
46.7719
41.9459
36.3286
30.0695
22.8647
17.3455
17.1336
20.5696
13.2644
25.2328
68.5802
68.5567
68.5017
68.4079
68.2586
68.0226
67.6518
67.0821
66.2439
65.0965
63.6944
62.2515
61.1311
60.5045
60.1064
59.4773
58.3228
56.5836
54.2559
51.2493
47.3979
42.6426
37.1587
30.4338
20.9513