/*--------------------------------*- C++ -*----------------------------------*\
| =========                 |                                                 |
| \\      /  F ield         | OpenFOAM: The Open Source CFD Toolbox           |
|  \\    /   O peration     | Version:  2512                                  |
|   \\  /    A nd           | Website:  www.openfoam.com                      |
|    \\/     M anipulation  |                                                 |
\*---------------------------------------------------------------------------*/
FoamFile
{
    version     2.0;
    format      ascii;
    arch        "LSB;label=32;scalar=64";
    class       surfaceScalarField;
    location    "220";
    object      phi;
}
// * * * * * * * * * * * * * * * * * * * * * * * * * * * * * * * * * * * * * //

dimensions      [0 3 -1 0 0 0 0];

oriented        oriented;

internalField   nonuniform List<scalar> 
260615
(
1.59994
-6.94151e-05
0.000120847
1.59988
-0.000202568
0.000249443
1.59984
-0.000381715
0.000403491
1.59989
-0.000656099
0.000597075
1.60013
-0.00109058
0.000841214
1.60071
-0.00171972
0.00112456
1.60147
-0.00219394
0.00142367
1.60463
-0.00496414
0.0017885
1.6083
-0.00616198
0.0024824
1.6135
-0.00809993
0.0028995
1.61979
-0.00938624
0.00308175
1.61777
-0.000792779
0.00279455
1.62837
-0.0127749
0.00213704
1.62773
-0.000474262
0.0010867
1.62501
0.00254666
0.000157429
1.62178
0.00361509
-0.00040119
1.61806
0.00405999
-0.00035268
1.61646
0.00195214
-0.000355865
1.61496
0.00170827
-0.000221881
1.61392
0.00104992
-2.22767e-05
1.61331
0.00041932
0.000187172
1.61302
-6.42791e-05
0.000353292
1.61291
-0.00037137
0.00048598
1.61288
-0.000552778
0.000583958
1.61289
-0.000660232
0.000650519
1.61291
-0.000713184
0.00069319
1.61292
-0.000718616
0.000704792
1.6129
-0.000689883
0.000713712
1.61284
-0.00064034
0.000708544
-0.000568168
0.000723421
1.59993
-0.000133527
0.000124211
1.59985
-0.000389018
0.000255414
1.59977
-0.000734161
0.00041349
1.59976
-0.0012663
0.000614344
1.5999
-0.00211696
0.000871875
1.6004
-0.00341663
0.00118214
1.60164
-0.004971
0.00152575
1.60402
-0.00927118
0.00191847
1.60771
-0.0125983
0.00273716
1.61323
-0.0168857
0.00326616
1.6203
-0.0200053
0.00354495
1.61902
-0.00282643
0.00328537
1.62974
-0.0259563
0.00242541
1.62863
-0.000607828
0.00120743
1.62541
0.00563266
0.000114292
1.6218
0.00771234
-0.000511621
1.61857
0.00770145
-0.000415924
1.61626
0.00465287
-0.000402989
1.6147
0.00347694
-0.000215421
1.61369
0.00202143
2.9048e-05
1.61313
0.000689442
0.000279853
1.61288
-0.000309269
0.000487522
1.6128
-0.000934553
0.000644743
1.61279
-0.00131
0.000765327
1.61282
-0.00154191
0.000858098
1.61285
-0.00166444
0.000916756
1.61287
-0.00169119
0.000953011
1.61286
-0.00164605
0.0009757
1.61281
-0.00156937
0.000981113
-0.00147099
0.000998188
1.59991
-0.000188198
0.000129605
1.59979
-0.000545688
0.000266532
1.59964
-0.00103162
0.000430529
1.59951
-0.00178872
0.000647308
1.59946
-0.00301734
0.000936892
1.59968
-0.0049588
0.00131117
1.60048
-0.0075662
0.0017843
1.60269
-0.0136846
0.00219386
1.60637
-0.0195826
0.00330215
1.61253
-0.0271294
0.00408976
1.62135
-0.0334209
0.00459656
1.62169
-0.00759497
0.00440473
1.63264
-0.0400481
0.00309777
1.63048
-1.94068e-05
0.00152379
1.62616
0.00984105
8.47256e-05
1.62177
0.0127538
-0.000663141
1.61805
0.0118236
-0.000411738
1.61575
0.007341
-0.000384485
1.61417
0.00508622
-3.36268e-05
1.61323
0.00263988
0.000315506
1.6128
0.000458158
0.000658268
1.61267
-0.00111136
0.0009282
1.61268
-0.00205985
0.00111308
1.61276
-0.00261902
0.00123695
1.61284
-0.0029549
0.00132567
1.61292
-0.00311744
0.00137285
1.61297
-0.00313507
0.00139825
1.61297
-0.00305412
0.00141301
1.6129
-0.00291255
0.00140863
-0.0026293
0.0014326
1.5999
-0.000228845
0.000132765
1.59971
-0.000658842
0.000280638
1.59946
-0.00124754
0.000457054
1.59914
-0.00217731
0.000693517
1.5988
-0.003717
0.00102875
1.59858
-0.00623478
0.00148784
1.59878
-0.00989446
0.00211593
1.60044
-0.0180595
0.00271137
1.60393
-0.0272963
0.00422842
1.61105
-0.0397433
0.00550002
1.62313
-0.0518984
0.00640852
1.6266
-0.0171004
0.00600887
1.63739
-0.055524
0.00464634
1.63342
0.00178904
0.00213261
1.62723
0.0159158
9.42853e-05
1.62153
0.0193044
-0.000858052
1.61733
0.0164717
-0.000440528
1.61492
0.0100296
-0.000265833
1.61333
0.0064169
0.000269023
1.61251
0.00266141
0.000807429
1.61223
-0.000614289
0.0013594
1.61222
-0.00289032
0.00179709
1.61232
-0.0042654
0.00211386
1.61247
-0.0051047
0.00234176
1.61263
-0.00561706
0.00250631
1.61276
-0.00586153
0.00261753
1.61284
-0.00589752
0.00268453
1.61285
-0.00578226
0.00272169
1.61288
-0.00568923
0.00274122
-0.00548814
0.00277021
1.59987
-0.000251942
0.000139473
1.59963
-0.000717322
0.00029087
1.59923
-0.00135904
0.000488527
1.59868
-0.00238828
0.000753535
1.59794
-0.0041343
0.00114101
1.59708
-0.00710095
0.00171876
1.59633
-0.0117007
0.00255083
1.59694
-0.0221533
0.00347515
1.5997
-0.0356692
0.00562023
1.60809
-0.0558082
0.00769171
1.6262
-0.0792364
0.00923955
1.65509
-0.0550578
0.00906531
1.6445
-0.0520762
0.00712643
1.63772
0.00544308
0.00311745
1.6285
0.025021
0.000131353
1.62087
0.0279636
-0.00101174
1.61608
0.02152
-0.000238494
1.61355
0.0123523
0.000225359
1.61211
0.00691387
0.000963764
1.61169
0.00142733
0.0016781
1.61179
-0.00308577
0.00239148
1.61205
-0.00603726
0.00291453
1.61233
-0.00779986
0.00326767
1.61262
-0.00891255
0.00353817
1.61287
-0.0096071
0.00375483
1.61304
-0.00994937
0.0039267
1.61313
-0.0100416
0.00406196
1.61315
-0.00995009
0.00416023
1.61315
-0.0099375
0.00425247
-0.00973705
0.00444527
1.59984
-0.000255347
0.000146496
1.59952
-0.000714188
0.000305409
1.59898
-0.00134952
0.000519637
1.59814
-0.00238427
0.000819737
1.59691
-0.00418559
0.00126915
1.59519
-0.00737931
0.00198243
1.59324
-0.0128384
0.00308657
1.59175
-0.0251864
0.00452266
1.59252
-0.0440089
0.00756812
1.60222
-0.0763486
0.0108568
1.63136
-0.121917
0.0135597
1.65463
-0.0930023
0.0147292
1.65471
-0.0642402
0.0121401
1.64334
0.0114637
0.00544649
1.62921
0.03838
0.000813488
1.61934
0.0386497
-0.000755214
1.61392
0.0265835
0.000435426
1.61058
0.014148
0.00159428
1.60913
0.00526519
0.00314314
1.60914
-0.0032345
0.00469611
1.60977
-0.00976063
0.00609093
1.61058
-0.0138826
0.00708815
1.61147
-0.0164179
0.00775829
1.61244
-0.0180877
0.00824558
1.61338
-0.0191589
0.00863637
1.61426
-0.0197225
0.00891373
1.61506
-0.0199275
0.00910142
1.61574
-0.0198232
0.00921316
1.61677
-0.0202917
0.00932429
-0.0198396
0.00953321
1.59982
-0.000238658
0.000150398
1.59942
-0.000647868
0.000322577
1.59872
-0.00121332
0.000550757
1.59758
-0.00214356
0.000883028
1.59578
-0.00380425
0.00140456
1.59304
-0.00691081
0.00225843
1.58934
-0.0128433
0.00369214
1.58217
-0.0240345
0.00601434
1.58062
-0.0523601
0.00990695
1.59107
-0.101914
0.0151139
1.63802
-0.0377182
0.0196101
-0.0464848
-0.0468967
-0.0573535
1.67585
-0.0390283
0.0257558
-0.0323941
-0.0442037
-0.0409175
1.66972
-0.0179646
0.0245715
-0.0140137
-0.0253371
-0.0253581
1.64987
0.0053977
0.0128125
0.0122229
-0.00172232
0.00272369
1.62797
0.0532121
0.00708563
1.61513
0.0472045
0.00428858
1.61116
0.0264309
0.00417246
1.6073
0.0126511
0.00538281
1.60722
-0.00202873
0.00739549
1.60945
-0.0153547
0.00991796
1.61215
-0.0248697
0.0124394
1.61446
-0.0308463
0.0146951
1.61609
-0.0346935
0.0166875
1.61682
-0.0373716
0.0185922
1.61647
-0.0392326
0.0204574
1.61501
-0.0404404
0.022217
1.61219
-0.0409615
0.0238695
1.60853
-0.0414007
0.0252579
1.6023
-0.0411273
0.027067
-0.0419582
0.0284631
1.5998
-0.000203543
0.000153873
1.59932
-0.00052374
0.00033797
1.59847
-0.000959176
0.000578234
1.59705
-0.00167432
0.000940967
1.59467
-0.0029743
0.00152931
1.5907
-0.00546822
0.00251843
1.58423
-0.0106802
0.00430099
1.57427
-0.0217065
0.00762079
1.56148
-0.051972
0.0123883
0.393351
-0.120449
0.0199896
0.389854
0.39018
0.38662
0.398284
-0.0436064
0.000948484
-0.409253
0.424267
-0.0573189
0.00326394
-0.429068
0.432236
-0.0286883
0.00749816
-0.427585
0.423522
0.00540345
0.004006
1.62223
0.0589244
0.0332481
-0.415536
-0.416692
-0.413296
-0.415629
1.60999
0.0296539
0.0297506
1.602
0.00418685
0.0302598
1.5976
-0.0173232
0.034396
1.59243
-0.0372266
0.0403855
1.58246
-0.052119
0.046752
1.56682
-0.0612927
0.0520967
1.54674
-0.0664663
0.0557413
1.52364
-0.0694972
0.057963
1.49844
-0.0713277
0.0592038
1.47196
-0.072404
0.0597073
1.44507
-0.0730728
0.0595609
1.41823
-0.0728304
0.0587395
1.39309
-0.0732025
0.0569624
1.36499
-0.0688511
0.0558417
-0.0743478
0.0509921
1.59978
-0.000153801
0.000156519
1.59925
-0.000354508
0.000350395
1.59828
-0.000611499
0.000598794
1.59663
-0.00102205
0.000987755
1.59378
-0.00176547
0.00162902
1.58875
-0.00319557
0.00273411
1.57954
-0.00630664
0.00483055
1.56238
-0.0134632
0.00889841
1.52931
-0.033652
0.0147275
0.379466
-0.102653
0.0200886
0.373706
0.373254
0.364964
0.386967
-0.0558529
-0.000928421
0.0492519
0.428695
-0.411592
0.0757211
-0.0250036
-0.0232796
-0.028892
-0.0208121
0.0030878
-0.000146039
0.00305772
-0.000928283
-0.432483
0.441817
0.0507794
-0.0271807
-0.0216941
-0.0262674
-0.020706
0.0111057
0.00665686
0.00752377
0.0103893
-0.441769
0.430779
-0.00110478
-0.00227275
-0.00813179
-0.00672128
0.00173801
0.00497211
0.0105649
0.00851377
0.00362335
1.51831
0.0290277
0.124585
-0.414813
-0.413548
-0.414057
-0.370405
1.4511
-0.00526283
0.102025
1.38079
-0.0215542
0.0960258
1.31057
-0.0396999
0.0925946
1.24357
-0.0582508
0.0880148
1.1831
-0.0721813
0.0805124
1.13179
-0.0803214
0.0703419
1.09104
-0.0844382
0.0587508
1.06066
-0.0862322
0.0471581
1.03917
-0.0862602
0.0364808
1.02467
-0.084956
0.0270996
1.01614
-0.0831524
0.0186577
1.01471
-0.0813949
0.0100295
1.01955
-0.0797374
0.00170828
1.03285
-0.0762451
-0.00589489
-0.0725659
-0.0157306
1.59976
-9.49061e-05
0.00017306
1.59917
-0.000158845
0.000370656
1.59813
-0.00020985
0.000628121
1.59632
-0.000263582
0.00102921
1.59318
-0.000335555
0.00169831
1.58754
-0.000446276
0.00287608
1.57667
-0.000629588
0.00517203
1.55434
-0.000961963
0.00980961
1.50608
-0.00164098
0.0162252
0.354015
-0.00344804
0.0133732
0.349739
0.344741
0.344973
-0.0322161
-0.0156032
0.0507212
0.0850783
0.0904331
0.0863897
0.0891798
0.0278985
-0.101518
0.106394
-0.0249148
-0.00266952
-0.00210836
-0.0017823
-0.00132285
-0.106839
0.0431805
0.102482
-0.0137497
-0.0113763
-0.0145823
-0.0129965
0.00446431
0.00257906
0.00458906
0.0022978
-0.0615311
0.0139751
-0.0216241
0.0115536
0.0576931
0.0826363
0.0870229
-0.0998695
-0.119841
0.0151622
-0.0123759
0.0764281
0.200634
0.0432973
-0.1669
0.34069
-0.00745684
-0.154315
0.479732
-0.035172
-0.143628
0.597693
-0.0468376
-0.129418
0.691227
-0.04999
-0.115757
0.766799
-0.0493554
-0.106547
0.830622
-0.0472339
-0.101009
0.886278
-0.0443284
-0.0975196
0.935947
-0.0407098
-0.0951668
0.981194
-0.0365431
-0.0936095
1.02284
-0.0321578
-0.0926045
1.06165
-0.0279446
-0.0922268
1.09679
-0.0235581
-0.0913032
1.13363
-0.0206106
-0.0924762
-0.0130352
-0.0896091
1.59974
-3.38383e-05
0.000188412
1.59914
4.05649e-05
0.000386207
1.59807
0.000196795
0.0006409
1.59625
0.000500159
0.0010465
1.59307
0.0011037
0.00171666
1.58746
0.00233515
0.00280823
1.57654
0.00510108
0.00517261
1.55409
0.0116423
0.00982798
1.50551
0.0306125
0.0163064
0.349445
0.0966018
0.0136908
0.35349
0.344641
0.344162
0.00125436
0.0297744
-0.0215849
0.0827469
0.0872238
0.0825598
0.0874439
0.000697951
-0.0986946
0.0917661
0.00885672
-0.000325244
-0.00095934
-0.000330196
-0.00101082
0.015042
0.00399204
0.000708161
-0.0126235
-0.00787696
0.106189
0.0880102
-0.338623
0.0426469
0.0456287
0.0736681
0.0693615
0.397678
0.0637742
-0.312149
0.597292
0.0586669
-0.26586
0.737745
0.0538622
-0.229544
0.833752
0.0515923
-0.194477
0.897067
0.0497499
-0.163088
0.939106
0.0468564
-0.138273
0.968342
0.0427703
-0.119241
0.989741
0.0385357
-0.104244
1.00664
0.0348298
-0.0924031
1.02162
0.03177
-0.0832553
1.0363
0.0295695
-0.0763835
1.05202
0.0279278
-0.0715767
1.06813
0.028218
-0.0678819
1.08965
0.0246509
-0.0667763
0.0318449
-0.0645271
1.59974
2.29949e-05
0.000187628
1.59919
0.000222556
0.000349402
1.59821
0.000562688
0.000601851
1.5965
0.00117775
0.0010175
1.59357
0.00235273
0.0016595
1.58854
0.00466854
0.00268233
1.57916
0.00959657
0.0048651
1.56164
0.0201455
0.00898653
1.52769
0.0495443
0.0149916
0.372757
0.116452
0.0209157
0.378332
0.363922
0.371895
-0.0486838
0.0542489
-0.00444887
0.0935894
0.0908358
0.0922994
0.0949121
-0.0267113
-0.101468
0.10753
-0.00461758
0.0252481
-0.00588301
-0.102979
0.102972
0.00646905
0.0256091
-0.00488319
-0.00988604
-0.0111909
-0.0302517
-0.0858392
0.0179723
0.0627141
0.035227
1.00029
-0.00650604
0.0651749
-0.16731
-0.36147
-0.0961922
-0.345928
1.02293
0.0054462
0.0355887
1.05669
0.00925626
0.0155532
1.09945
0.00974156
0.0013106
1.14349
0.0122506
-0.00472286
1.18314
0.0154596
-0.00538021
1.21549
0.0175716
-0.00307326
1.2395
0.018725
3.07146e-05
1.25445
0.0196198
0.00398636
1.26106
0.0205128
0.00774151
1.26014
0.0215368
0.0111773
1.25313
0.0227169
0.0138907
1.24135
0.0238377
0.0158869
1.22713
0.0258435
0.0165975
1.20799
0.0255022
0.0182926
0.0305376
0.0152933
1.59977
6.97329e-05
0.000173721
1.59928
0.000366765
0.000323659
1.59842
0.000844818
0.000566581
1.59693
0.0016862
0.000962917
1.59447
0.00323996
0.00155255
1.59036
0.00619992
0.00255243
1.58364
0.0119255
0.00437103
1.57318
0.0228085
0.00776904
1.55916
0.0507804
0.0127575
0.388672
0.0997791
0.02105
0.392088
0.385238
0.38876
-0.0481722
0.392358
0.0429832
0.00149427
-0.0749123
-0.407265
0.419342
0.0586134
0.00427202
-0.067495
-0.418885
0.424109
0.0433205
0.0195401
-0.0618354
-0.437628
0.442039
0.0325736
0.0242097
1.66822
-0.021238
0.0712698
-0.435288
-0.42704
-0.435978
-0.42642
1.64592
-0.0346268
0.0623024
1.63029
-0.0298517
0.0546671
1.62038
-0.0289586
0.0485735
1.61408
-0.0255872
0.0441197
1.60961
-0.0212325
0.0411574
1.60605
-0.0176242
0.0387596
1.60315
-0.0148375
0.0364706
1.6003
-0.0122541
0.0347451
1.59701
-0.00952146
0.0333452
1.59211
-0.00651542
0.0329757
1.58517
-0.00336019
0.0330387
1.57531
-0.00016271
0.0338639
1.5636
0.00289561
0.0346735
1.54537
0.00663222
0.0371037
0.00887807
0.037586
1.5998
0.000101949
0.000156033
1.59936
0.000460044
0.000327627
1.59862
0.00101831
0.000549858
1.59741
0.00197707
0.000902321
1.59551
0.00369128
0.0014282
1.59261
0.00677776
0.00229995
1.58863
0.0121091
0.00377215
1.58091
0.0243205
0.00618163
1.57816
0.0431884
0.0103017
1.58577
0.0760601
0.0160661
1.6274
0.124533
0.0223184
-0.0373152
-0.0468261
-0.0465003
-0.0578668
1.66139
0.105181
0.0326086
-0.0411373
-0.0373377
-0.0466242
-0.0466531
1.67193
0.104233
0.0446285
-0.0300545
-0.0385184
-0.0391247
-0.0519189
1.66639
0.0350255
0.0373314
-0.0199178
-0.00227143
-0.0298022
-0.0149728
1.64174
-0.0178473
0.0212172
1.62733
-0.0310531
0.0107632
1.62158
-0.0291673
0.00500687
1.61607
-0.0245344
0.00106728
1.61326
-0.021422
-0.00136682
1.61199
-0.0173611
-0.00259052
1.61126
-0.0138317
-0.00305481
1.61073
-0.0112101
-0.00308268
1.61034
-0.00905513
-0.00278978
1.61014
-0.00707837
-0.00221416
1.61008
-0.00526447
-0.0011729
1.61048
-0.00364129
-0.000102828
1.61103
-0.00210998
0.00141294
1.61173
-0.000802915
0.00300198
1.61253
0.000939061
0.00489971
0.00255004
0.00752487
1.59982
0.000117607
0.00014962
1.59946
0.000495966
0.000311617
1.59886
0.00107252
0.000526579
1.59794
0.00203998
0.000838712
1.5966
0.00372012
0.00129552
1.59471
0.00661563
0.00202881
1.59246
0.0111522
0.00317376
1.59046
0.0215955
0.00469891
1.59032
0.0353518
0.00793915
1.59834
0.0563116
0.0116774
1.62499
0.082371
0.0154699
1.64709
0.0641661
0.0188412
1.65519
0.0744139
0.0216052
1.65229
0.0207887
0.0170324
1.63829
-0.0115356
0.00763117
1.62817
-0.0231453
0.00214246
1.62164
-0.0234887
0.000805879
1.61709
-0.0197385
-0.000262801
1.61434
-0.0180455
-0.000613241
1.61286
-0.0152853
-0.000588805
1.61201
-0.0126327
-0.000323626
1.61145
-0.0105689
-6.85113e-05
1.61112
-0.00889795
0.000193985
1.61094
-0.00739274
0.000516398
1.61081
-0.00604047
0.000933217
1.61076
-0.0048661
0.00129085
1.61074
-0.00382345
0.00173805
1.61079
-0.00291099
0.00206322
1.61132
-0.00202339
0.00243615
-0.000982174
0.00294786
1.59984
0.00011649
0.000143111
1.59955
0.000475047
0.000298059
1.5991
0.00101139
0.00050001
1.59845
0.00189357
0.000771643
1.59759
0.0033863
0.00117064
1.59656
0.00586117
0.0017695
1.59554
0.00950134
0.00264175
1.59573
0.0177244
0.00364682
1.59784
0.0272568
0.00595193
1.60525
0.0405089
0.0083475
1.62233
0.0546661
0.0105739
1.6512
0.0236291
0.0116153
1.64513
0.068514
0.0119043
1.64357
0.0134066
0.00887015
1.6353
-0.00714812
0.00383296
1.62776
-0.0161571
0.000497058
1.62229
-0.0175761
-0.000476635
1.61874
-0.0146554
-0.00154726
1.61626
-0.0135288
-0.00202682
1.61475
-0.0115183
-0.00224562
1.6138
-0.00942509
-0.00223644
1.61315
-0.00770343
-0.00219866
1.61272
-0.00632744
-0.00211799
1.61243
-0.00513914
-0.00195106
1.61223
-0.00410418
-0.00171757
1.61209
-0.00324009
-0.00146306
1.61197
-0.00251878
-0.00118387
1.6119
-0.00191295
-0.000922069
1.61183
-0.00132186
-0.000624035
-0.000501668
-0.000152756
1.59987
0.000100183
0.000136808
1.59963
0.00040313
0.000288669
1.59931
0.000849928
0.000469718
1.5989
0.00157285
0.000713347
1.59843
0.00277029
0.00106066
1.59804
0.00468863
0.00154086
1.59801
0.00729988
0.00220714
1.59933
0.0134963
0.00287337
1.60237
0.019664
0.0045187
1.60896
0.0278585
0.00602554
1.62069
0.0355377
0.00736341
1.62465
0.0120215
0.00761519
1.63812
0.0477723
0.00723077
1.63745
0.0088486
0.00520168
1.63233
-0.00430998
0.0022385
1.62681
-0.0107281
5.60251e-05
1.62224
-0.0124812
-0.000558513
1.61913
-0.0102857
-0.00127275
1.61677
-0.00971745
-0.0014505
1.61514
-0.00840814
-0.00146485
1.61402
-0.0069623
-0.00133265
1.61325
-0.00574062
-0.0011701
1.61271
-0.00479272
-0.000979822
1.61235
-0.00400567
-0.000757628
1.61211
-0.00332732
-0.000519052
1.61194
-0.00276132
-0.000298726
1.61182
-0.00229772
-8.75499e-05
1.61173
-0.00190269
7.64223e-05
1.61174
-0.00158323
0.00025112
-0.00121462
0.000475136
1.59988
7.18751e-05
0.000133981
1.5997
0.000290535
0.000275223
1.59948
0.000609833
0.000444163
1.59925
0.00112016
0.00066851
1.59908
0.0019523
0.000970508
1.59914
0.00324114
0.00136569
1.59973
0.00480678
0.0018749
1.60168
0.00917352
0.00234694
1.60505
0.0126985
0.00355846
1.61093
0.0174269
0.0045194
1.61972
0.0214081
0.00530798
1.62068
0.00555122
0.00549816
1.63345
0.0303308
0.0046645
1.63349
0.00549504
0.00330107
1.6302
-0.00241961
0.00138206
1.62607
-0.00652968
-9.76787e-05
1.6222
-0.00812269
-0.000515088
1.61943
-0.00643662
-0.00109209
1.61724
-0.00628287
-0.00125155
1.61563
-0.00549253
-0.00129985
1.6145
-0.00457223
-0.00124981
1.61371
-0.00376863
-0.00117351
1.61316
-0.00313806
-0.00109224
1.61278
-0.00260955
-0.00100191
1.61251
-0.00214009
-0.00090263
1.61231
-0.00173632
-0.000819345
1.61216
-0.00140333
-0.000732035
1.61205
-0.0011336
-0.000654384
1.61195
-0.000908254
-0.000573669
-0.000650549
-0.000466346
1.59989
3.5363e-05
0.0001288
1.59975
0.000149857
0.000264604
1.5996
0.000316108
0.000428013
1.59949
0.000579819
0.000636865
1.59951
0.00100557
0.000907131
1.59986
0.00163039
0.00123813
1.60091
0.00211226
0.00161615
1.60307
0.00491855
0.00206513
1.60655
0.00621839
0.00297056
1.61193
0.00837723
0.00363337
1.61913
0.0100734
0.00410997
1.61849
0.00207679
0.00409228
1.63059
0.0147465
0.00347975
1.6311
0.00263543
0.00233753
1.62881
-0.00110258
0.000949518
1.62553
-0.0031097
-0.000158554
1.62223
-0.00431394
-0.000536936
1.61958
-0.00283978
-0.000955129
1.61751
-0.0030757
-0.0011313
1.61591
-0.00272429
-0.00116439
1.61474
-0.00227809
-0.00111236
1.61391
-0.00187955
-0.00103747
1.6133
-0.00156232
-0.000954258
1.61285
-0.00129459
-0.000855667
1.61252
-0.00105561
-0.000742197
1.61228
-0.000852168
-0.000631727
1.6121
-0.000691947
-0.000522967
1.61195
-0.000570819
-0.000412627
1.61186
-0.000495706
-0.000322372
-0.000468094
-0.000205957
1.5999
0.000125405
1.59978
0.000258705
1.59967
0.000418236
1.59962
0.00061996
1.59974
0.000876825
1.60017
0.00118049
1.60076
0.00151259
1.60373
0.00192932
1.60723
0.00270046
1.61236
0.0032303
1.61885
0.00356854
1.61746
0.00345467
1.62926
0.00294519
1.62999
0.00190081
1.62815
0.000725519
1.62526
-0.000228586
1.62151
-0.000581284
1.61961
-0.000943826
1.61765
-0.00110939
1.61606
-0.00113435
1.61487
-0.00107997
1.61401
-0.00101077
1.61337
-0.00092272
1.61291
-0.000820875
1.61257
-0.00071115
1.61233
-0.0006013
1.61215
-0.000515257
1.61202
-0.000434149
1.6119
-0.000381688
-0.00031073
1.60005
-6.76107e-05
0.00011895
1.60011
-0.000198029
0.00037586
1.6002
-0.000372747
0.000676197
1.60038
-0.000639763
0.00105282
1.60074
-0.00106188
0.00153211
1.60135
-0.00148396
0.00198583
1.60195
-0.00109708
0.00191036
1.60216
-0.00318158
0.00475096
1.60579
-0.00623576
0.00507731
1.61117
-0.00811353
0.0056231
1.61428
-0.0059058
0.00587197
1.61407
-0.00209449
0.00507865
1.62277
-0.0110393
0.00445449
1.62531
-0.00370441
0.00222297
1.62246
0.00257464
0.000421977
1.61937
0.00354069
-0.000860606
1.61876
0.00202875
-0.00178726
1.61743
0.000609334
0.000355243
1.61608
0.00126011
-0.00014227
1.61514
0.000844179
7.19011e-05
1.6146
0.000274753
0.000446476
1.6143
-0.000146662
0.000789242
1.61414
-0.000400723
0.00105093
1.61404
-0.000539306
0.0012239
1.61392
-0.000612408
0.00137869
1.61376
-0.000633761
0.00148743
1.61369
-0.000615662
0.00140014
1.61359
-0.000568995
0.00137781
1.61346
-0.00050589
0.0013499
-0.000421848
0.0013618
1.60005
-0.000131167
0.000120894
1.60009
-0.000381599
0.000382964
1.60015
-0.000718793
0.000691367
1.60027
-0.00123745
0.00108231
1.60054
-0.00206482
0.00158768
1.6014
-0.00327187
0.00210559
1.60385
-0.00420181
0.00217394
1.60414
-0.0066823
0.0051163
1.60737
-0.0121867
0.00544302
1.61235
-0.0161366
0.00631559
1.61481
-0.0115442
0.00671005
1.6158
-0.00536818
0.00554767
1.62412
-0.0224014
0.00543799
1.62761
-0.00845672
0.00243862
1.625
0.00495994
0.000320631
1.62197
0.00701687
-0.000967276
1.62097
0.00465874
-0.00205371
1.61754
0.00346437
0.000158102
1.61579
0.00297496
-0.000187693
1.61485
0.001685
0.000122566
1.61434
0.000484232
0.000572795
1.61408
-0.000382355
0.000976177
1.61394
-0.000895997
0.00127903
1.61385
-0.0011826
0.00150132
1.61371
-0.00133048
0.00171353
1.61362
-0.00138517
0.00176343
1.61357
-0.00135745
0.00174551
1.61351
-0.00127048
0.00174382
1.61341
-0.00116313
0.00173637
-0.00102404
0.00175986
1.60004
-0.000184644
0.000125185
1.60005
-0.000535553
0.00039843
1.60004
-0.00100981
0.000723483
1.60004
-0.0017472
0.00114434
1.60013
-0.00294121
0.00171026
1.60053
-0.00479526
0.0024274
1.602
-0.00692749
0.00302813
1.6026
-0.0103945
0.00530066
1.60594
-0.0186202
0.00639457
1.61149
-0.0254826
0.00788045
1.61682
-0.0210197
0.00874602
1.6187
-0.010175
0.00731825
1.6279
-0.0355585
0.00701912
1.6292
-0.0111738
0.00289445
1.62558
0.00845412
0.000183112
1.6217
0.0114388
-0.0012243
1.61979
0.00798311
-0.00183377
1.61693
0.00626647
-0.000337037
1.61537
0.00460815
-0.000114271
1.6145
0.00239682
0.00047178
1.61411
0.000451387
0.00108417
1.61396
-0.000894885
0.00158775
1.6139
-0.00166555
0.00193464
1.61385
-0.00205885
0.00216773
1.61375
-0.00225085
0.00234176
1.61374
-0.00228702
0.00228552
1.61373
-0.00219945
0.00225514
1.61368
-0.00203477
0.00222715
1.61357
-0.00183206
0.00218595
-0.0014904
0.00220123
1.60002
-0.000224311
0.000137279
1.59998
-0.000646136
0.000413981
1.59987
-0.00122028
0.000768692
1.59969
-0.00212491
0.00123273
1.59951
-0.00361883
0.00187915
1.59947
-0.00605314
0.0027804
1.60004
-0.00929883
0.00390371
1.60038
-0.0140642
0.00604026
1.60357
-0.0257001
0.00811939
1.61003
-0.036957
0.0105227
1.61815
-0.0347635
0.0120381
1.62461
-0.0201937
0.00956658
1.63206
-0.0488311
0.0104296
1.63196
-0.012754
0.00377998
1.62659
0.0140574
-0.00016114
1.62145
0.0176483
-0.00195348
1.61883
0.0122073
-0.0020513
1.61624
0.00934687
-0.000758133
1.61474
0.00636924
1.37467e-05
1.61399
0.00303528
0.000921725
1.61375
0.000214526
0.00184581
1.6137
-0.00166933
0.00261903
1.61368
-0.00275202
0.00322949
1.61367
-0.00332402
0.00361138
1.61369
-0.00360863
0.00385174
1.61375
-0.00365555
0.00392771
1.61378
-0.00352735
0.00397857
1.61376
-0.00328461
0.00400102
1.61375
-0.00308068
0.00399345
-0.00276021
0.00400067
1.59998
-0.000246559
0.000165784
1.59989
-0.000701225
0.000423678
1.59965
-0.00132957
0.000818797
1.59926
-0.00232806
0.00134224
1.59869
-0.0040191
0.002093
1.59802
-0.0068791
0.00320903
1.59745
-0.0110392
0.00485046
1.59711
-0.0176142
0.00736633
1.59959
-0.0332899
0.0107317
1.6074
-0.0516243
0.0145684
1.6226
-0.0586149
0.0179085
1.65447
-0.0574895
0.0145086
1.64022
-0.0421842
0.0147588
1.6363
-0.0103573
0.00467051
1.62795
0.023367
-0.000861998
1.62101
0.0268373
-0.00327277
1.61751
0.0180365
-0.00255993
1.61508
0.0127934
-0.000788327
1.61379
0.00806729
0.000570653
1.61343
0.00334438
0.00175495
1.61357
-0.000317656
0.00280039
1.61379
-0.00251326
0.0035611
1.61387
-0.00361878
0.00407407
1.61402
-0.00415067
0.00422894
1.61417
-0.00431007
0.00431629
1.61427
-0.00417486
0.00434913
1.6143
-0.00385123
0.00436367
1.61426
-0.0034361
0.00436062
1.61415
-0.00308589
0.00437473
-0.00253519
0.0045617
1.59994
-0.000249361
0.00019497
1.59978
-0.00069717
0.000447597
1.59941
-0.00131433
0.000862528
1.59875
-0.00232519
0.00146403
1.59771
-0.0040622
0.00233781
1.59623
-0.00713212
0.0037026
1.59452
-0.0121246
0.00587738
1.59309
-0.0209823
0.00931342
1.59347
-0.0405504
0.0144613
1.60284
-0.0710348
0.0209094
1.64326
-0.113674
0.0282255
1.65803
-0.0816834
0.0242089
1.66524
-0.059861
0.0226535
1.64289
0.0107997
0.00662472
1.62973
0.0394902
-0.00217943
1.62094
0.0405288
-0.0056836
1.61603
0.027195
-0.00380309
1.61297
0.0179262
-0.000475472
1.6117
0.00994995
0.00255243
1.61168
0.0027174
0.00536384
1.61216
-0.00248084
0.0078045
1.61265
-0.00535858
0.00947493
1.61307
-0.0067586
0.0105094
1.61359
-0.00734465
0.0109501
1.61406
-0.00737935
0.0112646
1.61442
-0.00697656
0.0113729
1.61468
-0.00632382
0.0113273
1.61481
-0.0054899
0.0111506
1.61511
-0.00507055
0.0110153
-0.00399844
0.0106978
1.5999
-0.000232305
0.000212036
1.59964
-0.000630939
0.000504833
1.59914
-0.00117946
0.000904238
1.5982
-0.00207797
0.00156245
1.59663
-0.00369423
0.00259555
1.59417
-0.00666359
0.00423707
1.59097
-0.0122793
0.00703738
1.58658
-0.0223596
0.0117783
1.58234
-0.0459117
0.0195046
1.58834
-0.0925398
0.0306284
1.63191
-0.040498
0.0447024
-0.0531353
-0.037094
-0.0515659
1.66557
-0.0359263
0.0417901
-0.0327889
-0.0317163
-0.0308421
1.66005
-0.0152282
0.03545
-0.0197256
-0.0116379
-0.018475
1.64629
0.0047846
0.0119925
0.00602452
0.00755257
0.0071236
1.62897
0.0653261
-0.00151657
1.61966
0.0600737
-0.0059954
1.61434
0.0403508
-0.0036512
1.611
0.0271191
-0.000441421
1.61049
0.0152734
0.00259857
1.61138
0.00595157
0.00583338
1.61239
0.000371587
0.00861506
1.61326
-0.0019271
0.0104427
1.61395
-0.00228668
0.0115641
1.61453
-0.00166598
0.0123834
1.61483
-0.000413876
0.0132212
1.61485
0.00124123
0.0140054
1.61452
0.00309066
0.0148051
1.61392
0.00476365
0.0156233
1.6129
0.00622104
0.0167929
0.0078682
0.0183875
1.59987
-0.000197139
0.000228185
1.59951
-0.000508118
0.000565126
1.59884
-0.0009291
0.000977883
1.59768
-0.00161813
0.00163562
1.59555
-0.0028662
0.00281714
1.59192
-0.00524485
0.00471032
1.5859
-0.0102245
0.00825996
1.57707
-0.0203873
0.0144744
1.56385
-0.0460428
0.0257181
0.391373
-0.113042
0.0454401
0.387485
0.39192
0.388118
-0.0062215
0.395551
-0.0488392
0.0103867
-0.00802715
-0.406968
0.42036
-0.0538764
0.0126183
-0.0144873
-0.424285
0.42571
-0.01899
0.0168931
-0.0108243
-0.423058
0.41933
0.00684997
0.0125037
1.62071
0.123774
0.00786499
-0.412758
-0.413862
-0.413432
-0.413825
1.6123
0.0901401
0.00796677
1.60523
0.0591205
0.0185301
1.6019
0.0358822
0.0289737
1.6016
0.0170584
0.0388981
1.60092
0.00448376
0.0489032
1.5986
-0.00207648
0.0568834
1.59442
-0.00426678
0.0622907
1.58852
-0.00408768
0.0657131
1.58086
-0.00266493
0.0679019
1.57146
-0.000375738
0.0691005
1.56052
0.00244243
0.069337
1.54798
0.00554928
0.0688363
1.53489
0.00742963
0.0673931
1.51766
0.0122456
0.0670532
0.00861747
0.0629741
1.59985
-0.000147568
0.000239641
1.59942
-0.000341276
0.00060156
1.59859
-0.000587839
0.00106642
1.59718
-0.000980769
0.00175319
1.59461
-0.00169102
0.00300421
1.59009
-0.00304747
0.00504549
1.58137
-0.00595555
0.00926774
1.56555
-0.0124748
0.0167906
1.53388
-0.0319804
0.0323174
0.373954
-0.1045
0.0650013
0.36432
0.375248
0.366882
-0.0667868
0.0126872
-0.00404049
0.0541273
0.0947265
0.0946406
0.0937711
0.0948141
-0.000806756
-0.100312
0.0202428
0.106006
-0.0264104
0.00127404
-0.109466
-0.0107526
0.00710073
0.108913
-0.0066848
0.0109011
-0.106364
-0.0101459
-0.00235426
0.00328854
0.0105624
0.105003
1.43707
0.23365
0.0807383
-0.402384
-0.328715
-0.406474
-0.365652
1.39035
0.162557
0.0761615
1.34768
0.110784
0.0869792
1.30812
0.0733079
0.0947299
1.2706
0.0449127
0.0976856
1.23626
0.0235779
0.0957554
1.20788
0.00803937
0.0886289
1.18849
-0.00326777
0.077178
1.17867
-0.0112537
0.0641959
1.17774
-0.016455
0.0512467
1.1851
-0.0193999
0.0388108
1.19963
-0.0205175
0.0271247
1.21905
-0.0200693
0.0162558
1.24043
-0.0190129
0.00677663
1.2656
-0.0164301
-0.00239039
-0.0134903
-0.00995159
1.59985
-8.913e-05
0.000242882
1.5994
-0.000148575
0.000620905
1.59851
-0.000194328
0.00111001
1.59693
-0.000241728
0.00185485
1.59408
-0.000302803
0.00314133
1.58898
-0.000394886
0.00530593
1.57893
-0.000554792
0.00980692
1.55894
-0.000853552
0.0181626
1.50875
-0.00148798
0.035901
0.336815
-0.0030456
0.0800456
0.333937
0.335952
0.333895
-0.0444887
0.00703977
0.0125751
0.0675228
0.070707
0.0754968
0.0719073
0.0760338
0.00240207
0.00382608
-0.00586931
0.00677521
-0.00250169
-0.00110118
-0.00128966
-0.00111178
-0.00113038
-0.00693954
0.00141142
-0.00489779
0.0052008
0.00805957
-0.000652901
-0.000772906
-0.000729191
-0.000678944
-0.00433617
-0.00153005
-0.000502084
0.000631204
0.00189947
0.00386658
0.476567
-0.0439694
-0.183546
0.00723436
0.0108607
-0.0946639
-0.0386622
0.700772
-0.0769946
-0.151704
0.86541
-0.0856767
-0.12253
0.983203
-0.0855612
-0.102532
1.06885
-0.0831317
-0.0870004
1.13461
-0.0804712
-0.0774542
1.1871
-0.0777696
-0.0732086
1.23039
-0.0750109
-0.0725346
1.26688
-0.0717947
-0.0734311
1.29819
-0.0679951
-0.074897
1.32554
-0.0636604
-0.0766656
1.34982
-0.0588984
-0.0784828
1.37172
-0.05387
-0.0803142
1.39141
-0.0486515
-0.0813517
1.41069
-0.0443706
-0.0838233
-0.0357684
-0.0818902
1.59987
-2.85011e-05