/*--------------------------------*- C++ -*----------------------------------*\
| =========                 |                                                 |
| \\      /  F ield         | OpenFOAM: The Open Source CFD Toolbox           |
|  \\    /   O peration     | Version:  2512                                  |
|   \\  /    A nd           | Website:  www.openfoam.com                      |
|    \\/     M anipulation  |                                                 |
\*---------------------------------------------------------------------------*/
FoamFile
{
    version     2.0;
    format      ascii;
    arch        "LSB;label=32;scalar=64";
    class       surfaceScalarField;
    location    "220";
    object      phi;
}
// * * * * * * * * * * * * * * * * * * * * * * * * * * * * * * * * * * * * * //

dimensions      [0 3 -1 0 0 0 0];

oriented        oriented;

internalField   nonuniform List<scalar> 
278528
(
1.59955
0.000380825
9.04153e-05
1.59922
0.000135649
0.000214822
1.59923
-0.000332781
0.000345491
1.59976
-0.00102742
0.000517698
1.59983
-0.000789772
0.000731452
1.60005
-0.00117859
0.000975453
1.60055
-0.00208195
0.00159654
1.60401
-0.00519907
0.00176685
1.60797
-0.00609854
0.0021668
1.61961
-0.0138809
0.00227529
1.62666
-0.00909329
0.00207619
1.6246
0.000836496
0.00125398
1.63573
-0.0112666
0.000163729
1.63772
-0.000944807
-0.00102377
1.64018
-0.000614427
-0.00184712
1.64447
-0.00197359
-0.00230939
1.65016
-0.00331788
-0.00236229
1.65957
-0.00673287
-0.00267246
1.67097
-0.00847835
-0.00294236
1.68512
-0.0111495
-0.00304484
1.70219
-0.0141965
-0.00294315
1.72205
-0.0173864
-0.00253731
1.74405
-0.0205427
-0.00153044
1.76696
-0.0235186
0.000508529
1.78903
-0.0258492
0.00362519
1.80777
-0.0280293
0.00912838
1.82415
-0.0359585
0.0194102
1.85186
-0.0484658
0.020585
1.90284
-0.0583443
0.00720915
-0.053431
-0.0387535
1.6
0.000315316
9.07921e-05
1.59999
-5.56753e-05
0.000215421
1.60008
-0.000763823
0.000360137
1.60028
-0.00173513
0.000532766
1.60038
-0.0015908
0.000719307
1.60109
-0.00293131
0.001053
1.6007
-0.00348443
0.00180476
1.60367
-0.0101455
0.00199586
1.6088
-0.0136946
0.00250093
1.61972
-0.0274145
0.00265026
1.62751
-0.0193935
0.00254633
1.62567
0.00110669
0.00158566
1.63642
-0.0221531
0.000162104
1.6378
-0.00112384
-0.00118805
1.63982
-0.000536477
-0.00209451
1.6439
-0.00347263
-0.00256701
1.65016
-0.00696576
-0.00259353
1.65878
-0.012373
-0.00296889
1.66999
-0.0164416
-0.00326512
1.68404
-0.0218435
-0.003408
1.70106
-0.0279386
-0.00334724
1.72093
-0.034333
-0.00297368
1.74306
-0.0407851
-0.00195608
1.76625
-0.0470265
0.000219234
1.7886
-0.0522014
0.00385827
1.80848
-0.0593433
0.0112685
1.82719
-0.0765592
0.0217345
1.85541
-0.0970658
0.0202007
1.9018
-0.111383
0.0064893
-0.104048
-0.0343903
1.59998
0.00026059
9.33758e-05
1.59999
-0.000265406
0.000227773
1.59988
-0.00102318
0.000382997
1.59997
-0.00236839
0.000569315
1.5999
-0.00222964
0.000715256
1.59991
-0.00414157
0.00120994
1.60061
-0.00633102
0.00216309
1.60212
-0.0141298
0.00248219
1.60734
-0.0220904
0.00320709
1.61994
-0.0435833
0.0036115
1.62946
-0.0324796
0.00358848
1.62801
0.000300918
0.00226481
1.63792
-0.0320845
3.83891e-05
1.638
0.000479105
-0.00166656
1.63911
0.00109511
-0.00273049
1.64281
-0.00394793
-0.00320085
1.64873
-0.00973
-0.00313121
1.65719
-0.0171578
-0.00366859
1.66817
-0.0234581
-0.00397939
1.68206
-0.0315883
-0.00418941
1.69898
-0.0406956
-0.00422252
1.71885
-0.0502716
-0.003969
1.7412
-0.0602057
-0.00298428
1.76472
-0.0698596
-0.000782752
1.78789
-0.0787596
0.00325164
1.80991
-0.0937968
0.0122797
1.83215
-0.119651
0.0207045
1.86242
-0.142943
0.0154283
1.90558
-0.15788
0.00318944
-0.148069
-0.0319462
1.60002
0.000168318
9.68177e-05
1.5999
-0.000370688
0.000243651
1.59972
-0.00124029
0.000414002
1.59954
-0.00279165
0.000625976
1.59957
-0.00302132
0.000769434
1.59894
-0.0049068
0.00140272
1.598
-0.00806014
0.00267094
1.6
-0.0193789
0.00326978
1.60542
-0.0318759
0.00439237
1.62024
-0.0639867
0.00559387
1.63308
-0.0508613
0.00557282
1.63242
-0.00213327
0.00311103
1.64038
-0.0400922
6.58357e-05
1.63826
0.00521095
-0.0025893
1.63793
0.0053592
-0.00390042
1.64112
-0.00273586
-0.00436522
1.64669
-0.0110187
-0.00423926
1.65476
-0.0203347
-0.00486952
1.6654
-0.0288974
-0.00520856
1.67904
-0.0398189
-0.00545372
1.69578
-0.0519108
-0.00558081
1.71561
-0.0646569
-0.00548658
1.73806
-0.0780818
-0.0046355
1.76192
-0.0907126
-0.00310727
1.78659
-0.10434
0.000786834
1.81119
-0.127763
0.00923697
1.83649
-0.159348
0.0142492
1.86786
-0.18275
0.00827395
1.90739
-0.196745
-0.000808835
-0.184366
-0.0298093
1.60002
6.90756e-05
9.78679e-05
1.5998
-0.000384552
0.000262171
1.59956
-0.00144023
0.00045465
1.5992
-0.00310876
0.000700499
1.59995
-0.00463308
0.000864981
1.5985
-0.00491558
0.00146206
1.59713
-0.0100651
0.00338232
1.59672
-0.0234772
0.00452041
1.6034
-0.0451388
0.00657907
1.62068
-0.0904675
0.00927017
1.6396
-0.0789037
0.00916707
1.66001
-0.0271698
0.00467405
1.64396
-0.0234516
-0.000542426
1.63849
0.0152093
-0.00447006
1.63614
0.0139232
-0.00619774
1.63893
0.00123775
-0.00672551
1.64404
-0.00944357
-0.00665612
1.65159
-0.0203284
-0.00754426
1.66184
-0.0310606
-0.00809915
1.67516
-0.044687
-0.00850443
1.69159
-0.0595764
-0.00882906
1.71117
-0.0753259
-0.00897238
1.73361
-0.0918521
-0.00875695
1.75876
-0.107594
-0.00836551
1.78613
-0.127545
-0.00427658
1.81342
-0.158318
0.00315504
1.84057
-0.192094
0.00546156
1.87043
-0.21357
0.00080449
1.90326
-0.224832
-0.00487228
-0.210982
-0.0276712
1.6
-7.5237e-06
9.61561e-05
1.59987
-0.000511796
0.000279085
1.5993
-0.00133277
0.000489633
1.59847
-0.00305597
0.000793604
1.59838
-0.00556081
0.00102496
1.59951
-0.00704827
0.0010076
1.5962
-0.0107949
0.0040442
1.59417
-0.0283515
0.00690693
1.59883
-0.060242
0.0104951
1.60906
-0.116943
0.0162637
1.65143
-0.137598
0.0163683
1.65745
-0.040615
0.00749984
1.64882
-0.0127185
-0.00201799
1.63802
0.0335166
-0.00744983
1.63292
0.0287899
-0.00973581
1.63565
0.00889168
-0.0103463
1.64049
-0.00413315
-0.0101088
1.64728
-0.0160994
-0.0110036
1.65712
-0.0291847
-0.0117452
1.66996
-0.0450784
-0.0125173
1.68585
-0.0621268
-0.0134304
1.70532
-0.0803312
-0.0145617
1.72945
-0.0998407
-0.0162622
1.75831
-0.120218
-0.0163466
1.7882
-0.146701
-0.0108238
1.81469
-0.180631
-0.00426954
1.83703
-0.211756
-0.00279477
1.85804
-0.229346
-0.00536547
1.87955
-0.238052
-0.00840976
-0.227637
-0.0252736
1.60008
-0.000155748
9.37475e-05
1.59982
-0.000502339
0.000271365
1.59943
-0.00135326
0.000426014
1.59836
-0.00278946
0.000825369
1.5965
-0.00517206
0.00148324
1.59681
-0.00848298
0.00113248
1.59471
-0.0123741
0.00369529
1.5862
-0.0300825
0.0102673
1.58448
-0.0758966
0.0173354
1.60904
-0.0338316
0.0295831
-0.0455626
-0.0397419
-0.0519372
1.67103
-0.0638922
0.0303887
-0.0441584
-0.0704533
-0.0514185
1.67604
-0.0180252
0.0128316
-0.00542214
-0.021491
-0.0134468
1.65629
0.00839545
-0.00486357
0.00791622
0.000322374
-0.00470773
1.63679
0.0187347
-0.0127363
0.020992
0.0119044
0.0141661
1.62848
0.0541563
-0.017085
1.62905
0.0268629
-0.018532
1.63506
0.00890854
-0.0190272
1.64105
-0.00230148
-0.0197957
1.65053
-0.0180624
-0.0206573
1.66304
-0.0356676
-0.0220332
1.67937
-0.054485
-0.0240806
1.70122
-0.075574
-0.0267143
1.72935
-0.0994523
-0.0286325
1.75851
-0.125217
-0.0242481
1.77954
-0.153569
-0.0142367
1.79049
-0.18339
-0.00828448
1.79664
-0.210809
-0.00721092
1.80546
-0.229466
-0.00881879
1.82203
-0.243592
-0.0111379
-0.242671
-0.0224495
1.59994
-0.000164266
9.09736e-05
1.59995
-0.000696599
0.000208891
1.59992
-0.00121779
-8.71814e-05
1.59907
-0.00230801
0.000388458
1.59551
-0.00417099
0.00257581
1.59181
-0.00717519
0.00240368
1.5879
-0.0123361
0.00389937
1.57012
-0.0264479
0.0141422
0.390769
-0.0148242
0.028704
0.387012
0.389182
0.385488
-0.0261263
-0.0172966
-0.0286789
0.393744
-0.0411424
0.00431636
0.415803
-0.0835595
0.00667192
-0.402823
-0.425866
0.434528
-0.0305354
0.00382417
-0.431963
0.428531
0.013637
-0.00183386
-0.420071
0.41476
0.0287744
-0.00472092
1.62467
0.10745
-0.0426387
-0.408934
-0.409849
-0.408356
-0.408209
1.62592
0.0713769
-0.0457586
1.62743
0.0550845
-0.0476595
1.63302
0.0410428
-0.0489423
1.64174
0.0224607
-0.0492949
1.654
0.0010583
-0.0490901
1.67138
-0.0241814
-0.0477679
1.69294
-0.0531003
-0.0441269
1.71249
-0.0835051
-0.0355965
1.71772
-0.11116
-0.0193611
1.70562
-0.137059
-0.00449671
1.69222
-0.168184
-0.00190192
1.69394
-0.206438
-0.00620169
1.71437
-0.239089
-0.0109191
1.75172
-0.266214
-0.0148233
-0.268573
-0.0204637
1.59988
-0.000115125
8.99889e-05
1.5996
-0.000600601
0.000212329
1.59982
-0.00118124
-0.000236547
1.59972
-0.00188347
-0.000301069
1.59568
-0.00257237
0.00246009
1.58921
-0.00490139
0.00422188
1.58048
-0.00940258
0.00580969
0.390051
-0.0175694
0.0181765
0.388718
0.387985
0.38668
0.385187
-0.0131649
0.00318525
0.376102
-0.0588192
0.0117587
0.0493755
-0.378596
0.426872
0.026202
-0.395341
0.118206
-0.050289
-0.038794
-0.0485364
-0.0384157
0.453225
-0.451792
0.041724
-0.0120517
-0.0174727
-0.0205697
-0.01082
0.00714288
0.00202264
0.00191121
0.00681003
-0.443583
0.437613
-0.0164018
0.00663568
0.0046015
0.00438966
0.00768984
0.00195124
-0.00264197
-0.00319631
0.00317182
-0.429004
0.417267
-0.0391182
0.0142768
0.0141201
0.0153528
0.014313
-0.00304901
-0.000363821
-0.000604967
-0.00321673
1.60673
0.19554
-0.0864561
-0.406809
-0.404977
-0.402206
-0.394464
1.61237
0.148204
-0.0824718
1.61539
0.125641
-0.0735525
1.62106
0.100499
-0.0651238
1.62755
0.0718854
-0.0559692
1.63209
0.0416115
-0.0451955
1.63046
0.0096918
-0.032329
1.61851
-0.0230371
-0.0181892
1.59115
-0.0538014
-0.00242178
1.54951
-0.0835934
0.0140009
1.5209
-0.125718
0.0171827
1.53602
-0.185802
0.00241171
1.59077
-0.247343
-0.0139541
1.65962
-0.287096
-0.020957
1.72837
-0.312292
-0.0227553
-0.299937
-0.020386
1.59987
-5.00563e-05
9.04562e-05
1.59941
-0.000402584
0.000279245
1.59881
-0.000805149
0.000251865
1.59842
-0.00125965
-0.000216307
1.59601
-0.00174129
0.00160696
1.58839
-0.0021967
0.00493628
1.57401
-0.00222376
0.00721787
0.386187
-0.000269065
0.01978
0.385144
0.383418
0.382188
0.375132
-0.00414972
0.00482341
0.010346
0.0112413
-0.0902706
0.0874452
-0.00978452
0.00130939
0.0586157
-0.0874268
0.0720058
0.012812
-0.0161126
-0.0140141
-0.013654
-0.0122675
0.0530012
-0.0452029
0.0502887
-0.0803427
0.00521008
0.00582889
0.00550249
0.00573478
-0.0476361
0.0170747
0.0508119
-0.0325373
0.00276453
0.00320591
0.00353438
0.00274557
-0.0790788
-0.0131294
0.000457616
0.00446973
0.0872898
1.22675
0.136075
-0.00588648
-0.335946
-0.255327
-0.314591
-0.255719
1.26739
0.143063
-0.0355226
1.29447
0.134863
-0.0362853
1.31029
0.115149
-0.030489
1.31198
0.0912887
-0.0211842
1.29982
0.0650897
-0.0114625
1.27663
0.036348
-0.00357357
1.24849
0.00327406
0.00173109
1.23662
-0.0435111
0.00149614
1.2741
-0.11262
-0.00850883
1.37125
-0.195521
-0.0274001
1.49735
-0.269702
-0.0422647
1.61362
-0.319077
-0.0446174
1.70243
-0.338057
-0.0379566
1.76618
-0.345211
-0.0309101
-0.315657
-0.0201766
1.59987
1.49128e-05
8.93498e-05
1.59941
-0.000197761
0.000277241
1.5988
-0.000417566
0.000248229
1.59841
-0.000623724
-0.000221099
1.59603
-0.000929648
0.00159173
1.58855
0.000414842
0.00489623
1.57488
0.00440057
0.00705678
0.385757
0.0148054
0.0189937
0.38742
0.382891
0.384751
-0.000987672
0.376273
0.00561093
0.00485649
-0.00197345
-0.0892821
0.0826279
0.00687921
0.00179485
0.0335614
-0.0264249
0.0658376
0.0205893
-0.0181073
-0.0288927
-0.0199655
-0.0267054
0.0239329
-0.066196
0.0623127
-0.0164708
-0.00366366
-0.0618774
0.0142712
-0.0141572
0.000125108
0.0616604
0.829519
0.0991101
-0.00323258
-0.192677
-0.167256
-0.210317
-0.219211
0.880071
0.118192
-0.0257178
0.930769
0.112276
-0.0281206
0.972331
0.103944
-0.0303976
1.00304
0.0919966
-0.0315358
1.03062
0.0714591
-0.034116
1.06525
0.0417867
-0.040197
1.12199
-0.00230568
-0.0512502
1.22012
-0.0746353
-0.0670575
1.35776
-0.170922
-0.0793616
1.50403
-0.260101
-0.0817121
1.6281
-0.319709
-0.0741115
1.71772
-0.348316
-0.0604555
1.77546
-0.350779
-0.0451105
1.8099
-0.3463
-0.0334248
-0.31053
-0.01781
1.59989
6.40665e-05
8.66902e-05
1.59959
-8.05176e-05
0.000206105
1.59979
-0.000342584
-0.000247419
1.59966
-0.0001527
-0.000323209
1.59572
0.000641205
0.00240079
1.58952
0.00255998
0.00408649
1.58235
0.00620946
0.00538183
0.390575
0.0196112
0.0162857
0.391987
0.388664
0.390023
-0.0102889
0.38576
0.0115477
0.00357429
-0.011769
0.0497286
0.0107853
-0.0160878
-0.0137991
-0.0186838
0.0956903
0.0937675
0.0949008
0.0966811
-0.381
-0.0147647
-0.106342
0.105815
0.00142547
0.0140297
-0.0252215
-0.105473
0.103324
0.0114809
0.0157346
-0.0132171
-0.0677201
0.0592723
0.0103399
0.0113414
-0.00385542
-0.0398252
0.00138187
0.0382213
0.00407835
1.06855
-0.0267437
0.106106
-0.18889
-0.336422
-0.186102
-0.33748
1.06201
0.0208202
0.103886
1.05496
0.0239273
0.0953811
1.06157
0.0160734
0.0812091
1.08207
0.0043489
0.0670373
1.1198
-0.0173789
0.0509475
1.1805
-0.0515212
0.0324914
1.27274
-0.101598
0.00697776
1.39834
-0.167463
-0.0328183
1.53343
-0.238101
-0.0679313
1.64824
-0.294508
-0.0804124
1.73165
-0.327896
-0.0752545
1.78556
-0.340651
-0.0616388
1.81582
-0.335496
-0.0456267
1.82925
-0.326717
-0.033085
-0.291754
-0.014318
1.59995
5.67887e-05
8.56161e-05
1.59993
-0.000237392
0.000198834
1.59986
-0.000140398
-0.000107594
1.59897
0.000417438
0.000347932
1.59542
0.00172418
0.00249439
1.5921
0.00370186
0.00221124
1.58948
0.00552534
0.00332923
1.57714
0.0196497
0.0123568
0.392018
0.0548486
0.0212838
-0.0120647
-0.0203372
-0.0139825
-0.0222444
0.394264
0.390598
0.392832
-0.0373154
0.395508
0.0292675
0.00474615
-0.0506498
0.410398
0.0430233
0.00310533
-0.40565
-0.0245785
-0.415569
0.421762
0.0175769
0.000679572
5.46805e-05
-0.420451
0.422455
-0.00256408
0.00049225
0.0214575
-0.421737
0.416565
-0.0181798
0.00173781
1.61481
-0.0401476
0.0308569
-0.410652
-0.406986
-0.409663
-0.404976
1.60984
-0.0191454
0.0449278
1.6013
-0.017531
0.049992
1.59891
-0.030621
0.0490489
1.60378
-0.045861
0.0452521
1.61392
-0.0663005
0.038659
1.62747
-0.0939366
0.0287609
1.64166
-0.126749
0.0109096
1.66397
-0.162987
-0.0268275
1.70256
-0.21197
-0.0647396
1.74732
-0.260354
-0.0789356
1.78688
-0.292252
-0.0752343
1.81488
-0.306352
-0.0623543
1.82878
-0.303397
-0.0460818
1.83073
-0.29576
-0.0329719
-0.264885
-0.0109569
1.60008
-8.79414e-05
8.66783e-05
1.59979
-0.000174194
0.000257357
1.59932
-4.77216e-05
0.000401974
1.59814
0.000838226
0.000780438
1.59623
0.00227816
0.00139215
1.59671
0.00233383
0.00092387
1.59531
0.003829
0.00313276
1.58887
0.0173516
0.00878748
1.58922
0.0413439
0.013238
1.60288
0.0782505
0.0182782
-0.0231082
-0.0268843
-0.0277922
-0.0321721
1.6364
0.0801509
0.0135336
-0.0367026
-0.0206509
-0.0425403
-0.0271908
1.64427
0.0151075
0.01162
-0.0077613
-0.00610551
-0.00925422
-0.0115389
1.63417
0.013814
0.0061699
0.00238104
0.00130981
-0.00343441
-0.0102405
1.61554
-0.0340762
0.00419026
0.0127118
0.0178893
0.00637865
0.011519
1.60565
-0.0373293
0.0070567
1.6049
-0.0267976
0.00839405
1.60804
-0.0286156
0.00794564
1.60909
-0.0373918
0.00570222
1.61177
-0.0511044
0.00247512
1.61568
-0.067869
-0.00246751
1.62017
-0.0894238
-0.00909652
1.62553
-0.114112
-0.018049
1.64393
-0.139841
-0.0415855
1.68614
-0.179137
-0.0750787
1.73643
-0.223375
-0.0872802
1.78058
-0.255174
-0.0812592
1.81044
-0.270033
-0.0662301
1.82303
-0.267997
-0.0480637
1.82191
-0.261085
-0.0336227
-0.233756
-0.0080004
1.60001
-0.000157775
8.73466e-05
1.59982
-0.000225407
0.000263221
1.59912
0.000209476
0.000462666
1.59813
0.00111536
0.000744637
1.59786
0.0016518
0.000929069
1.59886
0.000568979
0.000800956
1.59555
0.00360254
0.0035798
1.59354
0.0135746
0.00583612
1.59735
0.0293645
0.00823585
1.60047
0.0639564
0.0112445
1.62741
0.043966
0.00929784
1.63087
0.00527791
0.00637673
1.62623
0.01548
0.00296217
1.61521
-0.0236719
0.000583818
1.60715
-0.0302536
0.000977587
1.60581
-0.0273073
0.00186645
1.60514
-0.0302898
0.00234334
1.60473
-0.0374296
0.000430274
1.60562
-0.0497051
-0.00237583
1.6081
-0.0638179
-0.00665376
1.61188
-0.0811107
-0.0121776
1.61721
-0.1004
-0.0190918
1.63549
-0.118963
-0.0392064
1.67906
-0.149008
-0.0737264
1.73233
-0.187316
-0.0893491
1.77796
-0.216537
-0.0842921
1.80705
-0.230323
-0.0688422
1.81755
-0.229088
-0.0494669
1.81317
-0.222793
-0.0339637
-0.198908
-0.00513927
1.60002
-0.000245731
8.8085e-05
1.59972
-0.000144559
0.00024461
1.59933
0.00019984
0.000425105
1.59873
0.0010965
0.000649048
1.59917
0.000472421
0.000771744
1.59732
0.00117089
0.00128115
1.5954
0.00254023
0.00302229
1.59408
0.0111336
0.00380145
1.59877
0.0194988
0.00522604
1.6105
0.0454337
0.00684526
1.62015
0.0280235
0.00632634
1.63625
-0.0153039
0.00450264
1.62047
0.0286359
0.00262543
1.61336
-0.0171277
0.000555779
1.60694
-0.0237275
-8.99494e-05
1.60415
-0.0243161
-0.000189584
1.60221
-0.0277317
-0.000603472
1.60109
-0.0333166
-0.00301434
1.60092
-0.0434363
-0.00618678
1.60245
-0.0547683
-0.0107027
1.60572
-0.068138
-0.0163182
1.61091
-0.0827769
-0.0228641
1.62862
-0.0956043
-0.0411027
1.67204
-0.117107
-0.0753468
1.72711
-0.148483
-0.093913
1.77412
-0.174266
-0.0892986
1.80339
-0.186862
-0.072754
1.81197
-0.186143
-0.0515674
1.80438
-0.180691
-0.0345509
-0.160901
-0.00253839
1.60001
-0.000322412
8.62077e-05
1.5998
-0.000137082
0.000224726
1.59944
0.000209036
0.000383087
1.59895
0.00103688
0.000574564
1.59855
0.000222715
0.000681376
1.5973
0.00119822
0.00124826
1.59547
0.00201845
0.00239221
1.59604
0.00782066
0.00277687
1.59901
0.0130008
0.00357111
1.60927
0.030843
0.0043566
1.61568
0.0173199
0.00432139
1.61071
-0.0134023
0.00309048
1.61633
0.0213018
0.00172225
1.61114
-0.0119855
6.49725e-05
1.60579
-0.01743
-0.000930907
1.60237
-0.0192658
-0.00160018
1.59968
-0.0226359
-0.00239287
1.59781
-0.0266472
-0.00482951
1.5968
-0.0344849
-0.00803068
1.59758
-0.0430763
-0.0125842
1.60056
-0.052891
-0.0182954
1.60595
-0.0634409
-0.0247557
1.62338
-0.0716232
-0.0414543
1.66629
-0.085051
-0.0749976
1.72261
-0.108257
-0.0965574
1.77078
-0.129359
-0.0930747
1.79992
-0.140234
-0.0757753
1.80674
-0.140052
-0.0529288
1.79639
-0.135872
-0.0344953
-0.120533
0.000265933
1.59998
-0.000357693
8.21274e-05
1.59987
-0.000219399
0.000207904
1.59955
0.000205335
0.000351192
1.59927
0.000819532
0.000518159
1.59868
0.000208535
0.000632732
1.59793
0.000905674
0.00107526
1.5975
0.000543773
0.00194192
1.59733
0.00589511
0.0021286
1.59994
0.00773172
0.00268488
1.60851
0.0193609
0.00292597
1.6129
0.00997897
0.00297394
1.60707
-0.00982167
0.00226737
1.61335
0.0141278
0.000907838
1.6093
-0.00761925
-0.00029148
1.6047
-0.0114436
-0.00135446
1.60102
-0.0132338
-0.00231391
1.59778
-0.0159919
-0.00338727
1.59533
-0.0183506
-0.00588577
1.59375
-0.0237897
-0.00920612
1.59406
-0.0295857
-0.0138986
1.597
-0.0360363
-0.0198502
1.6028
-0.0427846
-0.0264927
1.62009
-0.0472564
-0.0416837
1.66223
-0.0539029
-0.0733021
1.71921
-0.0684974
-0.0967303
1.76819
-0.0835491
-0.0947704
1.79708
-0.0918867
-0.0772326
1.80218
-0.092123
-0.0530275
1.7893
-0.0896048
-0.0333972
-0.0790005
0.00346463
1.59999
-0.000399868
7.91881e-05
1.59987
-0.000272473
0.000195059
1.59971
5.16482e-05
0.000327881
1.59951
0.000564253
0.000482122
1.59902
8.89196e-05
0.000640826
1.59887
0.000152066
0.000931539
1.59723
0.000596101
0.0016194
1.59837
0.00307016
0.00172273
1.60084
0.00315558
0.00213464
1.60802
0.00997413
0.00222239
1.61125
0.00456279
0.0022062
1.60502
-0.00517403
0.00160132
1.61146
0.00705029
0.000645866
1.60804
-0.00370939
-0.000470749
1.60384
-0.0056723
-0.00155242
1.60001
-0.00672051
-0.00267118
1.59652
-0.00854905
-0.00396978
1.59361
-0.00911134
-0.00641287
1.59168
-0.0121686
-0.00983581
1.59172
-0.0151353
-0.0146399
1.59473
-0.0183323
-0.0207929
1.60099
-0.0215415
-0.0275314
1.61831
-0.0234009
-0.0412019
1.65987
-0.0256753
-0.0698164
1.71721
-0.0321478
-0.0936762
1.76668
-0.0398429
-0.0931412
1.79514
-0.0444
-0.0759212
1.79858
-0.0446068
-0.0509325
1.78358
-0.0438579
-0.0307534
-0.0379203
0.00747022
1.59954
7.81449e-05
1.59908
0.000193689
1.59884
0.000312537
1.59895
0.000467034
1.5984
0.000655223
1.59771
0.000861616
1.59689
0.00143044
1.59845
0.00153549
1.59974
0.00187695
1.60776
0.0019665
1.61046
0.00186688
1.60399
0.00130581
1.61053
0.000524694
1.60738
-0.000547423
1.60335
-0.0016324
1.59946
-0.00282378
1.59512
-0.00423638
1.59268
-0.00671559
1.59065
-0.0102238
1.59058
-0.0151378
1.59369
-0.0214758
1.60022
-0.028076
1.61785
-0.0410455
1.66004
-0.0678612
1.7181
-0.0901911
1.76771
-0.0894345
1.7952
-0.071873
1.79683
-0.0462286
1.77969
-0.0267208
0.012828
1.59965
0.000326497
0.000127874
1.59939
0.000109241
0.000381936
1.59942
-0.000329726
0.000663952
1.59962
-0.000644525
0.000982577
1.60052
-0.00167925
0.00152104
1.60132
-0.00186116
0.00205532
1.60254
-0.00235409
0.00274028
1.60642
-0.00557649
0.00348438
1.61055
-0.00606238
0.00412765
1.61575
-0.00724077
0.00434827
1.62401
-0.0100807
0.00392964
1.62108
0.00219277
0.00201463
1.6304
-0.0097806
0.000657941
1.63564
-0.00445655
-0.00178832
1.63798
-0.000761672
-0.0034246
1.64239
-0.00214526
-0.00456841
1.65122
-0.00546675
-0.00571688
1.66098
-0.00828763
-0.00414234
1.67266
-0.0092261
-0.0054167
1.68711
-0.0117581
-0.00578768
1.70456
-0.014872
-0.00559699
1.72479
-0.0180935
-0.00473956
1.74726
-0.0213333
-0.00273716
1.77113
-0.0242454
0.000796159
1.79538
-0.0275733
0.00684667
1.82619
-0.0400118
0.0182338
1.87873
-0.0623882
0.0291728
1.95645
-0.0744941
0.017274
2.04791
-0.0697739
-0.0145342
-0.0511022
-0.0640877
1.60004
0.000259156
0.000130572
1.60008
-8.27377e-05
0.000391191
1.60021
-0.000758698
0.000680876
1.6003
-0.00115746
0.00096806
1.60054
-0.00283942
0.00165548
1.60139
-0.00384234
0.00219368
1.6028
-0.00493188
0.00298486
1.6061
-0.0107503
0.00389029
1.61135
-0.0135244
0.00474715
1.61824
-0.0166118
0.00516627
1.62476
-0.0188047
0.00478295
1.62251
0.00390098
0.00215129
1.63095
-0.0191886
0.00114928
1.63704
-0.00970873
-0.00200771
1.63969
-0.00168502
-0.00381412
1.64432
-0.00447813
-0.00484796
1.65281
-0.0103569
-0.00617755
1.66033
-0.0141079
-0.00466791
1.67144
-0.0176937
-0.00592903
1.68572
-0.0231452
-0.00634955
1.70302
-0.0293533
-0.00624098
1.72319
-0.0358173
-0.00547549
1.74586
-0.0425328
-0.00348649
1.77042
-0.0487778
0.000112798
1.79758
-0.0580644
0.00709692
1.83342
-0.0851606
0.0204935
1.88381
-0.122142
0.0310183
1.94943
-0.138223
0.0182276
2.02636
-0.129117
-0.0111696
-0.100057
-0.0571666
1.6
0.000229507
0.000135542
1.60008
-0.000319769
0.000408863
1.60002
-0.00101627
0.0007156
1.60006
-0.00156969
0.000956056
1.59998
-0.00391911
0.00189434
1.6003
-0.00541221
0.00246706
1.60297
-0.00890283
0.00347895
1.60478
-0.0148036
0.00473479
1.61011
-0.0216806
0.00606842
1.6179
-0.0277042
0.00694889
1.61905
-0.0229652
0.00662423
1.62501
-0.00283738
0.00305937
1.63341
-0.0288827
0.00134962
1.63701
-0.0121128
-0.00284954
1.6388
-0.00128426
-0.0049081
1.64294
-0.00599535
-0.00579256
1.65061
-0.0144578
-0.00667835
1.65854
-0.019524
-0.00617693
1.66961
-0.0256058
-0.00715767
1.68371
-0.033895
-0.00758555
1.70089
-0.0431758
-0.00763799
1.72114
-0.052991
-0.0070922
1.74442
-0.0635462
-0.00528969
1.77011
-0.0731328
-0.00218603
1.80284
-0.0933413
0.00571907
1.84524
-0.135746
0.0203905
1.89391
-0.17734
0.0271703
1.94749
-0.188962
0.0125052
2.01004
-0.176975
-0.0115696
-0.142991
-0.0516245
1.60004
0.000162377
0.000142544
1.59997
-0.000426204
0.000433712
1.59988
-0.00125907
0.000766364
1.59991
-0.00196181
0.00101074
1.59954
-0.00494117
0.00217193
1.59915
-0.00650635
0.00288567
1.60018
-0.0115225
0.00426779
1.60273
-0.0202114
0.00614638
1.60818
-0.0311231
0.00841299
1.61836
-0.042335
0.0100818
1.62738
-0.0364107
0.0100174
1.63028
-0.00634204
0.00374255
1.63532
-0.0360876
0.00225186
1.63716
-0.0122229
-0.00430002
1.63756
0.00138616
-0.006947
1.64116
-0.0062217
-0.00769414
1.64822
-0.0175721
-0.00815488
1.65611
-0.0239758
-0.00829724
1.66687
-0.032462
-0.00911612
1.68068
-0.0435762
-0.00963137
1.69766
-0.055854
-0.00994231
1.71791
-0.0690734
-0.00968911
1.74148
-0.0830796
-0.00872471
1.7702
-0.0978963
-0.00712493
1.80851
-0.131726
0.000805626
1.85245
-0.184415
0.0139083
1.89546
-0.222883
0.0167165
1.9395
-0.229006
0.00420426
1.99073
-0.215793
-0.013294
-0.179515
-0.0466649
1.60004
8.81976e-05
0.000150855
1.5999
-0.000468771
0.00046377
1.59977
-0.00148693
0.000829947
1.60014
-0.00273154
0.00111446
1.59632
-0.00150332
0.00126124
1.59781
-0.0112245
0.00468571
1.59805
-0.013778
0.00540181
1.59921
-0.0251513
0.00832245
1.60551
-0.0431207
0.0122974
1.6211
-0.0643131
0.0156833
1.63774
-0.0602923
0.0164414
1.65932
-0.0288648
0.00568668
1.63999
-0.0191914
0.00196596
1.63749
-0.00668426
-0.00746202
1.63575
0.00738047
-0.0104162
1.63892
-0.00517315
-0.010898
1.6452
-0.0194657
-0.0110075
1.65283
-0.0275067
-0.0116275
1.6632
-0.038379
-0.0125602
1.67665
-0.0522111
-0.0133836
1.69336
-0.0672917
-0.0141694
1.71395
-0.0841233
-0.0145827
1.73847
-0.100913
-0.0155128
1.77136
-0.123466
-0.0157405
1.81211
-0.16935
-0.00744461
1.85197
-0.224668
0.00349993
1.8879
-0.257412
0.0040067
1.92388
-0.259903
-0.0043498
1.96506
-0.246229
-0.0156781
-0.209371
-0.041898
1.60011
-7.07597e-05
0.000159981
1.5999
-0.000437573
0.000480819
1.59949
-0.00143632
0.000869765
1.59927
-0.00300286
0.00129473
1.60225
-0.0040845
0.000633703
1.59619
-0.0105399
0.00639004
1.59524
-0.0157178
0.00694211
1.59453
-0.0290092
0.011493
1.60006
-0.0567509
0.0185861
1.6223
-0.0964324
0.0261855
1.66028
-0.110459
0.0286563
1.65889
-0.0290282
0.00914464
1.65989
-0.0226838
0.000537375
1.63801
0.0208421
-0.0130236
1.6332
0.0183363
-0.0158693
1.63661
-0.00365383
-0.0152457
1.64171
-0.0200448
-0.0146023
1.64861
-0.0301984
-0.0152154
1.65858
-0.0438635
-0.0162737
1.67177
-0.060439
-0.0175639
1.68894
-0.0787197
-0.0192787
1.70971
-0.0981754
-0.0213725
1.73722
-0.119483
-0.0252834
1.772
-0.148656
-0.0259831
1.80855
-0.199799
-0.0169633
1.84063
-0.252196
-0.00886017
1.86929
-0.280852
-0.00806475
1.89765
-0.281764
-0.0119273
1.92971
-0.26854
-0.0182196
-0.23289
-0.037165
1.59995
-7.8424e-05
0.000161971
1.60007
-0.000751466
0.000487496
1.59969
-0.0011766
0.000573259
1.59907
-0.00279428
0.00124634
1.59903
-0.0045857
0.00203921
1.59275
-0.00872322
0.00560153
1.58743
-0.0167497
0.0100707
1.58508
-0.0323566
0.015955
1.59298
-0.076199
0.0289373
1.61223
-0.0330582
0.0453616
-0.0387002
-0.0307396
-0.0288316
1.66144
-0.0549634
0.0520238
-0.0434569
-0.0436931
-0.0391088
1.66077
-0.0120213
0.0163312
-0.00630247
-0.00783241
-0.00557676
1.6477
0.0042707
-0.00478821
-0.00513143
0.0027065
-0.0114219
1.63259
0.0137685
-0.0237684
0.0145861
0.0102665
0.00843456
1.62862
0.0321502
-0.0269175
1.63258
-0.000801365
-0.0253314
1.63689
-0.0188632
-0.0244985
1.64354
-0.0314559
-0.0251968
1.65413
-0.0488865
-0.0262906
1.66864
-0.0689491
-0.0281433
1.68606
-0.0896574
-0.0306708
1.70763
-0.112661
-0.0338911
1.73292
-0.136147
-0.0373371
1.75992
-0.165117
-0.0348391
1.7859
-0.214341
-0.025702
1.81058
-0.264665
-0.0205425
1.83434
-0.293711
-0.0181607
1.85805
-0.29609
-0.0182533
1.88442
-0.285282
-0.0208238
-0.251938
-0.0324356
1.59999
-0.000117723
0.000159161
1.59977
-0.000617989
0.000315602
1.59928
-0.00165729
0.000900619
1.598
-0.00259842
0.00149472
1.59759
-0.00304463
0.00145537
1.59276
-0.00768598
0.00621229
1.58172
-0.0149652
0.0131761
1.57468
-0.0328549
0.0217086
0.391077
-0.0161729
0.0465946
0.388212
0.392827
0.38982
-0.0255415
-0.0159628
-0.0236331
-0.0107018
0.393233
-0.0393783
0.0148872
-0.0154145
0.412627
-0.0700561
0.0202463
-0.402313
-0.00742256
-0.421948
0.427583
-0.018325
0.00806705
0.000527456
-0.425155
0.422548
0.00757592
-0.00125144
0.00662908
-0.418049
0.413425
0.0207606
-0.0089795
1.62181
0.0535999
-0.0553746
-0.407924
-0.407528
-0.407824
-0.407253
1.62388
0.00168822
-0.0503127
1.62669
-0.0201586
-0.0491597
1.63419
-0.0380739
-0.0498384
1.64311
-0.0579912
-0.0491766
1.65178
-0.0783374
-0.0484926
1.65941
-0.099167
-0.0459757
1.66556
-0.121018
-0.0419901
1.67274
-0.140591
-0.03839
1.68815
-0.164808
-0.0351261
1.71669
-0.215442
-0.0319707
1.752
-0.271424
-0.0304975
1.78441
-0.304866
-0.0275061
1.8121
-0.309878
-0.0248748
1.83825
-0.301858
-0.0244516
-0.268845
-0.0284169
1.59993
-0.000107197
0.000166278
1.59982
-0.000553144
0.000280492
1.5986
-0.00118716
0.000532808
1.59506
-0.00217166
0.00282641
1.59583
-0.00306811
0.00173781
1.59029
-0.00436712
0.0064623
1.57705
-0.00937075
0.0134761
0.388991
-0.0205661
0.0299271
0.38727
0.389716
0.38705
-0.00770187
0.384634
-0.0147791
0.0106622
0.376689
-0.0497652
0.0289446
-0.0216054
0.045592
-0.379893
0.049622
-0.0450569
-0.395882
0.0899166
0.1062
0.104763
0.105585
0.105055
-0.0245884
-0.0336599
-0.0306118
-0.0311634
-0.00275776
-0.108528
0.00758126
0.111625
-0.00920591
0.00128547
-0.108904
0.00147555
-0.00324534
0.107646
0.00470823
-0.00166704
-0.10471
0.00519772
-0.00757658
0.00874682
-0.00589786
0.104245
1.55228
0.0719509
-0.09986
-0.39973
-0.389711
-0.401437
-0.366332
1.54434
0.00714089
-0.0799747
1.53248
-0.016377
-0.0654588
1.5176
-0.0336784
-0.0546525
1.49841
-0.0524624
-0.0423894
1.47796
-0.071913
-0.0312838
1.45982
-0.0930296
-0.0203967
1.44816
-0.11596
-0.0116379
1.46039
-0.140154
-0.0151384
1.51896
-0.181177
-0.0282282
1.60943
-0.246241
-0.0425194
1.69042
-0.302689
-0.047357
1.74501
-0.330338
-0.0431223
1.78037
-0.330391
-0.0358673
1.80574
-0.319713
-0.0303132
-0.282445
-0.0256236
1.59989
-6.43774e-05
0.000176675
1.59958
-0.000425628
0.00047952
1.5995
-0.000839129
7.89756e-06
1.59693
-0.00131021
0.00150845
1.5945
-0.00182739
0.00282183
1.59036
-0.00235293
0.00708849
1.57807
-0.00255826
0.0127141
0.386176
-0.00116
0.0344611
0.385919
0.385256
0.386633
0.374957
-0.00545509
0.0144058
-0.0100744
0.0123389
-0.00788043
0.0108408
-0.0899907
0.0872218
-0.00984812
0.00963207
-0.00740907
0.0129239
-0.0235988
0.0257049
-0.0150797
0.00748579
0.00210761
-0.000103984
-0.00759995
0.00838036
-0.00223587
-9.29659e-05
-0.000234539
-0.000156271
-7.15869e-05
0.00116044
-0.000659356
-0.00647048
0.00636043
-0.000784097
0.000121695
6.24498e-05
0.000121778
9.04353e-05
-0.00603792
-3.01456e-06
-0.000751382
0.000879702
4.50552e-05
0.00586556
0.847746
-0.0319537
-0.0247116
-0.260881
-0.151416
-0.218122
-0.0945738
0.896698
-0.0579329
-0.0193943
0.930374
-0.0693777
-0.0169474
0.96487
-0.0811785
-0.0175105
1.00135
-0.0947434
-0.0154758
1.04666
-0.111516
-0.0172979
1.1073
-0.13434
-0.0229672
1.19465