/*--------------------------------*- C++ -*----------------------------------*\
| =========                 |                                                 |
| \\      /  F ield         | OpenFOAM: The Open Source CFD Toolbox           |
|  \\    /   O peration     | Version:  2512                                  |
|   \\  /    A nd           | Website:  www.openfoam.com                      |
|    \\/     M anipulation  |                                                 |
\*---------------------------------------------------------------------------*/
FoamFile
{
    version     2.0;
    format      ascii;
    arch        "LSB;label=32;scalar=64";
    class       volVectorField;
    location    "220";
    object      U;
}
// * * * * * * * * * * * * * * * * * * * * * * * * * * * * * * * * * * * * * //

dimensions      [0 1 -1 0 0 0 0];

internalField   nonuniform List<vector> 
90398
(
(20.0001 -0.000314312 0.000203785)
(20.0009 -0.00105028 0.000641697)
(20.0029 -0.00202046 0.00115601)
(20.0066 -0.00343312 0.0017972)
(20.0133 -0.00555246 0.00261206)
(20.0252 -0.0087073 0.00363036)
(20.0456 -0.0132181 0.00489746)
(20.0789 -0.0192267 0.00631304)
(20.1297 -0.0259941 0.00754497)
(20.2004 -0.0318333 0.00812981)
(20.2865 -0.0327558 0.00731971)
(20.3719 -0.0252971 0.00472752)
(20.4351 -0.0132643 0.000789262)
(20.4704 -0.00450994 -0.00326252)
(20.4939 -0.00324639 -0.00631265)
(20.5303 -0.00810508 -0.00801141)
(20.596 -0.0154755 -0.00875795)
(20.6938 -0.0234016 -0.00919752)
(20.822 -0.0322249 -0.0094293)
(20.9822 -0.0424842 -0.00936848)
(21.1776 -0.0538201 -0.00863845)
(21.4088 -0.0656081 -0.00659125)
(21.6702 -0.0772087 -0.0024163)
(21.9514 -0.0879434 0.00520498)
(22.2278 -0.0968193 0.0162466)
(22.4935 -0.103146 0.0318547)
(22.6619 -0.128045 0.0754543)
(22.9861 -0.175656 0.110172)
(23.2417 -0.219166 0.108798)
(24.7021 -0.202132 -0.114171)
(20.0001 -0.00091616 0.000206784)
(20.0007 -0.00307028 0.000654423)
(20.0023 -0.00592055 0.00118535)
(20.0053 -0.010089 0.00185821)
(20.011 -0.0163883 0.00273215)
(20.0215 -0.0258676 0.00386177)
(20.0401 -0.0396098 0.00530844)
(20.072 -0.058258 0.00701878)
(20.1229 -0.079864 0.00866865)
(20.1972 -0.0991298 0.00971367)
(20.2912 -0.102603 0.00894341)
(20.3842 -0.0780712 0.00582192)
(20.4483 -0.0388106 0.00101274)
(20.4771 -0.0109152 -0.00385542)
(20.4924 -0.00729273 -0.0073327)
(20.5236 -0.0228742 -0.00914019)
(20.5873 -0.0456444 -0.00990738)
(20.6842 -0.0694619 -0.0104526)
(20.8109 -0.0957786 -0.010833)
(20.9695 -0.126371 -0.0109171)
(21.164 -0.160185 -0.0103205)
(21.395 -0.195472 -0.00835407)
(21.6569 -0.230492 -0.0041445)
(21.9404 -0.264128 0.00450967)
(22.2199 -0.292173 0.0167375)
(22.4881 -0.322112 0.0433203)
(22.691 -0.412932 0.0979993)
(23.0376 -0.539156 0.120826)
(23.2851 -0.640946 0.104402)
(24.611 -0.600745 -0.0978001)
(20 -0.00145057 0.00021573)
(20.0004 -0.00488231 0.000686804)
(20.0012 -0.00944794 0.00125497)
(20.0028 -0.0161762 0.0019968)
(20.0064 -0.026481 0.00299821)
(20.0138 -0.0422808 0.00435245)
(20.0287 -0.0658656 0.00618339)
(20.0573 -0.0989583 0.00852712)
(20.1078 -0.139089 0.0110712)
(20.1896 -0.177362 0.0131462)
(20.3016 -0.185662 0.0124372)
(20.4124 -0.136558 0.00795519)
(20.4778 -0.0600681 0.00104259)
(20.4917 -0.00817221 -0.00571708)
(20.4891 -0.00242588 -0.0100732)
(20.5096 -0.0310701 -0.0120043)
(20.5704 -0.07053 -0.0127059)
(20.666 -0.110495 -0.013338)
(20.7901 -0.154764 -0.0139207)
(20.9458 -0.206302 -0.0142624)
(21.1386 -0.2631 -0.0139549)
(21.3692 -0.322313 -0.0125194)
(21.6322 -0.382171 -0.00825515)
(21.9188 -0.440923 0.00142834)
(22.2018 -0.491831 0.015136)
(22.4865 -0.572412 0.0517072)
(22.7366 -0.735265 0.102615)
(23.121 -0.900967 0.104832)
(23.3824 -1.01695 0.0806358)
(24.569 -0.958465 -0.0977668)
(20 -0.0018846 0.00022775)
(19.9999 -0.00637263 0.000730804)
(19.9995 -0.0123812 0.00135148)
(19.9992 -0.021324 0.00219264)
(19.9995 -0.0352823 0.00338559)
(20.002 -0.0572836 0.00508516)
(20.0104 -0.0915201 0.00754413)
(20.0323 -0.142096 0.0110026)
(20.0803 -0.207989 0.0152252)
(20.1742 -0.277739 0.019478)
(20.3196 -0.295444 0.0191091)
(20.4633 -0.204603 0.0117901)
(20.5293 -0.0716591 0.000836751)
(20.5157 0.0112718 -0.00939847)
(20.4827 0.0168549 -0.015343)
(20.4869 -0.0292118 -0.0175803)
(20.544 -0.0856591 -0.0183368)
(20.6381 -0.14005 -0.0191955)
(20.7579 -0.201326 -0.0199579)
(20.9093 -0.273163 -0.0203388)
(21.0996 -0.351968 -0.0201635)
(21.3292 -0.434445 -0.0192603)
(21.5934 -0.520101 -0.0145981)
(21.8802 -0.602394 -0.00664939)
(22.1708 -0.683455 0.0072938)
(22.4854 -0.830661 0.0423074)
(22.78 -1.04873 0.0761459)
(23.1858 -1.22417 0.066887)
(23.4588 -1.33853 0.0465031)
(24.4953 -1.26152 -0.101344)
(19.9999 -0.00218393 0.000242004)
(19.9992 -0.00742321 0.000783675)
(19.9975 -0.0144833 0.00147009)
(19.9945 -0.0251039 0.00243721)
(19.9903 -0.0420668 0.00389108)
(19.9856 -0.0697596 0.00609837)
(19.9835 -0.115369 0.00953098)
(19.993 -0.187534 0.0148464)
(20.0325 -0.291595 0.0222219)
(20.1439 -0.418336 0.031261)
(20.3509 -0.45539 0.0316918)
(20.5509 -0.28738 0.0172998)
(20.6126 -0.0644105 -0.00250812)
(20.5501 0.0609045 -0.0185902)
(20.4701 0.0586051 -0.0270506)
(20.4536 -0.0169783 -0.0300667)
(20.5096 -0.0945417 -0.0314888)
(20.6025 -0.164044 -0.0336672)
(20.7163 -0.243912 -0.0359714)
(20.862 -0.337697 -0.0375845)
(21.0489 -0.439338 -0.038526)
(21.2762 -0.545872 -0.0381439)
(21.5385 -0.656199 -0.0335381)
(21.8263 -0.756442 -0.0294684)
(22.1461 -0.878007 -0.0169931)
(22.5013 -1.08301 0.0118832)
(22.8309 -1.32792 0.0318647)
(23.2322 -1.49846 0.0217688)
(23.4832 -1.59926 0.010367)
(24.3239 -1.50406 -0.104607)
(19.9999 -0.00232148 0.000257144)
(19.9985 -0.0079437 0.000840387)
(19.9951 -0.0155537 0.00159926)
(19.9889 -0.0271011 0.00271011)
(19.9791 -0.0459887 0.00449244)
(19.9645 -0.0780998 0.00740417)
(19.9464 -0.134853 0.0123317)
(19.9331 -0.233561 0.0207986)
(19.9495 -0.39665 0.0338861)
(20.0851 -0.628627 0.0542058)
(20.4052 -0.696895 0.0567534)
(20.7021 -0.382791 0.0277706)
(20.7417 -0.0204267 -0.00742446)
(20.5926 0.172338 -0.0315335)
(20.4395 0.160109 -0.0433498)
(20.3987 0.0494685 -0.0481892)
(20.4598 -0.048773 -0.0498039)
(20.5526 -0.137258 -0.0513495)
(20.6584 -0.243528 -0.0532459)
(20.7973 -0.365011 -0.0555125)
(20.9795 -0.4907 -0.0584036)
(21.2033 -0.61806 -0.061305)
(21.4707 -0.745898 -0.0641055)
(21.7944 -0.870983 -0.0677067)
(22.1676 -1.04642 -0.0546322)
(22.5393 -1.296 -0.0298473)
(22.8341 -1.54466 -0.0130728)
(23.135 -1.69147 -0.015705)
(23.2767 -1.76255 -0.0186336)
(23.8989 -1.66247 -0.103507)
(19.9998 -0.00228421 0.000271507)
(19.9977 -0.00788215 0.000894338)
(19.9926 -0.0154653 0.00172335)
(19.983 -0.026966 0.00297874)
(19.9666 -0.0461032 0.00511574)
(19.9394 -0.0799153 0.008834)
(19.8977 -0.144885 0.0158563)
(19.843 -0.270465 0.0291227)
(19.8065 -0.533627 0.0534377)
(19.9605 -0.977474 0.0973679)
(20.4838 -1.08604 0.103295)
(20.9432 -0.473777 0.0496802)
(20.9334 0.0387301 -0.0128625)
(20.65 0.306065 -0.0520316)
(20.3896 0.242272 -0.0731029)
(20.3225 0.102703 -0.0890041)
(20.3929 0.0183576 -0.0996012)
(20.4815 -0.0595972 -0.103566)
(20.5749 -0.169967 -0.103924)
(20.7065 -0.301248 -0.106406)
(20.8899 -0.442285 -0.113969)
(21.1299 -0.59516 -0.126643)
(21.4431 -0.763732 -0.137522)
(21.818 -0.948551 -0.127461)
(22.1512 -1.16993 -0.0874315)
(22.3534 -1.40992 -0.0466766)
(22.4229 -1.61419 -0.0244129)
(22.5316 -1.7285 -0.0248383)
(22.5664 -1.79605 -0.0327659)
(23.1432 -1.74729 -0.0966987)
(19.9997 -0.00208365 0.000283524)
(19.997 -0.00723703 0.000943318)
(19.9903 -0.0141755 0.00183497)
(19.9774 -0.0245871 0.00319035)
(19.9543 -0.0420503 0.00558839)
(19.9128 -0.07256 0.0101076)
(19.8388 -0.139609 0.0198015)
(19.7113 -0.268077 0.038478)
(19.5274 -0.679151 0.0916343)
(19.6679 -1.08662 0.0754371)
(20.3866 -1.76919 0.095136)
(21.4531 -0.866674 0.0333216)
(21.4117 0.322912 -0.0182617)
(20.8945 0.73446 -0.0689912)
(20.2936 0.51091 -0.154512)
(20.2324 0.235653 -0.200697)
(20.3248 0.133432 -0.242884)
(20.4001 0.0502589 -0.271833)
(20.4666 -0.0731531 -0.286783)
(20.5793 -0.225979 -0.293663)
(20.7728 -0.398787 -0.292403)
(21.0343 -0.589775 -0.278854)
(21.3249 -0.790261 -0.239826)
(21.5203 -0.973221 -0.150091)
(21.4545 -1.12753 -0.0378252)
(21.2284 -1.28767 0.0221601)
(21.0979 -1.4853 0.0161806)
(21.2777 -1.66764 -0.0186953)
(21.5352 -1.84123 -0.0533118)
(22.3907 -1.88042 -0.0985472)
(19.9997 -0.00173781 0.000291616)
(19.9965 -0.00610277 0.000977235)
(19.9885 -0.0118247 0.00192429)
(19.9729 -0.0199573 0.00336735)
(19.9445 -0.0333803 0.0058349)
(19.8887 -0.0565159 0.01102)
(19.7835 -0.10593 0.0219139)
(19.5493 -0.228507 0.0541685)
(19.3846 -0.441105 0.0532712)
(18.9013 -1.6943 0.162944)
(20.4416 -3.68324 0.31775)
(22.8039 -1.61784 0.383914)
(22.0822 0.342004 0.0874819)
(21.236 1.32093 0.0132001)
(19.8978 1.2985 -0.328842)
(19.9942 0.870265 -0.37187)
(20.1953 0.682693 -0.383367)
(20.2646 0.529057 -0.37881)
(20.2979 0.354854 -0.360309)
(20.3735 0.169429 -0.325607)
(20.4264 -0.0314618 -0.274673)
(20.3703 -0.244531 -0.210352)
(20.1587 -0.441208 -0.125048)
(19.7014 -0.592796 0.00104768)
(19.1143 -0.776513 0.0983928)
(18.9534 -1.1133 0.0694448)
(19.4461 -1.5504 -0.0260161)
(20.3259 -1.89526 -0.0930159)
(21.1181 -2.14979 -0.123312)
(22.1894 -2.1407 -0.120793)
(19.9997 -0.00128859 0.00029539)
(19.9961 -0.00460886 0.000991209)
(19.9875 -0.00870185 0.00196391)
(19.9702 -0.0140119 0.00350001)
(19.939 -0.021444 0.00618461)
(19.8737 -0.032606 0.0116452)
(19.751 -0.05507 0.0241208)
(19.4108 -0.10161 0.0633199)
(19.0406 -0.272457 0.0778501)
(17.9158 -1.16894 0.0989493)
(17.3863 -6.69218 -0.0135176)
(9.74299 -8.41512 -1.19387)
(9.7825 -3.39456 -0.00717263)
(16.8007 1.25781 0.538116)
(14.5993 1.76899 -0.128657)
(15.4184 1.40542 -0.446509)
(16.1096 1.1597 -0.532128)
(16.3828 0.92572 -0.519528)
(16.4375 0.691007 -0.46542)
(16.3681 0.462463 -0.389583)
(16.1687 0.233121 -0.298553)
(15.842 -0.0044954 -0.20479)
(15.4853 -0.267561 -0.133432)
(15.5085 -0.625826 -0.109512)
(16.3805 -1.15143 -0.157737)
(17.9149 -1.73194 -0.229324)
(19.5144 -2.18855 -0.25891)
(20.821 -2.41497 -0.238035)
(21.7091 -2.53125 -0.204462)
(22.495 -2.35533 -0.141121)
(19.9997 -0.000789463 0.000293343)
(19.9961 -0.00293733 0.000986802)
(19.9873 -0.00522715 0.00195439)
(19.9698 -0.00736877 0.00348477)
(19.9384 -0.00838191 0.00614536)
(19.8742 -0.00640038 0.0115637)
(19.7516 0.00875251 0.0237864)
(19.4357 0.0639279 0.0616721)
(19.0128 0.142342 0.0806678)
(17.1398 0.617627 0.131344)
(9.74877 -2.40817 -9.40109)
(13.8587 -2.55047 -1.88082)
(12.1966 -1.7865 -0.131479)
(9.42428 0.594381 0.0386327)
(10.3423 0.969796 -0.290481)
(11.4072 0.995446 -0.382192)
(11.9998 0.898609 -0.377024)
(12.3712 0.772072 -0.341021)
(12.7123 0.609897 -0.307136)
(13.0922 0.396279 -0.295042)
(13.6118 0.0928556 -0.313901)
(14.5212 -0.396121 -0.354512)
(16.0439 -1.08085 -0.391055)
(17.9363 -1.78458 -0.410285)
(19.6878 -2.30544 -0.397182)
(21.0243 -2.58696 -0.351284)
(21.9158 -2.64759 -0.283791)
(22.4648 -2.64087 -0.225607)
(22.7846 -2.38195 -0.135516)
(19.9997 -0.000298196 0.000285522)
(19.9963 -0.00128445 0.000962659)
(19.9879 -0.00183563 0.00189637)
(19.9718 -0.00104639 0.00331246)
(19.9426 0.00371192 0.00567519)
(19.8886 0.0174802 0.0106744)
(19.7861 0.0559929 0.020987)
(19.5926 0.177463 0.0500931)
(19.3351 0.398268 0.0615769)
(18.9066 1.74504 0.167771)
(21.543 1.47296 0.0740089)
(21.3763 1.60103 0.829823)
(12.6201 2.10587 0.783952)
(7.50023 0.166701 0.246727)
(13.2988 0.0627502 0.829701)
(13.1375 0.529819 0.625948)
(13.1894 0.60505 0.504251)
(13.2379 0.575893 0.408727)
(13.3536 0.517681 0.329726)
(13.7026 0.373569 0.258857)
(14.3025 0.112366 0.19009)
(15.2285 -0.304764 0.103378)
(16.6481 -0.907373 -0.0130135)
(18.3856 -1.58679 -0.157565)
(20.0016 -2.14872 -0.279468)
(21.2324 -2.49092 -0.333064)
(22.0703 -2.63185 -0.322402)
(22.5599 -2.609 -0.270427)
(22.8456 -2.54995 -0.219186)
(22.8432 -2.27954 -0.118923)
(19.9997 0.000133675 0.000273497)
(19.9967 0.000171042 0.000919733)
(19.9893 0.00107694 0.0017865)
(19.9753 0.00434282 0.00308334)
(19.9511 0.0131225 0.00537123)
(19.9097 0.0336074 0.00966184)
(19.8416 0.0859777 0.0184332)
(19.7337 0.202847 0.0348658)
(19.6417 0.529029 0.0742991)
(19.6333 0.942905 0.0866306)
(20.412 1.06812 0.088185)
(20.9753 0.641232 0.0284493)
(21.1512 -0.0407775 -0.0464493)
(20.9762 -0.611061 -0.0272276)
(20.2583 -0.329609 0.0988919)
(20.0817 -0.187054 0.187848)
(20.0393 -0.213469 0.248308)
(19.9991 -0.297124 0.268728)
(20.0132 -0.409295 0.264125)
(20.1022 -0.574184 0.242898)
(20.2593 -0.806251 0.203538)
(20.4545 -1.10454 0.154449)
(20.6725 -1.44149 0.0496106)
(21.0414 -1.81756 -0.126916)
(21.5747 -2.1504 -0.270583)
(22.1176 -2.36345 -0.3328)
(22.5559 -2.44761 -0.325391)
(22.7975 -2.4102 -0.272866)
(22.9428 -2.34588 -0.221338)
(22.7454 -2.09886 -0.106049)
(19.9998 0.000465759 0.000258409)
(19.9973 0.00130341 0.000861272)
(19.9911 0.00324124 0.00166128)
(19.9798 0.00795805 0.00286639)
(19.9614 0.0186782 0.0048995)
(19.9327 0.0417321 0.00834677)
(19.892 0.091409 0.0145479)
(19.8447 0.190171 0.0255304)
(19.8253 0.398302 0.0441158)
(19.9602 0.639465 0.0682434)
(20.2877 0.592623 0.0548869)
(20.5525 0.261377 0.039971)
(20.5644 -0.0614357 0.0170388)
(20.3595 -0.307122 0.00332554)
(20.1136 -0.297483 0.0171665)
(20.0304 -0.198318 0.0264627)
(20.0755 -0.191974 0.024493)
(20.1198 -0.254012 0.0157503)
(20.1432 -0.350336 0.00314294)
(20.1769 -0.484344 -0.0141569)
(20.2347 -0.661973 -0.0376351)
(20.2974 -0.865107 -0.0611255)
(20.4198 -1.08918 -0.117074)
(20.7954 -1.42027 -0.245799)
(21.4032 -1.77236 -0.348268)
(22.0197 -2.02603 -0.381273)
(22.4995 -2.14702 -0.355251)
(22.736 -2.13944 -0.289759)
(22.8688 -2.09101 -0.231191)
(22.5684 -1.87664 -0.0972131)
(19.9998 0.000680859 0.000240749)
(19.9979 0.00201824 0.000802155)
(19.9931 0.0045281 0.00153342)
(19.9845 0.00986998 0.00259093)
(19.9715 0.0208915 0.00426182)
(19.9533 0.042521 0.00691143)
(19.9317 0.0838913 0.0112197)
(19.9143 0.157357 0.0181568)
(19.924 0.274746 0.028425)
(20.0236 0.42 0.0412505)
(20.2293 0.422717 0.0373391)
(20.4053 0.223917 0.0233215)
(20.4221 -0.0261221 0.00686298)
(20.294 -0.214269 -0.00598295)
(20.1332 -0.249244 -0.00662413)
(20.0555 -0.211377 -0.00348331)
(20.0585 -0.227258 -0.00266968)
(20.071 -0.301603 -0.00602035)
(20.0745 -0.403428 -0.0134072)
(20.0901 -0.526742 -0.0252133)
(20.1339 -0.67582 -0.041441)
(20.194 -0.839276 -0.0557552)
(20.3159 -1.00224 -0.0930941)
(20.6996 -1.2583 -0.226082)
(21.3326 -1.55578 -0.343538)
(21.9752 -1.77855 -0.387792)
(22.4657 -1.88357 -0.366427)
(22.6824 -1.87235 -0.29918)
(22.7943 -1.82287 -0.238036)
(22.3973 -1.63097 -0.0883489)
(19.9999 0.000767362 0.000223813)
(19.9985 0.00231947 0.000742522)
(19.9949 0.00497044 0.00139784)
(19.9889 0.0101692 0.0023118)
(19.9804 0.0201633 0.00366676)
(19.97 0.0384462 0.00565598)
(19.9605 0.070418 0.00864048)
(19.9591 0.121556 0.0130334)
(19.9807 0.193259 0.0188181)
(20.0531 0.270458 0.0249121)
(20.1807 0.268231 0.0240352)
(20.294 0.139779 0.01649)
(20.3143 -0.0318828 0.00656244)
(20.2376 -0.160913 -0.0026972)
(20.1278 -0.2046 -0.00631916)
(20.0561 -0.202203 -0.00675475)
(20.0341 -0.226216 -0.00884836)
(20.0271 -0.287033 -0.0148146)
(20.0205 -0.3657 -0.0247396)
(20.0262 -0.458009 -0.038825)
(20.06 -0.568122 -0.0564725)
(20.1176 -0.689124 -0.0722502)
(20.2345 -0.802665 -0.101456)
(20.6127 -0.998809 -0.233733)
(21.257 -1.25712 -0.360452)
(21.9202 -1.46333 -0.410335)
(22.4215 -1.56502 -0.388458)
(22.6225 -1.56053 -0.315458)
(22.716 -1.51784 -0.248513)
(22.2339 -1.35495 -0.0818501)
(20 0.000737429 0.000208073)
(19.999 0.00224069 0.000686137)
(19.9966 0.00466384 0.00127486)
(19.9926 0.00916738 0.00206734)
(19.9875 0.0173886 0.00317008)
(19.9827 0.0316235 0.0046903)
(19.9807 0.0548423 0.00681889)
(19.9875 0.0892906 0.0096962)
(20.0121 0.132506 0.0130378)
(20.0666 0.17199 0.016188)
(20.1501 0.167015 0.0158754)
(20.2252 0.0901967 0.0118879)
(20.2419 -0.0205425 0.00583994)
(20.1913 -0.11091 -0.001096)
(20.1097 -0.154678 -0.00568679)
(20.0442 -0.168664 -0.00858357)
(20.0096 -0.192537 -0.0126025)
(19.9894 -0.239166 -0.0196244)
(19.9738 -0.300854 -0.0302126)
(19.9709 -0.374275 -0.044922)
(19.9969 -0.460074 -0.0628457)
(20.0553 -0.552908 -0.0799645)
(20.1732 -0.630091 -0.10306)
(20.5448 -0.762448 -0.229696)
(21.1933 -0.964387 -0.365225)
(21.872 -1.13918 -0.424057)
(22.3821 -1.22869 -0.404227)
(22.5685 -1.2271 -0.327032)
(22.6432 -1.19156 -0.254971)
(22.0856 -1.0595 -0.0736071)
(20 0.000610167 0.000194902)
(19.9994 0.00184678 0.000639567)
(19.9978 0.00376292 0.00117558)
(19.9953 0.00719768 0.00187058)
(19.9928 0.0132386 0.00279383)
(19.9916 0.0232833 0.00400643)
(19.9942 0.0388552 0.00558974)
(20.0049 0.0606286 0.00755427)
(20.0294 0.085753 0.0096107)
(20.0726 0.105923 0.0112543)
(20.131 0.100848 0.0108824)
(20.1817 0.0550159 0.00816749)
(20.1932 -0.0144488 0.00373386)
(20.1565 -0.0755732 -0.00158261)
(20.0925 -0.110023 -0.00601755)
(20.0328 -0.125428 -0.00985746)
(19.9913 -0.144555 -0.0148415)
(19.9616 -0.178312 -0.0225243)
(19.9387 -0.223502 -0.0336694)
(19.9301 -0.276719 -0.0491904)
(19.9523 -0.336484 -0.067962)
(20.0141 -0.399141 -0.0873149)
(20.136 -0.443898 -0.106154)
(20.5 -0.518747 -0.221667)
(21.147 -0.658635 -0.359742)
(21.8351 -0.79408 -0.426916)
(22.3505 -0.868759 -0.411007)
(22.5225 -0.871564 -0.331217)
(22.5785 -0.84727 -0.255001)
(21.9561 -0.749912 -0.0621764)
(20 0.000412994 0.000185369)
(19.9997 0.00123476 0.00060626)
(19.9986 0.00246331 0.0011051)
(19.9972 0.00460871 0.00173291)
(19.9962 0.00828876 0.00253837)
(19.9972 0.0142431 0.00355384)
(20.0023 0.0231467 0.00480835)
(20.0149 0.035114 0.00625121)
(20.0385 0.0481681 0.00761913)
(20.0748 0.0576305 0.00850924)
(20.1192 0.0537686 0.00806414)
(20.1558 0.0290409 0.0059836)
(20.1634 -0.009071 0.0024854)
(20.1338 -0.0439337 -0.00184172)
(20.0797 -0.0652426 -0.0060685)
(20.0234 -0.0766102 -0.010373)
(19.9777 -0.0897361 -0.0159171)
(19.9419 -0.111014 -0.0239951)
(19.9145 -0.138925 -0.0354519)
(19.9028 -0.171202 -0.0515942)
(19.9233 -0.206344 -0.0709637)
(19.9895 -0.241796 -0.0921985)
(20.1167 -0.263138 -0.106744)
(20.4738 -0.295702 -0.200668)
(21.1208 -0.372806 -0.338769)
(21.8146 -0.455255 -0.413076)
(22.3313 -0.504315 -0.402664)
(22.488 -0.507548 -0.322451)
(22.5259 -0.496985 -0.24477)
(21.8516 -0.43491 -0.0443805)
(20 0.000150331 0.000179908)
(19.9998 0.000443922 0.000588687)
(19.9991 0.000870408 0.00106941)
(19.9981 0.00160234 0.00166485)
(19.9979 0.00284006 0.00241461)
(19.9998 0.00481211 0.00333559)
(20.0061 0.00770894 0.00444081)
(20.0194 0.0115177 0.00565014)
(20.0423 0.0155315 0.00670519)
(20.0752 0.0182725 0.00725767)
(20.1133 0.0168438 0.00676438)
(20.1436 0.00902414 0.00492443)
(20.1491 -0.00306686 0.00183174)
(20.1223 -0.0143615 -0.00201352)
(20.0725 -0.0215988 -0.00608629)
(20.0177 -0.0258019 -0.0105424)
(19.9703 -0.0304955 -0.0163176)
(19.9318 -0.0377332 -0.0246062)
(19.9023 -0.0470778 -0.036275)
(19.8893 -0.0578028 -0.0528585)
(19.9095 -0.0692779 -0.0724984)
(19.9793 -0.0804098 -0.0953204)
(20.1093 -0.0860529 -0.105579)
(20.4683 -0.0945223 -0.179486)
(21.1299 -0.118635 -0.317293)
(21.8306 -0.145149 -0.393513)
(22.3414 -0.161217 -0.382941)
(22.4774 -0.161663 -0.298638)
(22.4958 -0.159796 -0.223004)
(21.7793 -0.137358 -0.0154197)
(20.0001 -0.00031778 0.000611163)
(20.001 -0.00105078 0.00187612)
(20.003 -0.00201338 0.00333945)
(20.0069 -0.00340711 0.00516418)
(20.014 -0.00549479 0.00748127)
(20.0263 -0.00858487 0.0103887)
(20.047 -0.012983 0.0138398)
(20.0806 -0.0187906 0.0176038)
(20.1315 -0.0253483 0.0208676)
(20.2017 -0.0307994 0.0224279)
(20.2869 -0.0317168 0.0203051)
(20.3713 -0.0247589 0.0129447)
(20.4346 -0.0136079 0.0017455)
(20.4709 -0.00561739 -0.0095728)
(20.4964 -0.00476833 -0.0180249)
(20.535 -0.0097797 -0.0231002)
(20.6025 -0.0172549 -0.0260523)
(20.702 -0.0253799 -0.0283749)
(20.8324 -0.0344739 -0.0304925)
(20.9956 -0.045008 -0.0316446)
(21.195 -0.0566522 -0.0307377)
(21.4314 -0.068598 -0.0264392)
(21.6981 -0.080369 -0.0162133)
(21.9868 -0.0909624 0.00295437)
(22.2823 -0.100614 0.0300316)
(22.595 -0.146082 0.0887159)
(23.0412 -0.242495 0.183248)
(23.9486 -0.292514 0.160285)
(24.9275 -0.26932 -0.017009)
(26.4412 -0.191148 -0.361547)
(20.0001 -0.000923003 0.000621955)
(20.0008 -0.00306245 0.00191849)
(20.0025 -0.00588172 0.00343389)
(20.0057 -0.00998309 0.00535258)
(20.0117 -0.0161694 0.00784693)
(20.0225 -0.0254296 0.0110657)
(20.0415 -0.0387826 0.0150481)
(20.0737 -0.0567388 0.0196325)
(20.1246 -0.0775624 0.0239473)
(20.1981 -0.0955256 0.0265888)
(20.2906 -0.0990309 0.024834)
(20.3821 -0.0763667 0.0160731)
(20.446 -0.040117 0.00249285)
(20.4761 -0.0146532 -0.0107776)
(20.4936 -0.0122074 -0.0201582)
(20.5269 -0.0280266 -0.0254317)
(20.5922 -0.0508378 -0.0284534)
(20.6902 -0.0749545 -0.031011)
(20.8184 -0.101819 -0.0334835)
(20.9792 -0.133048 -0.035008)
(21.1767 -0.167635 -0.034493)
(21.4115 -0.203408 -0.0306103)
(21.6784 -0.239342 -0.0200591)
(21.9706 -0.272828 -0.00103226)
(22.2773 -0.313049 0.0325608)
(22.6554 -0.456801 0.109813)
(23.1619 -0.697895 0.196777)
(23.9598 -0.821092 0.154669)
(24.7419 -0.767012 -0.00719009)
(26.1012 -0.57693 -0.319696)
(20 -0.00146026 0.000647142)
(20.0004 -0.00486777 0.00200871)
(20.0014 -0.00938168 0.00362767)
(20.0033 -0.0159979 0.00573241)
(20.0072 -0.0261045 0.00858724)
(20.0151 -0.0415106 0.0124656)
(20.0306 -0.0643708 0.0176032)
(20.0596 -0.0961122 0.0240109)
(20.1103 -0.134571 0.0307877)
(20.191 -0.170133 0.036069)
(20.3001 -0.178029 0.0349828)
(20.4082 -0.133127 0.0227381)
(20.4733 -0.0628278 0.00332206)
(20.4893 -0.0156389 -0.0143939)
(20.4899 -0.0120448 -0.0256449)
(20.513 -0.0410912 -0.0310277)
(20.5752 -0.0805871 -0.0338233)
(20.6718 -0.12093 -0.036589)
(20.7972 -0.165808 -0.0395926)
(20.9549 -0.218033 -0.041761)
(21.1505 -0.275655 -0.0421669)
(21.3846 -0.335556 -0.0394189)
(21.6549 -0.398907 -0.0298211)
(21.951 -0.456601 -0.013292)
(22.2929 -0.557738 0.0266185)
(22.7717 -0.823528 0.117501)
(23.346 -1.13784 0.180819)
(24.0309 -1.24638 0.114773)
(24.6244 -1.16493 -0.020567)
(25.7937 -0.925039 -0.2919)
(20 -0.00189876 0.000682104)
(19.9999 -0.00635767 0.00213448)
(19.9998 -0.0122986 0.00390204)
(19.9997 -0.0210896 0.00627788)
(20.0005 -0.0347741 0.00968602)
(20.0037 -0.0561859 0.0146235)
(20.013 -0.0892302 0.0217157)
(20.0359 -0.137483 0.0314019)
(20.0846 -0.200106 0.0430375)
(20.1766 -0.263952 0.053967)
(20.3168 -0.280505 0.0541168)
(20.4552 -0.198547 0.0344588)
(20.5207 -0.076872 0.00415901)
(20.511 -0.00160617 -0.0214483)
(20.4828 0.000526399 -0.0358017)
(20.4904 -0.0465132 -0.0411616)
(20.549 -0.103658 -0.0435786)
(20.6438 -0.159563 -0.0467087)
(20.7649 -0.222753 -0.0502951)
(20.9183 -0.296455 -0.0529529)
(21.1108 -0.376677 -0.0544674)
(21.3442 -0.461453 -0.0529767)
(21.6154 -0.549905 -0.0467453)
(21.9218 -0.636572 -0.0378902)
(22.3262 -0.838096 0.00261668)
(22.8795 -1.21219 0.0857854)
(23.4234 -1.52047 0.117616)
(23.9914 -1.58237 0.056325)
(24.4648 -1.48778 -0.0435111)
(25.4507 -1.22386 -0.268118)
(19.9999 -0.00220201 0.000723827)
(19.9993 -0.00741144 0.00228691)
(19.9977 -0.0143944 0.00423992)
(19.9951 -0.0248372 0.00697192)
(19.9916 -0.0414162 0.0110804)
(19.988 -0.0683174 0.0174838)
(19.9875 -0.112125 0.0275866)
(19.9989 -0.180462 0.0427684)
(20.0404 -0.278108 0.0636558)
(20.1488 -0.391373 0.0860739)
(20.3449 -0.42544 0.087672)
(20.5359 -0.275962 0.0527836)
(20.5969 -0.0730651 0.00392417)
(20.5415 0.0411844 -0.0346689)
(20.4689 0.0339857 -0.0538641)
(20.4566 -0.0436809 -0.0593701)
(20.5136 -0.121786 -0.0617868)
(20.6066 -0.192179 -0.0665043)
(20.7213 -0.273966 -0.0722112)
(20.8688 -0.370563 -0.0770845)
(21.0579 -0.474703 -0.0812045)
(21.2899 -0.586772 -0.0831138)
(21.5621 -0.698172 -0.0855943)
(21.9041 -0.829932 -0.0845766)
(22.3731 -1.13689 -0.0401835)
(22.9204 -1.56036 0.0238306)
(23.3764 -1.82199 0.0376276)
(23.8451 -1.84968 -0.00528234)
(24.2226 -1.74893 -0.0697581)
(25.0292 -1.47397 -0.245169)
(19.9999 -0.00234579 0.000769737)
(19.9985 -0.00794075 0.00245466)
(19.9954 -0.0154752 0.00461494)
(19.9898 -0.0268454 0.00776984)
(19.9809 -0.0452446 0.0127109)
(19.9679 -0.0763038 0.021068)
(19.9526 -0.130502 0.0355735)
(19.9431 -0.222871 0.0595333)
(19.9653 -0.372706 0.0969018)
(20.0954 -0.575993 0.145576)
(20.394 -0.642373 0.151542)
(20.6743 -0.365822 0.0824473)
(20.7167 -0.0414724 -0.00147416)
(20.58 0.131702 -0.0586749)
(20.4373 0.108127 -0.0825738)
(20.4025 -0.0137692 -0.0871008)
(20.4656 -0.11898 -0.0873747)
(20.5585 -0.207965 -0.0902693)
(20.6647 -0.310923 -0.0952814)
(20.8057 -0.429277 -0.102274)
(20.9943 -0.55547 -0.112582)
(21.2308 -0.69029 -0.126183)
(21.5266 -0.825842 -0.146364)
(21.9112 -1.02354 -0.144566)
(22.378 -1.41038 -0.0926573)
(22.8271 -1.81858 -0.0466622)
(23.1893 -2.04217 -0.0367285)
(23.5632 -2.04905 -0.0583456)
(23.8522 -1.94561 -0.0949169)
(24.4947 -1.67184 -0.221405)
(19.9998 -0.00231585 0.000810836)
(19.9978 -0.00789565 0.00262325)
(19.993 -0.0154037 0.00500596)
(19.984 -0.0267677 0.00859983)
(19.9689 -0.0454949 0.0145263)
(19.9442 -0.0782082 0.0252122)
(19.9072 -0.13983 0.0458508)
(19.861 -0.255652 0.0833666)
(19.8386 -0.490772 0.151637)
(19.9865 -0.860456 0.25927)
(20.4635 -0.980833 0.277604)
(20.8894 -0.435156 0.140214)
(20.8901 0.00977349 -0.0138834)
(20.6279 0.25156 -0.107559)
(20.3801 0.157094 -0.141467)
(20.3196 -0.0135309 -0.153074)
(20.3985 -0.125638 -0.16267)
(20.4971 -0.22181 -0.1696)
(20.6027 -0.339105 -0.173641)
(20.7508 -0.474862 -0.18209)
(20.9523 -0.623257 -0.199118)
(21.2046 -0.79058 -0.220785)
(21.5021 -0.973467 -0.234237)
(21.8206 -1.21754 -0.198069)
(22.1602 -1.60374 -0.131697)
(22.4875 -1.96769 -0.0979345)
(22.7811 -2.16671 -0.0906529)
(23.0953 -2.17118 -0.0982269)
(23.3327 -2.07968 -0.118143)
(23.8625 -1.823 -0.196307)
(19.9997 -0.00211359 0.000844948)
(19.9971 -0.00728473 0.00275253)
(19.9907 -0.0141748 0.00534677)
(19.9786 -0.0243889 0.00946966)
(19.9571 -0.0414452 0.0163894)
(19.9191 -0.0713902 0.0293879)
(19.8532 -0.13383 0.0575693)
(19.7444 -0.252708 0.113797)
(19.6039 -0.604949 0.248718)
(19.6365 -1.09609 0.349531)
(20.25 -1.69381 0.494752)
(21.2728 -0.980077 0.249216)
(21.2595 0.186385 0.0294151)
(20.8266 0.572662 -0.173866)
(20.2363 0.336164 -0.350158)
(20.178 0.0133336 -0.357846)
(20.2872 -0.122704 -0.381936)
(20.3849 -0.241466 -0.400385)
(20.4716 -0.398717 -0.398869)
(20.5775 -0.575754 -0.382679)
(20.6912 -0.759085 -0.354099)
(20.7946 -0.946474 -0.305023)
(20.8629 -1.11171 -0.228826)
(20.9547 -1.28493 -0.140722)
(21.244 -1.60938 -0.0987128)
(21.691 -1.97963 -0.11021)
(22.1188 -2.21282 -0.128456)
(22.5037 -2.25112 -0.13636)
(22.7745 -2.19326 -0.147125)
(23.2456 -1.95465 -0.175823)
(19.9997 -0.00177459 0.000870636)
(19.9966 -0.00615428 0.00284119)
(19.989 -0.0119069 0.00554891)
(19.9741 -0.0201384 0.0100634)
(19.9473 -0.0331173 0.0180672)
(19.8963 -0.0555853 0.0333738)
(19.8026 -0.102035 0.067307)
(19.6048 -0.213113 0.152088)
(19.3762 -0.456432 0.256779)
(18.9948 -1.52106 0.693691)
(20.2208 -2.76639 1.2417)
(22.0423 -1.76647 0.207623)
(21.6002 0.481324 -0.175455)
(20.9677 1.06728 -0.605874)
(19.1379 0.642248 -0.684163)
(19.1962 0.0381849 -0.623691)
(19.2508 -0.201511 -0.548805)
(19.1015 -0.335824 -0.461559)
(18.8447 -0.465493 -0.351781)
(18.585 -0.590552 -0.226971)
(18.3555 -0.711544 -0.0968281)
(18.1783 -0.833272 0.0219783)
(18.0909 -0.935115 0.103423)
(18.4539 -1.1219 0.0941778)
(19.5375 -1.57588 -0.0375339)
(20.7203 -2.06374 -0.165536)
(21.5446 -2.34504 -0.218052)
(22.0807 -2.39262 -0.211037)
(22.4044 -2.33886 -0.192692)
(22.78 -2.08082 -0.164057)
(19.9997 -0.00132707 0.000880395)
(19.9963 -0.00469431 0.00289317)
(19.988 -0.00881203 0.00564042)
(19.9715 -0.0142215 0.0101371)
(19.942 -0.0220659 0.0185697)
(19.8824 -0.033904 0.0348317)
(19.7726 -0.0551664 0.0724642)
(19.4916 -0.100404 0.173708)
(19.0661 -0.272186 0.339138)
(17.781 -1.22449 0.954014)
(20.0141 -6.16338 3.14301)
(24.8474 -3.92493 -3.65956)
(19.3758 1.31443 -1.47597)
(18.8317 1.16403 0.0589706)
(9.411 1.34242 0.976132)
(10.6809 0.545246 0.486335)
(11.5195 0.154652 0.298948)
(11.9194 -0.0908122 0.245555)
(12.2665 -0.299396 0.257947)
(12.7605 -0.493984 0.2675)
(13.4363 -0.702063 0.243876)
(14.3146 -0.948936 0.164219)
(15.6097 -1.24857 0.0117194)
(17.5157 -1.67135 -0.192369)
(19.4428 -2.15142 -0.368136)
(20.7942 -2.49167 -0.430362)
(21.5881 -2.62412 -0.393084)
(22.041 -2.5754 -0.310883)
(22.2864 -2.46667 -0.2384)
(22.4603 -2.16226 -0.152891)
(19.9997 -0.000831957 0.000874762)
(19.9962 -0.00303911 0.0028803)
(19.9878 -0.00543624 0.0056141)
(19.9711 -0.00767643 0.0100894)
(19.9413 -0.00865699 0.0184447)
(19.8825 -0.0066024 0.034568)
(19.7729 0.00580139 0.0714504)
(19.5098 0.0553091 0.169403)
(19.0427 0.12669 0.341391)
(16.9894 0.561814 1.09831)
(1.07239 -0.594465 -2.92956)
(9.92583 -2.13392 0.517245)
(12.0975 -1.57342 0.144813)
(13.6324 -1.33578 -0.0288458)
(14.5727 -1.23176 -0.124207)
(15.3383 -1.19001 -0.198188)
(16.1342 -1.21583 -0.281607)
(16.9892 -1.33431 -0.384)
(17.9162 -1.56436 -0.518734)
(18.9527 -1.87846 -0.639684)
(19.9906 -2.23632 -0.698837)
(20.8716 -2.55887 -0.697047)
(21.5215 -2.74241 -0.626104)
(21.9347 -2.76202 -0.504389)
(22.145 -2.64277 -0.369294)
(22.2309 -2.48924 -0.260595)
(22.1688 -2.16044 -0.133009)
(19.9997 -0.000340303 0.00085376)
(19.9964 -0.0014155 0.0027996)
(19.9883 -0.00206975 0.00546705)
(19.9728 -0.00140721 0.00991342)
(19.9452 0.00260744 0.017669)
(19.8953 0.0150702 0.0324774)
(19.8034 0.0497919 0.0645708)
(19.6366 0.156566 0.141364)
(19.331 0.375656 0.262361)
(18.9074 1.50912 0.727971)
(20.6369 2.03214 0.586217)
(20.9094 3.21053 -0.363102)
(18.6867 -2.18302 0.678952)
(22.2773 -2.27735 -0.51556)
(18.7035 -0.922397 0.757985)
(18.4303 -0.4066 0.685195)
(18.3505 -0.315198 0.627272)
(18.287 -0.365575 0.540965)
(18.3497 -0.466852 0.42897)
(18.6241 -0.636118 0.286257)
(19.0734 -0.887203 0.11552)
(19.636 -1.18887 -0.0886589)
(20.2309 -1.5799 -0.384458)
(20.867 -2.10005 -0.66012)
(21.4635 -2.52373 -0.752824)
(21.885 -2.71888 -0.685799)
(22.1053 -2.71559 -0.544981)
(22.142 -2.57494 -0.391031)
(22.0977 -2.4044 -0.265473)
(21.8382 -2.07941 -0.106313)
(19.9997 8.90667e-05 0.000816785)
(19.9968 4.47865e-05 0.00268446)
(19.9896 0.000776119 0.00521691)
(19.9762 0.00366769 0.0092098)
(19.9534 0.0118374 0.0158506)
(19.9151 0.0312178 0.0281331)