/*--------------------------------*- C++ -*----------------------------------*\
| =========                 |                                                 |
| \\      /  F ield         | OpenFOAM: The Open Source CFD Toolbox           |
|  \\    /   O peration     | Version:  2512                                  |
|   \\  /    A nd           | Website:  www.openfoam.com                      |
|    \\/     M anipulation  |                                                 |
\*---------------------------------------------------------------------------*/
FoamFile
{
    version     2.0;
    format      ascii;
    arch        "LSB;label=32;scalar=64";
    class       volVectorField;
    location    "220";
    object      U;
}
// * * * * * * * * * * * * * * * * * * * * * * * * * * * * * * * * * * * * * //

dimensions      [0 1 -1 0 0 0 0];

internalField   nonuniform List<vector> 
84826
(
(20 -0.000235424 0.000200819)
(20 -0.000743218 0.000653471)
(20.0001 -0.00142327 0.00119257)
(20.0006 -0.00246229 0.00186993)
(20.0026 -0.00410584 0.00274183)
(20.0077 -0.00668079 0.00385715)
(20.0187 -0.0105664 0.00523972)
(20.0395 -0.0160775 0.00684491)
(20.075 -0.0230575 0.00848761)
(20.129 -0.0301304 0.00983161)
(20.2012 -0.0345867 0.0104033)
(20.2807 -0.0312489 0.00962487)
(20.3427 -0.0183615 0.00722051)
(20.363 -0.00229438 0.00370217)
(20.3405 0.00882195 0.000253784)
(20.2963 0.0130277 -0.00213893)
(20.2521 0.0122359 -0.00309382)
(20.2186 0.00934547 -0.00292338)
(20.1961 0.00630136 -0.00228115)
(20.181 0.0035404 -0.00154315)
(20.1714 0.00117249 -0.000766858)
(20.1665 -0.000476104 7.71807e-06)
(20.1648 -0.00133447 0.000674608)
(20.1644 -0.00170571 0.00117505)
(20.1643 -0.00190823 0.00152748)
(20.1642 -0.00207818 0.00177921)
(20.164 -0.00222403 0.0019645)
(20.1633 -0.00237405 0.00211915)
(20.1626 -0.00248879 0.00221467)
(20.1596 -0.00273134 0.00244617)
(20 -0.000685206 0.000204602)
(19.9998 -0.00216433 0.000666711)
(19.9996 -0.00415243 0.00122072)
(19.9995 -0.0072047 0.00192481)
(20.0006 -0.0120644 0.0028455)
(20.0044 -0.0197438 0.00404743)
(20.0136 -0.0314771 0.00557854)
(20.0326 -0.0483544 0.00742639)
(20.0671 -0.0701809 0.00941883)
(20.1227 -0.092878 0.0111563)
(20.201 -0.108119 0.0120333)
(20.2909 -0.0980512 0.0112117)
(20.3606 -0.0566662 0.00844486)
(20.3798 -0.00569472 0.00411775)
(20.3502 0.028864 -6.93066e-05)
(20.2988 0.0414053 -0.00286959)
(20.2502 0.0382074 -0.00382106)
(20.2153 0.0289053 -0.00343196)
(20.1927 0.0195051 -0.00258275)
(20.1779 0.0109117 -0.0016643)
(20.1689 0.00334145 -0.000691763)
(20.1647 -0.00212081 0.000269518)
(20.1637 -0.00515391 0.00108649)
(20.1637 -0.00651427 0.00171429)
(20.1637 -0.00699489 0.00219904)
(20.1635 -0.00693584 0.00259144)
(20.1634 -0.00646416 0.00290748)
(20.1627 -0.0057529 0.00316606)
(20.162 -0.00506768 0.00332978)
(20.1594 -0.00430346 0.003616)
(20 -0.00107921 0.000212696)
(19.9995 -0.00340992 0.000695058)
(19.9986 -0.00655989 0.00128081)
(19.9974 -0.0114384 0.00204175)
(19.9966 -0.0193032 0.00306648)
(19.9976 -0.0319441 0.00445566)
(20.0031 -0.0517188 0.00630718)
(20.0179 -0.08102 0.00868115)
(20.0498 -0.120501 0.0114539)
(20.1078 -0.163687 0.014102)
(20.1992 -0.196013 0.0157504)
(20.3126 -0.178685 0.0148366)
(20.3992 -0.100101 0.0113603)
(20.4153 -0.0067584 0.00532347)
(20.3697 0.0544781 -0.000472687)
(20.3028 0.0750858 -0.0041251)
(20.2454 0.0667458 -0.00493498)
(20.2081 0.0489109 -0.00393171)
(20.1858 0.0323945 -0.00250515)
(20.1717 0.0177139 -0.00106572)
(20.1639 0.00482619 0.000418184)
(20.1615 -0.00473307 0.00178324)
(20.1622 -0.0108854 0.00282891)
(20.1633 -0.0149548 0.00356982)
(20.1639 -0.0178806 0.0041385)
(20.1643 -0.0198111 0.0046301)
(20.1645 -0.0207719 0.00506188)
(20.1639 -0.0210849 0.0054522)
(20.1632 -0.0212442 0.00572829)
(20.1594 -0.0211388 0.00625687)
(19.9999 -0.00138757 0.000223262)
(19.9991 -0.00438258 0.000733635)
(19.9972 -0.0084567 0.00136332)
(19.9943 -0.0148425 0.00220455)
(19.9906 -0.0253233 0.00338105)
(19.9872 -0.0425956 0.00505303)
(19.9865 -0.0705591 0.00741086)
(19.9937 -0.113898 0.0106558)
(20.0198 -0.175909 0.014794)
(20.0796 -0.249117 0.0191413)
(20.1934 -0.312516 0.0222282)
(20.3496 -0.284934 0.021298)
(20.4649 -0.149611 0.01682)
(20.4734 -0.00143028 0.00797416)
(20.4 0.0905829 -0.00066552)
(20.3069 0.117544 -0.00574053)
(20.2354 0.0984412 -0.00623185)
(20.1955 0.0671137 -0.00439435)
(20.1748 0.0398461 -0.00223864)
(20.1621 0.0171033 0.000112804)
(20.1561 -0.000125393 0.00275422)
(20.1559 -0.00997045 0.00522486)
(20.1581 -0.0140972 0.00711791)
(20.16 -0.0156801 0.00846994)
(20.1611 -0.0163159 0.00948724)
(20.1621 -0.0160433 0.010296)
(20.1628 -0.0147951 0.0109419)
(20.1625 -0.0130333 0.0114764)
(20.1616 -0.0115007 0.0118775)
(20.1606 -0.0106966 0.0125619)
(19.9999 -0.00158138 0.000235569)
(19.9985 -0.00498612 0.000779468)
(19.9955 -0.00964926 0.00146474)
(19.9903 -0.0170653 0.00240771)
(19.9829 -0.0295133 0.00378032)
(19.9734 -0.0507068 0.00583481)
(19.9633 -0.0866008 0.00891505)
(19.9577 -0.145701 0.0134867)
(19.9715 -0.237073 0.019809)
(20.0287 -0.356323 0.0271781)
(20.1791 -0.47889 0.0325697)
(20.4114 -0.439248 0.0312139)
(20.5713 -0.211318 0.0240379)
(20.5608 0.0163935 0.0102584)
(20.4423 0.147881 -0.00301075)
(20.3088 0.176078 -0.00921708)
(20.2165 0.139988 -0.00763165)
(20.1741 0.0915565 -0.00386153)
(20.1569 0.0462702 -0.000854995)
(20.1487 0.0037434 0.00222195)
(20.1485 -0.030258 0.00582825)
(20.1539 -0.0514329 0.00932833)
(20.1593 -0.0630986 0.0122435)
(20.1623 -0.070497 0.0147269)
(20.164 -0.0759124 0.0169717)
(20.1654 -0.0793009 0.0189919)
(20.1665 -0.080528 0.0207447)
(20.1661 -0.079974 0.0223176)
(20.1654 -0.0793097 0.0235694)
(20.1608 -0.0758081 0.0257185)
(19.9998 -0.00164077 0.000249012)
(19.9979 -0.00515285 0.000828675)
(19.9935 -0.00998818 0.00157967)
(19.9858 -0.0177969 0.00264423)
(19.9738 -0.0312397 0.00425032)
(19.9563 -0.0550261 0.00677693)
(19.9329 -0.0976015 0.0108139)
(19.9069 -0.17341 0.0172551)
(19.8966 -0.302553 0.0269778)
(19.9376 -0.494449 0.0388453)
(20.147 -0.724604 0.0478858)
(20.5126 -0.662551 0.0484388)
(20.7378 -0.302346 0.0412194)
(20.6856 0.0407567 0.0196827)
(20.492 0.230561 -0.00246946)
(20.2984 0.239831 -0.010885)
(20.1809 0.175399 -0.00547541)
(20.1352 0.118807 0.00323493)
(20.1177 0.0714039 0.0106943)
(20.1116 0.0256101 0.0176648)
(20.119 -0.0095047 0.0239774)
(20.1341 -0.0285341 0.0289342)
(20.1476 -0.0369481 0.0325664)
(20.1574 -0.041584 0.035681)
(20.1663 -0.0451476 0.0387221)
(20.176 -0.0477784 0.0416521)
(20.1861 -0.0498768 0.0443319)
(20.1945 -0.0513394 0.0470367)
(20.2023 -0.056047 0.0493307)
(20.2132 -0.0601298 0.054727)
(19.9997 -0.00155757 0.000262117)
(19.9972 -0.00485189 0.000876899)
(19.9915 -0.00938998 0.0016887)
(19.9811 -0.0168122 0.00288901)
(19.964 -0.0299099 0.00476385)
(19.9369 -0.0540654 0.00783407)
(19.8956 -0.0999733 0.0130385)
(19.8387 -0.190128 0.0219225)
(19.7812 -0.362213 0.0360344)
(19.7837 -0.681413 0.0553254)
(20.0654 -1.10686 0.0634644)
(20.6465 -0.930907 0.0748584)
(20.9748 -0.424287 0.0845439)
(20.8633 0.0899454 0.0508786)
(20.5439 0.363485 0.0207943)
(20.2572 0.304337 0.010307)
(20.1249 0.155036 0.0133828)
(20.0906 0.0409137 0.0214543)
(20.0847 -0.0504558 0.0340044)
(20.1 -0.129408 0.0515065)
(20.1373 -0.185524 0.0703848)
(20.1788 -0.217945 0.087965)
(20.207 -0.235993 0.104131)
(20.2184 -0.247038 0.120003)
(20.2167 -0.253499 0.135938)
(20.2028 -0.25622 0.151366)
(20.177 -0.256195 0.165887)
(20.1286 -0.254263 0.178495)
(20.0899 -0.254459 0.191594)
(19.9526 -0.25171 0.204847)
(19.9997 -0.00133804 0.000273534)
(19.9967 -0.00409783 0.000920065)
(19.9896 -0.00786743 0.00178428)
(19.9767 -0.0140592 0.0030986)
(19.9546 -0.0252273 0.00523738)
(19.9172 -0.0464624 0.00894584)
(19.8544 -0.089552 0.0154254)
(19.7534 -0.182006 0.0277122)
(19.6061 -0.387133 0.0447558)
(19.4985 -0.872238 0.0797654)
(19.7771 -1.23414 0.017118)
(20.7082 -1.56363 -0.00525299)
(21.4259 -0.661719 0.0862197)
(21.2899 0.142579 0.0325829)
(20.5647 0.598367 0.106898)
(20.0978 0.495498 0.112865)
(19.9615 0.288488 0.117612)
(19.9787 0.116132 0.127882)
(19.9588 -0.0233054 0.152853)
(19.8643 -0.126526 0.185258)
(19.7076 -0.188798 0.212226)
(19.4898 -0.224041 0.228382)
(19.2167 -0.248263 0.235729)
(18.9059 -0.267985 0.237996)
(18.575 -0.283493 0.237103)
(18.2351 -0.295699 0.23297)
(17.898 -0.303746 0.225432)
(17.556 -0.319243 0.213178)
(17.2776 -0.31074 0.204264)
(16.8258 -0.358932 0.172981)
(19.9996 -0.00100361 0.000282179)
(19.9962 -0.00296101 0.00095183)
(19.9882 -0.00554432 0.00185829)
(19.9732 -0.00973125 0.00325633)
(19.947 -0.0173701 0.00558483)
(19.9005 -0.0320412 0.00985437)
(19.8174 -0.0635544 0.0176305)
(19.6596 -0.1344 0.0335701)
(19.3859 -0.322068 0.0549629)
(18.9382 -0.838403 0.0946578)
(19.15 -1.64139 -0.0267893)
(20.9862 -2.46271 0.122551)
(21.8847 -1.94612 0.418459)
(21.7622 -0.272449 0.325468)
(19.6807 0.272232 0.641003)
(18.3787 0.104806 0.57705)
(17.5394 -0.136226 0.512968)
(16.7884 -0.379067 0.43275)
(15.9525 -0.586971 0.345167)
(15.1426 -0.729245 0.257397)
(14.4526 -0.801875 0.170924)
(13.8881 -0.834956 0.0896905)
(13.4412 -0.853358 0.0194596)
(13.113 -0.861948 -0.037351)
(12.8879 -0.860734 -0.0840655)
(12.7416 -0.854902 -0.126565)
(12.6629 -0.846512 -0.168225)
(12.7012 -0.840232 -0.204222)
(12.7547 -0.810016 -0.235827)
(13.0666 -0.797063 -0.273368)
(19.9996 -0.000589714 0.000287108)
(19.996 -0.00156638 0.000969094)
(19.9874 -0.00268729 0.00189652)
(19.9713 -0.00437198 0.00333737)
(19.9428 -0.00735161 0.00576344)
(19.8909 -0.0130517 0.0102804)
(19.7951 -0.0254696 0.0187292)
(19.5972 -0.0538157 0.0376276)
(19.2049 -0.134664 0.061966)
(18.3071 -0.375838 0.106046)
(17.823 -1.20449 -0.235925)
(20.9397 -3.33032 -0.435916)
(22.3821 -5.54131 0.592422)
(10.9241 -2.25723 0.18771)
(1.62975 0.888624 -0.0580763)
(0.433098 0.892531 -0.629578)
(2.64726 0.420103 -0.863134)
(5.03283 -0.00502566 -0.978339)
(6.79649 -0.260961 -0.975981)
(8.13047 -0.37351 -0.917442)
(9.19633 -0.401887 -0.855989)
(10.0595 -0.399432 -0.805907)
(10.7818 -0.387825 -0.76365)
(11.4199 -0.368648 -0.726844)
(12.0035 -0.342765 -0.695945)
(12.5426 -0.315498 -0.670628)
(13.0342 -0.292208 -0.651154)
(13.5087 -0.273266 -0.631339)
(13.8771 -0.256547 -0.624937)
(14.5057 -0.228245 -0.60056)
(19.9996 -0.00014132 0.000287848)
(19.9959 -5.94648e-05 0.000970517)
(19.9873 0.000405292 0.00189639)
(19.9711 0.00146783 0.0033337)
(19.9425 0.0036518 0.00575432)
(19.8904 0.00824441 0.0102774)
(19.7942 0.0187768 0.0187588)
(19.5953 0.0435999 0.0377064)
(19.2007 0.117193 0.0622568)
(18.2948 0.337869 0.107023)
(17.4678 0.556353 -0.295148)
(20.1084 0.524661 -0.645429)
(-2.65325 1.03447 -1.5642)
(-0.178838 -0.617926 -2.15169)
(2.84554 -0.659969 -2.15314)
(6.00648 -0.580778 -1.98966)
(8.38366 -0.506286 -1.77674)
(9.92366 -0.423146 -1.5449)
(10.9152 -0.347193 -1.32515)
(11.5706 -0.295611 -1.13852)
(11.9993 -0.266122 -0.98666)
(12.2864 -0.244851 -0.860858)
(12.5026 -0.222064 -0.756491)
(12.6898 -0.195486 -0.671661)
(12.8686 -0.165333 -0.603764)
(13.0446 -0.133972 -0.551175)
(13.2543 -0.0953451 -0.508609)
(13.4132 -0.0772467 -0.483121)
(13.8379 -0.00162368 -0.456578)
(19.9996 0.000291183 0.000284069)
(19.9961 0.00138227 0.000958041)
(19.9879 0.00334942 0.0018611)
(19.9727 0.00696991 0.0032389)
(19.9462 0.0139723 0.00557095)
(19.899 0.0276811 0.00988022)
(19.8147 0.0575395 0.0177425)
(19.6542 0.125394 0.0338293)
(19.3747 0.307276 0.0557963)
(18.9068 0.809507 0.0974751)
(18.5962 1.59171 -0.0582744)
(20.8207 3.22366 -0.277602)
(21.1073 3.43699 0.287432)
(15.5491 3.62304 1.32866)
(12.8024 0.756747 0.224234)
(12.4283 0.664204 -0.0986857)
(12.7723 0.778888 -0.200157)
(13.3993 0.864475 -0.240883)
(14.0113 0.903946 -0.241398)
(14.5676 0.896035 -0.21614)
(15.041 0.848634 -0.179677)
(15.3989 0.784072 -0.141713)
(15.6362 0.721 -0.103387)
(15.7618 0.66495 -0.0682604)
(15.7899 0.614415 -0.0385689)
(15.7325 0.569746 -0.0149707)
(15.6054 0.529717 0.00322003)
(15.4242 0.505456 0.01289)
(15.2474 0.460926 0.026458)
(14.917 0.473458 0.00907017)
(19.9996 0.000663362 0.000276934)
(19.9965 0.00260329 0.000928521)
(19.9892 0.00578292 0.00179571)
(19.9758 0.0114275 0.00310488)
(19.9531 0.0219597 0.0052631)
(19.9148 0.0423254 0.00902356)
(19.8502 0.0841405 0.0156138)
(19.7453 0.174471 0.0281283)
(19.5912 0.376331 0.0458312)
(19.4578 0.855356 0.0834719)
(19.4501 1.34684 0.0291701)
(20.6392 1.98747 0.0690343)
(21.0987 1.59939 0.314057)
(22.0461 1.07792 0.23913)
(21.2359 -0.14394 0.346029)
(20.6295 -0.35217 0.323717)
(20.3784 -0.389009 0.31429)
(20.2751 -0.396915 0.298092)
(20.2055 -0.387855 0.282928)
(20.15 -0.372415 0.268368)
(20.1095 -0.359329 0.251682)
(20.0746 -0.341143 0.233051)
(20.0386 -0.311987 0.216245)
(19.9988 -0.274448 0.203127)
(19.9472 -0.233329 0.194304)
(19.8704 -0.190549 0.189528)
(19.7668 -0.147766 0.189067)
(19.6113 -0.101758 0.190025)
(19.4837 -0.0663815 0.198426)
(19.1216 -0.00276143 0.199209)
(19.9997 0.000935922 0.000267505)
(19.997 0.00347853 0.000888622)
(19.9908 0.00748474 0.001709)
(19.9799 0.0144342 0.00292294)
(19.9621 0.0270231 0.00482611)
(19.9337 0.0505373 0.00794673)
(19.8905 0.0955985 0.0132592)
(19.8295 0.184624 0.0223911)
(19.7641 0.356107 0.0372159)
(19.7469 0.675568 0.058363)
(19.9913 1.11892 0.073209)
(20.5091 1.02901 0.0994258)
(20.8916 0.786944 0.160518)
(20.9555 0.283443 0.146391)
(20.7109 -0.169514 0.0980752)
(20.4101 -0.248011 0.0610881)
(20.2561 -0.200838 0.0376524)
(20.2019 -0.145938 0.021368)
(20.1745 -0.0929939 0.0107251)
(20.1586 -0.0454611 0.00526809)
(20.1544 -0.0115501 0.00312986)
(20.1529 0.0118348 0.00298872)
(20.1472 0.0309373 0.00467064)
(20.1389 0.0474998 0.00830593)
(20.133 0.061013 0.0140731)
(20.1318 0.0717495 0.021874)
(20.136 0.082688 0.0319584)
(20.1394 0.0923091 0.0438956)
(20.1524 0.110517 0.0571126)
(20.1468 0.117485 0.0769113)
(19.9997 0.00108734 0.000255547)
(19.9976 0.00393536 0.000844563)
(19.9927 0.00830798 0.00160602)
(19.9844 0.015718 0.00268677)
(19.9715 0.0287538 0.00432029)
(19.9526 0.0520858 0.00690056)
(19.9271 0.0941907 0.0110496)
(19.8974 0.169707 0.0177403)
(19.8803 0.299842 0.0280687)
(19.9085 0.496244 0.0413626)
(20.0983 0.746546 0.0541429)
(20.4369 0.733021 0.0626142)
(20.6922 0.489299 0.0753902)
(20.7297 0.145123 0.063047)
(20.5868 -0.13201 0.0320943)
(20.3949 -0.213084 0.0112431)
(20.2733 -0.203338 0.00456072)
(20.2194 -0.183492 0.00213466)
(20.1907 -0.163849 -0.000101563)
(20.1718 -0.143599 -0.00142408)
(20.1631 -0.128256 -0.00187295)
(20.1592 -0.11918 -0.00201056)
(20.1539 -0.113399 -0.00189295)
(20.1471 -0.108904 -0.00107607)
(20.1412 -0.104996 0.000530252)
(20.1373 -0.100445 0.00257971)
(20.1353 -0.0935322 0.00501476)
(20.1347 -0.0844701 0.00781151)
(20.1345 -0.0724179 0.0104324)
(20.1452 -0.0594272 0.015031)
(19.9998 0.00110919 0.000243226)
(19.9981 0.00395229 0.000797892)
(19.9946 0.00822967 0.00149528)
(19.9887 0.0153248 0.00245612)
(19.9804 0.0274714 0.0038592)
(19.9694 0.0483826 0.00597045)
(19.9573 0.0841032 0.00915992)
(19.9484 0.143454 0.0139583)
(19.957 0.236518 0.0207564)
(20.0061 0.36104 0.0291342)
(20.1467 0.498515 0.0367409)
(20.3705 0.48919 0.0392733)
(20.5507 0.31788 0.0398153)
(20.5915 0.0972751 0.0302199)
(20.5085 -0.0770469 0.0130012)
(20.3827 -0.142247 0.000494882)
(20.2903 -0.137832 -0.00457047)
(20.2422 -0.117368 -0.00706941)
(20.215 -0.0955418 -0.00920618)
(20.1961 -0.0728531 -0.0104091)
(20.1847 -0.0535852 -0.0106084)
(20.1778 -0.0403434 -0.0103401)
(20.1709 -0.0308001 -0.00979307)
(20.1635 -0.0220875 -0.00872191)
(20.1576 -0.0132091 -0.00710265)
(20.154 -0.0040745 -0.00520776)
(20.152 0.00528919 -0.00319336)
(20.1499 0.0143182 -0.0011535)
(20.1485 0.0226397 0.000653103)
(20.1435 0.030154 0.00372898)
(19.9998 0.00100683 0.000231763)
(19.9987 0.00355378 0.000754281)
(19.9962 0.00732425 0.00139714)
(19.9925 0.0134665 0.00225768)
(19.9879 0.0237369 0.00346616)
(19.9831 0.0408508 0.00519472)
(19.9805 0.0688137 0.00765598)
(19.9849 0.112619 0.0110971)
(20.0072 0.176364 0.0156133)
(20.062 0.254091 0.0206551)
(20.1712 0.327968 0.0251219)
(20.3264 0.318704 0.0261394)
(20.4565 0.21121 0.0247488)
(20.4963 0.068002 0.0178219)
(20.448 -0.0474226 0.00742787)
(20.3635 -0.0986032 -0.000854469)
(20.2929 -0.102005 -0.00470204)
(20.2493 -0.0912875 -0.00603023)
(20.2217 -0.0800625 -0.00656849)
(20.2011 -0.0693368 -0.00655698)
(20.1866 -0.0609955 -0.00603362)
(20.1767 -0.0564603 -0.0052798)
(20.1686 -0.053782 -0.00444245)
(20.1615 -0.0505506 -0.0034646)
(20.1561 -0.0462815 -0.00235619)
(20.1529 -0.0417416 -0.00127319)
(20.1509 -0.0376042 -0.000308452)
(20.1489 -0.034123 0.000545908)
(20.1469 -0.031248 0.00126523)
(20.1462 -0.0275892 0.00254823)
(19.9999 0.000798196 0.000221913)
(19.9991 0.00280175 0.000717483)
(19.9976 0.0057314 0.00131734)
(19.9955 0.0104376 0.0020987)
(19.9937 0.0181644 0.00315642)
(19.9933 0.0307253 0.00460162)
(19.9971 0.0505705 0.00655062)
(20.0096 0.0803332 0.00909656)
(20.0387 0.121224 0.0121693)
(20.0937 0.167725 0.0153222)
(20.1834 0.206878 0.0178297)
(20.2988 0.200284 0.0180338)
(20.397 0.135708 0.0160079)
(20.4341 0.0454447 0.0108306)
(20.407 -0.0281779 0.00408272)
(20.3485 -0.0635041 -0.00144094)
(20.2932 -0.0686119 -0.00429447)
(20.2539 -0.0627964 -0.0053398)
(20.2268 -0.0555697 -0.00578408)
(20.2063 -0.0478724 -0.00595157)
(20.1912 -0.0403576 -0.00580888)
(20.1809 -0.0340113 -0.00548066)
(20.1732 -0.0282144 -0.00512083)
(20.1669 -0.022019 -0.00476046)
(20.1618 -0.0156744 -0.00438952)
(20.1581 -0.0101123 -0.004025)
(20.1554 -0.00584104 -0.00367477)
(20.1527 -0.00261787 -0.00329616)
(20.1506 -9.61036e-05 -0.00291932)
(20.1465 0.00296914 -0.00211958)
(19.9999 0.000509525 0.000214407)
(19.9994 0.00178863 0.000690613)
(19.9985 0.00364189 0.00125983)
(19.9976 0.00658889 0.00198569)
(19.9976 0.0113671 0.00294049)
(20.0001 0.0190065 0.00419809)
(20.0077 0.0308023 0.00582196)
(20.0247 0.0479917 0.0078238)
(20.0571 0.0707031 0.0100644)
(20.1108 0.0953817 0.0121859)
(20.1888 0.114422 0.0136439)
(20.2821 0.109965 0.0135289)
(20.3616 0.0752204 0.0115188)
(20.3965 0.0257536 0.00753296)
(20.3815 -0.0149671 0.00271075)
(20.3381 -0.0355094 -0.00134384)
(20.2922 -0.0396774 -0.00371529)
(20.2561 -0.0370891 -0.00474641)
(20.2296 -0.0331393 -0.00516995)
(20.2092 -0.0286683 -0.00528299)
(20.1939 -0.0240841 -0.00511397)
(20.183 -0.0202071 -0.00477339)
(20.1749 -0.0171345 -0.00440551)
(20.1681 -0.0145566 -0.00404894)
(20.1623 -0.012558 -0.00366703)
(20.1578 -0.0114287 -0.00323443)
(20.1545 -0.0110942 -0.00276456)
(20.1516 -0.0111183 -0.00224937)
(20.1491 -0.0109339 -0.00179848)
(20.147 -0.0104323 -0.00103769)
(19.9999 0.00017441 0.000210831)
(19.9995 0.000615253 0.000678031)
(19.9989 0.0012508 0.00123313)
(19.9986 0.0022552 0.00193345)
(19.9996 0.00387223 0.00284069)
(20.0034 0.00643515 0.00401214)
(20.0129 0.0103439 0.00548602)
(20.0319 0.0159613 0.00723623)
(20.0656 0.0232355 0.00910237)
(20.1184 0.030958 0.0107731)
(20.1909 0.0366236 0.0118014)
(20.2743 0.0350121 0.0115514)
(20.3454 0.0240675 0.00962328)
(20.3792 0.00839628 0.00621998)
(20.3695 -0.0046371 0.00221406)
(20.333 -0.0114303 -0.0012145)
(20.2915 -0.0130414 -0.0033477)
(20.2571 -0.0123392 -0.00433529)
(20.231 -0.0110444 -0.00471822)
(20.2108 -0.00949763 -0.00480481)
(20.1953 -0.00785633 -0.00466828)
(20.184 -0.00642994 -0.00439269)
(20.1756 -0.00530557 -0.00408685)
(20.1686 -0.00438026 -0.00377723)
(20.1626 -0.0036196 -0.003434)
(20.158 -0.00303404 -0.00304638)
(20.1547 -0.00253919 -0.0026538)
(20.1521 -0.00193336 -0.00227905)
(20.1501 -0.00116786 -0.0020218)
(20.1468 9.02423e-05 -0.00161637)
(20 -0.00023436 0.000607323)
(20 -0.000731973 0.00192258)
(20.0002 -0.00139529 0.00346462)
(20.0008 -0.00240686 0.00540001)
(20.003 -0.00400485 0.00790326)
(20.0083 -0.00650355 0.0111389)
(20.0194 -0.0102661 0.0151904)
(20.0402 -0.0155687 0.0200259)
(20.0755 -0.0222791 0.0252309)
(20.129 -0.0291104 0.029702)
(20.2002 -0.0333176 0.0317815)
(20.2785 -0.030143 0.0295956)
(20.3397 -0.0178392 0.0224764)
(20.3601 -0.00260953 0.012431)
(20.3389 0.00776374 0.00320448)
(20.2967 0.0115509 -0.00244077)
(20.2548 0.0107367 -0.00408337)
(20.2232 0.00803571 -0.00305034)
(20.2019 0.00519746 -0.00105259)
(20.1878 0.00264461 0.00100186)
(20.179 0.000515296 0.00300541)
(20.1747 -0.000898547 0.00484418)
(20.1733 -0.00156261 0.0062586)
(20.173 -0.00177475 0.00714946)
(20.1729 -0.00182827 0.0076417)
(20.1726 -0.00185127 0.00787249)
(20.1722 -0.00186364 0.0079293)
(20.1711 -0.00189919 0.00789039)
(20.1701 -0.00193616 0.00777427)
(20.1666 -0.00207942 0.0077778)
(20 -0.000681927 0.00061753)
(19.9999 -0.00213376 0.00195869)
(19.9997 -0.00407777 0.0035415)
(19.9998 -0.00705516 0.00554927)
(20.001 -0.0117845 0.0081844)
(20.0051 -0.019239 0.0116548)
(20.0145 -0.0305997 0.0161106)
(20.0337 -0.0468316 0.0215878)
(20.0681 -0.067795 0.0277351)
(20.1231 -0.0896793 0.033367)
(20.2003 -0.104077 0.0365313)
(20.2887 -0.0945777 0.034477)
(20.3574 -0.0548796 0.02613)
(20.3766 -0.00637842 0.0142165)
(20.3484 0.0259322 0.00339008)
(20.2992 0.0372607 -0.00304123)
(20.2529 0.0341634 -0.00457709)
(20.2196 0.0255869 -0.00301711)
(20.1979 0.016884 -0.000568204)
(20.1837 0.0089463 0.00184919)
(20.1753 0.00207828 0.00422103)
(20.1715 -0.00274853 0.00635764)
(20.1707 -0.00531898 0.00794447)
(20.1708 -0.00634731 0.00895879)
(20.1709 -0.00654076 0.00958874)
(20.1708 -0.00621886 0.00998399)
(20.1706 -0.00551391 0.0101957)
(20.1698 -0.00462287 0.010265)
(20.169 -0.00381446 0.0102047)
(20.1662 -0.0029607 0.0102043)
(20 -0.00107343 0.000639154)
(19.9996 -0.00336044 0.00203533)
(19.9987 -0.00643984 0.0037041)
(19.9977 -0.0111961 0.00586341)
(19.9972 -0.0188435 0.00877475)
(19.9985 -0.0310988 0.0127418)
(20.0044 -0.0502252 0.0180709)
(20.0195 -0.0783784 0.0249563)
(20.0514 -0.11621 0.0331959)
(20.1089 -0.157768 0.0415443)
(20.1987 -0.188417 0.0472443)
(20.3097 -0.172129 0.0454322)
(20.3946 -0.0963876 0.0343597)
(20.4105 -0.00740696 0.0185593)
(20.3669 0.0496525 0.00434379)
(20.3032 0.0681089 -0.00364189)
(20.249 0.060164 -0.00465464)
(20.2135 0.0436401 -0.00175819)
(20.1921 0.0283185 0.00174223)
(20.1787 0.0149538 0.00504137)
(20.1714 0.00362788 0.00826798)
(20.1693 -0.00445034 0.0109574)
(20.1701 -0.00944572 0.0126537)
(20.1712 -0.012618 0.0134775)
(20.172 -0.0147898 0.013835)
(20.1724 -0.0160499 0.0139732)
(20.1725 -0.0164183 0.0139691)
(20.1718 -0.016201 0.0138595)
(20.1711 -0.0158948 0.0136586)
(20.1671 -0.0151704 0.0136394)
(19.9999 -0.00138005 0.000668733)
(19.9991 -0.00431835 0.00214125)
(19.9974 -0.00829884 0.00393064)
(19.9947 -0.0145205 0.00630687)
(19.9914 -0.0247031 0.00962411)
(19.9885 -0.0414245 0.0143425)
(19.9884 -0.0684183 0.0210434)
(19.9963 -0.109961 0.0302515)
(20.0227 -0.169216 0.0421545)
(20.0819 -0.239522 0.0555299)
(20.1931 -0.29975 0.0655866)
(20.3454 -0.27339 0.0639278)
(20.4581 -0.141852 0.0484773)
(20.4661 -0.000725076 0.0263766)
(20.3957 0.0844198 0.00624627)
(20.3076 0.108834 -0.00439282)
(20.2405 0.0917001 -0.00424538)
(20.2028 0.0628121 0.000548732)
(20.183 0.0370497 0.00521307)
(20.1714 0.0159133 0.00981915)
(20.1661 0.000719871 0.0148009)
(20.1662 -0.00713609 0.0190951)
(20.1684 -0.00959437 0.0219261)
(20.1702 -0.00974405 0.0235134)
(20.1714 -0.00910869 0.0244211)
(20.1724 -0.00778117 0.0249321)
(20.1732 -0.00573162 0.025157)
(20.1729 -0.00337806 0.0251726)
(20.1721 -0.00139505 0.0251191)
(20.1709 -3.45425e-05 0.025163)
(19.9999 -0.00157236 0.000705065)
(19.9986 -0.00491158 0.0022658)
(19.9957 -0.00946478 0.00420082)
(19.9908 -0.0166794 0.00685039)
(19.9839 -0.028756 0.0106926)
(19.9751 -0.0492345 0.016422)
(19.9661 -0.0837911 0.0250677)
(19.9619 -0.140255 0.0377569)
(19.9767 -0.227353 0.0555808)
(20.0332 -0.341564 0.0770362)
(20.1793 -0.458519 0.0946081)
(20.4064 -0.419277 0.0939812)
(20.5609 -0.192341 0.0731015)
(20.5493 0.0232855 0.0406272)
(20.436 0.142365 0.01001)
(20.3112 0.167044 -0.00426422)
(20.225 0.135596 -0.000166714)
(20.1845 0.0926794 0.00853746)
(20.1679 0.0517218 0.014502)
(20.1609 0.0133669 0.019569)
(20.1617 -0.0169797 0.0247387)
(20.1674 -0.0354176 0.0285934)
(20.1729 -0.0449964 0.030541)
(20.176 -0.0503862 0.0314071)
(20.1777 -0.0537288 0.0318916)
(20.179 -0.0552005 0.0321302)
(20.1799 -0.0548616 0.0321302)
(20.1791 -0.0530981 0.0320372)
(20.1783 -0.0513643 0.0320489)
(20.1718 -0.0468494 0.0331308)
(19.9998 -0.0016312 0.000744193)
(19.998 -0.00506802 0.0024017)
(19.9938 -0.00978741 0.00448355)
(19.9864 -0.0173815 0.00743334)
(19.9751 -0.0303916 0.0118936)
(19.9587 -0.0533223 0.0188755)
(19.9371 -0.094171 0.0300623)
(19.9135 -0.166434 0.0477769)
(19.9053 -0.289226 0.074268)
(19.9454 -0.472449 0.108664)
(20.1494 -0.701222 0.140957)
(20.5095 -0.630368 0.145521)
(20.7269 -0.258587 0.118921)
(20.6692 0.0640394 0.0685481)
(20.4847 0.238194 0.018281)
(20.3068 0.243077 -0.00407485)
(20.1995 0.17978 0.00525917)
(20.1564 0.126458 0.0222595)
(20.1397 0.0860816 0.0367884)
(20.1346 0.0505764 0.0506559)
(20.1416 0.0252521 0.062599)
(20.1546 0.0137424 0.0700162)
(20.1651 0.0113686 0.0735984)
(20.1714 0.0124658 0.07552)
(20.1758 0.0146256 0.0768482)
(20.18 0.0173737 0.077453)
(20.1837 0.0201904 0.0771622)
(20.1856 0.0224614 0.0761549)
(20.1866 0.0227888 0.0754201)
(20.1882 0.0216124 0.0740099)
(19.9997 -0.00154715 0.000781645)
(19.9973 -0.00477011 0.00253819)
(19.9918 -0.00918086 0.00476985)
(19.9819 -0.0163989 0.00798668)
(19.9656 -0.0290799 0.0130809)
(19.9401 -0.052266 0.0214696)
(19.9015 -0.0961048 0.0357718)
(19.8486 -0.181746 0.060201)
(19.7954 -0.345454 0.0992676)
(19.795 -0.653113 0.153894)
(20.0715 -1.10184 0.211363)
(20.6567 -0.862212 0.237768)
(20.9686 -0.319997 0.22384)
(20.8403 0.141647 0.14508)
(20.5372 0.412517 0.0703555)
(20.2716 0.368505 0.0427537)
(20.1525 0.218319 0.0469506)
(20.1273 0.0975253 0.055941)
(20.1229 0.00916124 0.0685144)
(20.1266 -0.0592084 0.0867528)
(20.1437 -0.104367 0.103013)
(20.1649 -0.128128 0.112931)
(20.1791 -0.138636 0.118529)
(20.1855 -0.141989 0.123987)
(20.188 -0.140204 0.130689)
(20.1882 -0.134332 0.138003)
(20.1863 -0.126302 0.145616)
(20.1777 -0.115999 0.152888)
(20.1723 -0.10991 0.163072)
(20.14 -0.0928727 0.175662)
(19.9997 -0.00132809 0.000814887)
(19.9968 -0.00402175 0.00265575)
(19.99 -0.00768542 0.00504162)
(19.9776 -0.013667 0.00850797)
(19.9566 -0.0244723 0.014123)
(19.9214 -0.0449762 0.0236417)
(19.8624 -0.0859995 0.0412381)
(19.7669 -0.17379 0.0734524)
(19.6271 -0.366783 0.129028)
(19.5018 -0.862627 0.21255)
(19.649 -1.46494 0.227808)
(20.6338 -1.82349 0.269452)
(21.318 -0.605003 0.462321)
(21.0958 0.0831337 0.399867)
(20.5172 0.741558 0.272415)
(20.1226 0.638188 0.288254)
(20.0003 0.443561 0.3368)
(20.0116 0.293188 0.372744)
(20.0264 0.19363 0.414882)
(20.0276 0.139962 0.465338)
(20.0171 0.126677 0.507445)
(19.9851 0.136966 0.532269)
(19.9228 0.155456 0.544493)
(19.8324 0.17568 0.550526)
(19.7201 0.196632 0.552692)
(19.5882 0.216115 0.550748)
(19.4398 0.23282 0.54483)
(19.2663 0.239355 0.533316)
(19.1153 0.256602 0.526494)
(18.8085 0.231523 0.498827)
(19.9996 -0.000994113 0.000840026)
(19.9963 -0.00289935 0.00274411)
(19.9886 -0.00539824 0.00523695)
(19.9743 -0.00944221 0.00894274)
(19.9495 -0.0167979 0.0150058)
(19.9057 -0.0307431 0.0253994)
(19.8276 -0.0607373 0.0455894)
(19.6783 -0.128188 0.0845041)
(19.4078 -0.306456 0.156053)
(18.8764 -0.840158 0.279562)
(18.7388 -2.07502 0.22724)
(20.5685 -3.44034 0.0553063)
(21.7693 -0.957082 1.17068)
(21.2315 0.0405988 1.18363)
(18.4267 1.51894 1.18241)
(17.5003 1.12133 1.02769)
(16.955 0.703598 1.00263)
(16.5643 0.361187 0.96258)
(16.1235 0.0916829 0.917188)
(15.6713 -0.0937203 0.860442)
(15.278 -0.200757 0.777173)
(14.9804 -0.255068 0.670758)
(14.793 -0.280527 0.560116)
(14.7177 -0.286853 0.457988)
(14.7517 -0.276618 0.368667)
(14.8899 -0.253377 0.291567)
(15.1059 -0.222329 0.221847)
(15.371 -0.196866 0.158757)
(15.6157 -0.157867 0.0973126)
(16.018 -0.139027 0.0312542)
(19.9996 -0.000581197 0.000854152)
(19.9961 -0.00152059 0.00279494)
(19.9878 -0.00258626 0.00534556)
(19.9724 -0.00418376 0.00917976)
(19.9453 -0.00699564 0.0155546)
(19.8965 -0.0123707 0.0267833)
(19.8068 -0.0239611 0.048584)
(19.6209 -0.0493878 0.0916141)
(19.2229 -0.127092 0.172801)
(18.1015 -0.385173 0.315394)
(16.2458 -1.649 -0.0690484)
(19.8641 -11.2092 -4.40712)
(15.4724 -5.90939 12.444)
(13.2161 0.852538 2.96912)
(4.2035 1.9141 -1.18375)
(7.11518 1.43438 -1.21034)
(9.68348 1.00599 -1.0203)
(11.5673 0.69176 -0.889924)
(12.8574 0.471624 -0.781748)
(13.8028 0.327326 -0.701179)
(14.5467 0.234149 -0.660359)
(15.1433 0.163505 -0.645484)
(15.6304 0.105932 -0.639218)
(16.0439 0.0609551 -0.635037)
(16.4056 0.02857 -0.632903)
(16.726 0.006927 -0.632056)
(17.0099 -0.00656928 -0.632744)
(17.2728 -0.0154785 -0.628488)
(17.4833 -0.0178172 -0.638357)
(17.7941 -0.0155258 -0.618543)
(19.9996 -0.000134486 0.000856228)
(19.996 -3.25755e-05 0.00279974)
(19.9877 0.000444576 0.00535868)
(19.9722 0.00149592 0.00919651)
(19.9451 0.00366615 0.0155151)
(19.8961 0.00813791 0.0266428)
(19.806 0.0181086 0.0484722)
(19.6191 0.0404041 0.091631)
(19.2193 0.111426 0.173255)
(18.0917 0.351816 0.317902)
(15.6325 0.811496 -0.172976)
(-1.02916 0.396191 -0.72261)
(9.95956 -2.85689 -1.96739)
(12.3188 -2.70576 -1.80693)
(14.1065 -2.33589 -1.57815)
(15.3289 -2.00494 -1.35655)
(16.0932 -1.7376 -1.13813)
(16.5683 -1.53106 -0.945736)
(16.8578 -1.37429 -0.798072)
(17.0154 -1.25257 -0.690484)
(17.0873 -1.14861 -0.60747)
(17.1144 -1.05336 -0.542744)
(17.1224 -0.963516 -0.495056)
(17.1254 -0.877691 -0.461626)
(17.1305 -0.796425 -0.440372)
(17.1574 -0.716749 -0.425022)
(17.1765 -0.656308 -0.425464)
(17.2997 -0.540897 -0.421072)
(19.9996 0.000297638 0.000846885)
(19.9962 0.00138327 0.00275165)
(19.9883 0.00336181 0.00528102)
(19.9738 0.00694283 0.0089995)
(19.9486 0.0137336 0.0150255)
(19.9043 0.0268229 0.0254005)
(19.8251 0.0553493 0.045735)
(19.6734 0.120179 0.0850477)
(19.3981 0.293121 0.157887)
(18.8507 0.814393 0.286457)
(17.8551 2.10485 0.15115)
(19.672 9.28076 -2.86576)
(17.7127 3.44339 11.6853)
(13.6363 2.30272 1.78894)
(20.206 -1.78748 0.99168)
(19.7876 -1.49468 0.490822)
(19.7711 -1.17003 0.248958)
(19.8072 -0.893645 0.117813)
(19.7754 -0.678575 0.0598042)
(19.6821 -0.52173 0.0487588)
(19.5271 -0.411548 0.0597295)
(19.3219 -0.330737 0.0801623)
(19.0593 -0.263286 0.108267)
(18.7619 -0.206054 0.137746)