/*--------------------------------*- C++ -*----------------------------------*\
| =========                 |                                                 |
| \\      /  F ield         | OpenFOAM: The Open Source CFD Toolbox           |
|  \\    /   O peration     | Version:  2512                                  |
|   \\  /    A nd           | Website:  www.openfoam.com                      |
|    \\/     M anipulation  |                                                 |
\*---------------------------------------------------------------------------*/
FoamFile
{
    version     2.0;
    format      ascii;
    arch        "LSB;label=32;scalar=64";
    class       volScalarField;
    location    "240";
    object      k;
}
// * * * * * * * * * * * * * * * * * * * * * * * * * * * * * * * * * * * * * //

dimensions      [0 2 -2 0 0 0 0];

internalField   nonuniform List<scalar> 
84826
(
0.231932
0.224218
0.216975
0.21016
0.203735
0.197664
0.191927
0.18649
0.181388
0.176595
0.172109
0.167924
0.163977
0.16024
0.156644
0.153159
0.149761
0.14648
0.143312
0.140257
0.137316
0.134486
0.131763
0.129143
0.126621
0.124193
0.121855
0.119603
0.117434
0.115344
0.231933
0.22422
0.21698
0.210169
0.20375
0.19769
0.191964
0.186541
0.181455
0.17668
0.172216
0.168051
0.164125
0.160399
0.156808
0.153319
0.149911
0.146621
0.143443
0.14038
0.13743
0.134591
0.131861
0.129233
0.126705
0.124271
0.121927
0.119669
0.117494
0.115398
0.231934
0.224221
0.216984
0.210177
0.203765
0.197715
0.192005
0.186601
0.181543
0.176805
0.172389
0.168272
0.164393
0.160698
0.157119
0.153627
0.150204
0.146895
0.143699
0.14062
0.137657
0.134807
0.132065
0.129428
0.126891
0.12445
0.1221
0.119838
0.11766
0.115561
0.231934
0.224223
0.216988
0.210185
0.203779
0.19774
0.192045
0.186664
0.181645
0.176965
0.172629
0.168598
0.164798
0.161159
0.157606
0.154112
0.150664
0.147326
0.144104
0.141002
0.138018
0.13515
0.132391
0.129737
0.127184
0.124726
0.122361
0.120085
0.117893
0.115782
0.231934
0.224224
0.21699
0.21019
0.20379
0.197761
0.192084
0.186731
0.181762
0.177163
0.172851
0.16886
0.165196
0.16166
0.158167
0.15468
0.151204
0.147833
0.144585
0.141468
0.138481
0.135622
0.132886
0.130264
0.127749
0.125332
0.123008
0.120768
0.118606
0.116511
0.231934
0.224225
0.216992
0.210194
0.203799
0.19778
0.192121
0.186802
0.181898
0.177286
0.173075
0.169273
0.165793
0.162404
0.158998
0.155509
0.151985
0.148641
0.145579
0.142854
0.140483
0.138426
0.136615
0.13497
0.133412
0.131872
0.130287
0.128611
0.12681
0.124819
0.231934
0.224225
0.216993
0.210197
0.203806
0.197796
0.192155
0.186893
0.181981
0.177433
0.173675
0.170474
0.16892
0.168931
0.165837
0.162503
0.161735
0.164844
0.170554
0.178151
0.186666
0.195094
0.202735
0.209168
0.214124
0.217477
0.219164
0.219217
0.217639
0.214459
0.231934
0.224224
0.216992
0.210198
0.203811
0.19781
0.192189
0.186982
0.182041
0.177642
0.17352
0.167043
0.162399
0.182584
0.454138
0.461717
0.498627
0.535975
0.567679
0.592869
0.610729
0.621169
0.624959
0.623135
0.616714
0.606529
0.593307
0.577649
0.560099
0.54065
0.231934
0.224223
0.216992
0.210199
0.203815
0.19782
0.192218
0.187037
0.182148
0.177928
0.174345
0.175813
0.216138
1.31417
2.4327
2.18258
1.98099
1.80953
1.66249
1.53669
1.42743
1.33172
1.24766
1.17335
1.10699
1.04712
0.992632
0.94254
0.896663
0.852984
0.231935
0.224226
0.216995
0.210204
0.203822
0.197832
0.19224
0.187043
0.182209
0.178261
0.175836
0.181399
0.335778
2.0472
2.92265
2.47848
2.22478
2.00952
1.82869
1.67705
1.54839
1.43817
1.34303
1.26023
1.18752
1.12307
1.06548
1.01353
0.966807
0.923022
0.231937
0.224229
0.217
0.21021
0.203829
0.197833
0.192241
0.187044
0.182211
0.178264
0.176288
0.180459
3.04598
2.71408
2.28325
2.04235
1.84693
1.68666
1.55538
1.44612
1.35409
1.27587
1.20875
1.1505
1.09927
1.05371
1.01257
0.975597
0.940356
0.231937
0.224227
0.216997
0.210206
0.203823
0.197823
0.192222
0.187043
0.182156
0.177944
0.174835
0.175851
0.350379
1.50405
2.13868
1.89967
1.71181
1.54977
1.40998
1.29017
1.18718
1.09841
1.02176
0.955683
0.898628
0.849367
0.806846
0.770509
0.738627
0.71272
0.231936
0.224225
0.216993
0.210201
0.203815
0.197815
0.192197
0.186993
0.182056
0.177668
0.173801
0.169442
0.182266
0.401864
0.346574
0.31486
0.307636
0.305712
0.303955
0.301782
0.298692
0.294624
0.290018
0.285444
0.281455
0.278458
0.276658
0.276469
0.277332
0.280564
0.231935
0.224225
0.216994
0.2102
0.20381
0.197802
0.192165
0.186908
0.182002
0.177463
0.173732
0.170641
0.1691
0.167778
0.164149
0.160439
0.156719
0.153145
0.149733
0.146487
0.143407
0.140482
0.137706
0.135084
0.132683
0.130618
0.129006
0.127947
0.127643
0.128113
0.231935
0.224225
0.216993
0.210197
0.203803
0.197787
0.192132
0.186818
0.181922
0.17732
0.173126
0.169357
0.16592
0.162527
0.159183
0.155795
0.152402
0.149111
0.145929
0.142855
0.139887
0.137026
0.134266
0.131596
0.129012
0.126509
0.12409
0.121767
0.11955
0.117472
0.231934
0.224225
0.216992
0.210193
0.203794
0.197768
0.192095
0.186748
0.181788
0.177201
0.172904
0.168935
0.165301
0.161823
0.158396
0.154994
0.151625
0.148378
0.14525
0.142238
0.139331
0.136527
0.13382
0.131201
0.128661
0.126192
0.123788
0.121445
0.119162
0.11693
0.231934
0.224223
0.216989
0.210187
0.203782
0.197746
0.192056
0.186681
0.181671
0.177004
0.172686
0.168683
0.164921
0.161327
0.157828
0.154398
0.151035
0.147797
0.144664
0.141634
0.138701
0.135863
0.133117
0.130458
0.127884
0.125392
0.122979
0.120643
0.118381
0.116191
0.231934
0.224222
0.216985
0.210179
0.203768
0.197721
0.192015
0.186617
0.18157
0.176846
0.172448
0.168357
0.164513
0.160857
0.157323
0.153885
0.150529
0.147299
0.144176
0.141158
0.13824
0.135422
0.132699
0.130068
0.127521
0.125056
0.122667
0.12035
0.118105
0.115926
0.231933
0.22422
0.21698
0.21017
0.203752
0.197694
0.191973
0.186558
0.181483
0.176725
0.172282
0.168144
0.16425
0.160561
0.157009
0.153568
0.15022
0.146995
0.143878
0.140866
0.137954
0.135141
0.132423
0.129794
0.127249
0.124786
0.1224
0.120088
0.117849
0.11568
0.231932
0.224217
0.216975
0.21016
0.203735
0.197667
0.191935
0.186507
0.181418
0.176644
0.172181
0.168024
0.16411
0.160408
0.156849
0.15341
0.150068
0.146847
0.143736
0.140728
0.13782
0.135009
0.132293
0.129665
0.127122
0.12466
0.122277
0.119969
0.117735
0.115571
0.238839
0.237494
0.236014
0.234426
0.232751
0.231006
0.229216
0.227406
0.225614
0.223882
0.22221
0.220501
0.218639
0.216689
0.214768
0.212894
0.211016
0.209135
0.207255
0.205379
0.203514
0.201663
0.199832
0.19802
0.196227
0.194464
0.192727
0.191019
0.189341
0.187702
0.238839
0.237494
0.236014
0.234426
0.232751
0.231007
0.229218
0.227416
0.225644
0.223954
0.222359
0.220732
0.218941
0.217031
0.215126
0.213255
0.211369
0.209479
0.207584
0.205692
0.20381
0.201942
0.200091
0.198258
0.196448
0.194665
0.19291
0.191185
0.189489
0.187835
0.238839
0.237494
0.236014
0.234426
0.232751
0.231009
0.229224
0.227441
0.225716
0.224141
0.222756
0.221349
0.219744
0.217939
0.216072
0.214207
0.212302
0.210383
0.208453
0.206525
0.204606
0.202701
0.200811
0.198942
0.1971
0.195286
0.193504
0.191757
0.190045
0.188381
0.23884
0.237494
0.236014
0.234426
0.232752
0.231013
0.229239
0.227493
0.225874
0.224561
0.223648
0.222735
0.221507
0.219915
0.218119
0.216241
0.214276
0.212282
0.210268
0.208251
0.206242
0.204246
0.202261
0.200302
0.198369
0.196465
0.194596
0.192764
0.190973
0.189235
0.23884
0.237495
0.236015
0.234427
0.232754
0.231021
0.229268
0.227594
0.226193
0.225432
0.225318
0.22519
0.224713
0.223572
0.221946
0.220039
0.217936
0.215779
0.213607
0.211444
0.20929
0.207146
0.205018
0.202914
0.200839
0.198799
0.196801
0.194854
0.192964
0.19115
0.23884
0.237497
0.236017
0.234428
0.232757
0.231033
0.229318
0.22778
0.226798
0.226841
0.228027
0.228737
0.229341
0.229099
0.227998
0.226212
0.224029
0.221636
0.219162
0.216699
0.214273
0.21189
0.209548
0.207241
0.204961
0.202707
0.200477
0.198276
0.196113
0.194003
0.23884
0.237497
0.236019
0.234432
0.232762
0.231053
0.229397
0.2281
0.227812
0.229076
0.232579
0.236225
0.238668
0.240094
0.240036
0.238962
0.237955
0.236917
0.235721
0.234399
0.233169
0.232021
0.230894
0.229743
0.228506
0.227127
0.225563
0.223832
0.221942
0.219911
0.23884
0.237497
0.236019
0.234436
0.232772
0.231082
0.229508
0.228575
0.229092
0.232557
0.234517
0.244338
0.250964
0.284261
0.39116
0.388643
0.389745
0.391379
0.393493
0.396359
0.399831
0.403632
0.407481
0.411065
0.413928
0.415506
0.41527
0.412915
0.408244
0.401434
0.23884
0.237497
0.23602
0.234437
0.23278
0.231109
0.229632
0.229121
0.230528
0.237944
0.246848
0.282472
0.372614
1.60214
2.37531
1.9836
1.76906
1.62663
1.5291
1.46272
1.41654
1.37913
1.34462
1.30836
1.26806
1.22509
1.18069
1.13566
1.09087
1.04564
0.23884
0.237497
0.23602
0.234438
0.232784
0.231124
0.229716
0.229417
0.231752
0.243018
0.266432
0.818004
5.03975
3.41235
3.19199
2.70274
2.37971
2.116
1.90756
1.7451
1.6147
1.50873
1.42157
1.34886
1.28724
1.2341
1.18757
1.14581
1.1087
1.07155
0.23884
0.237497
0.23602
0.234438
0.232784
0.231125
0.229719
0.229421
0.23176
0.243034
0.268333
4.59835
2.96143
2.45125
2.13934
1.89994
1.71795
1.58241
1.48117
1.40536
1.34902
1.30728
1.27605
1.25197
1.23251
1.21526
1.19988
1.181
0.23884
0.237497
0.236017
0.234437
0.232781
0.231112
0.229636
0.229128
0.230544
0.237972
0.255276
0.616364
5.46551
4.76531
1.4386
1.21833
1.08271
0.983624
0.910692
0.857458
0.819528
0.792561
0.776011
0.768149
0.768022
0.77461
0.786955
0.804268
0.824821
0.848273
0.238839
0.237497
0.236017
0.234436
0.232773
0.231085
0.229513
0.228586
0.22911
0.232585
0.237774
0.260806
0.281092
0.37534
0.316192
0.305826
0.296637
0.287862
0.279981
0.273144
0.267438
0.262897
0.259728
0.258149
0.258485
0.261113
0.266368
0.274511
0.285617
0.299956
0.238839
0.237497
0.236019
0.234432
0.232764
0.231056
0.229404
0.228114
0.227833
0.229121
0.232679
0.236444
0.239019
0.24029
0.240226
0.239016
0.237329
0.235436
0.233512
0.231633
0.229776
0.227929
0.226089
0.224261
0.222453
0.220694
0.219008
0.217453
0.216095
0.215021
0.23884
0.237497
0.236017
0.234429
0.232759
0.231037
0.229326
0.227797
0.226828
0.226892
0.228119
0.228962
0.229734
0.229648
0.228816
0.227243
0.225296
0.223184
0.221036
0.218895
0.216757
0.214633
0.212528
0.210437
0.208354
0.206276
0.20419
0.20211
0.200042
0.197983
0.23884
0.237495
0.236015
0.234428
0.232756
0.231025
0.229277
0.227613
0.226227
0.225491
0.225411
0.225351
0.224976
0.223996
0.222611
0.22103
0.219263
0.217418
0.215548
0.213672
0.21179
0.209904
0.208015
0.206128
0.204239
0.202347
0.200444
0.198525
0.196595
0.194649
0.23884
0.237494
0.236015
0.234428
0.232755
0.231018
0.229249
0.227512
0.225908
0.224618
0.223739
0.222876
0.221714
0.220213
0.218562
0.216871
0.215105
0.213296
0.211472
0.209644
0.207814
0.205984
0.204151
0.202326
0.200499
0.198669
0.196836
0.194999
0.193162
0.191329
0.238839
0.237494
0.236015
0.234427
0.232754
0.231014
0.229234
0.22746
0.225751
0.224196
0.222837
0.221458
0.219887
0.218133
0.216357
0.214613
0.212847
0.211054
0.209256
0.207457
0.20566
0.203866
0.202075
0.200291
0.198513
0.196743
0.194979
0.19322
0.191469
0.189728
0.238839
0.237494
0.236014
0.234427
0.232753
0.231012
0.229228
0.227435
0.225677
0.224007
0.222435
0.220826
0.219052
0.217172
0.21533
0.213547
0.211769
0.209971
0.208174
0.206379
0.204587
0.2028
0.20102
0.199245
0.197478
0.195722
0.193977
0.192241
0.190517
0.188808
0.238838
0.237493
0.236013
0.234426
0.232752
0.23101
0.229224
0.227423
0.225645
0.223932
0.222282
0.220588
0.218737
0.21681
0.214943
0.213145
0.211359
0.209557
0.207759
0.205963
0.204171
0.202385
0.200606
0.198835
0.197069
0.195317
0.193577
0.191847
0.19013
0.188432
0.239049
0.238078
0.237094
0.236096
0.235084
0.234062
0.233044
0.232052
0.231138
0.230343
0.229646
0.228888
0.227893
0.226744
0.225599
0.224484
0.22335
0.222167
0.220969
0.21976
0.218543
0.217322
0.216102
0.214882
0.213661
0.212444
0.211238
0.210039
0.208848
0.207676
0.239049
0.238078
0.237095
0.236097
0.235085
0.234065
0.233053
0.232075
0.231197
0.230476
0.229904
0.229285
0.228404
0.227329
0.226219
0.225118
0.223986
0.222797
0.221591
0.220371
0.219143
0.217911
0.216679
0.215445
0.214211
0.212985
0.211767
0.210556
0.209353
0.20817
0.239049
0.238078
0.237095
0.236098
0.235088
0.234073
0.233073
0.232132
0.231342
0.230809
0.230558
0.230287
0.229681
0.228783
0.227758
0.226683
0.225542
0.224341
0.223111
0.221864
0.220608
0.219349
0.218086
0.216824
0.215563
0.214314
0.213072
0.211839
0.210616
0.209413
0.23905
0.238079
0.237096
0.236099
0.235092
0.234086
0.23311
0.232239
0.231626
0.231484
0.231659
0.231882
0.231791
0.231304
0.230496
0.229489
0.228338
0.22711
0.225843
0.224558
0.22326
0.221955
0.22064
0.219326
0.218013
0.216706
0.215405
0.214112
0.21283
0.211569
0.23905
0.23808
0.237096
0.236101
0.235099
0.234106
0.233171
0.232424
0.232144
0.232431
0.233336
0.234304
0.23496
0.235115
0.234878
0.234113
0.232988
0.231718
0.2304
0.229068
0.227729
0.226384
0.225028
0.223663
0.222291
0.220911
0.219527
0.218145
0.216771
0.215416
0.239051
0.238081
0.237098
0.236104
0.235108
0.234134
0.233265
0.232732
0.232865
0.233907
0.236223
0.238346
0.240089
0.241052
0.2413
0.241034
0.24022
0.239062
0.237722
0.236289
0.234799
0.233283
0.231742
0.230186
0.228607
0.227005
0.225387
0.22376
0.222136
0.220531
0.239051
0.238082
0.237101
0.236109
0.235119
0.234172
0.2334
0.233217
0.233891
0.236231
0.241052
0.246507
0.250123
0.252872
0.254166
0.254151
0.253623
0.252865
0.25195
0.250907
0.249731
0.248422
0.246977
0.245381
0.243616
0.24169
0.239626
0.237458
0.235224
0.232949
0.239051
0.238083
0.237103
0.236114
0.235133
0.234218
0.233568
0.233707
0.235187
0.239853
0.243339
0.257581
0.268679
0.277201
0.31108
0.315785
0.317083
0.31643
0.314655
0.312273
0.309539
0.306546
0.303392
0.300104
0.296682
0.293091
0.289282
0.285219
0.280884
0.276223
0.239051
0.238084
0.237106
0.236119
0.235148
0.23426
0.23375
0.23419
0.236629
0.245283
0.255068
0.298459
0.510792
0.50615
1.47638
1.24278
1.08546
0.968328
0.874582
0.798467
0.73457
0.68129
0.636391
0.597809
0.564059
0.53409
0.507156
0.482723
0.460475
0.439914
0.239051
0.238084
0.237106
0.236123
0.235157
0.234287
0.23387
0.23452
0.237938
0.25068
0.272689
0.769282
10.2555
5.7222
3.33672
2.57264
2.12251
1.81154
1.58005
1.40514
1.26802
1.15783
1.06737
0.991656
0.927146
0.871292
0.822244
0.778541
0.739362
0.702713
0.239051
0.238084
0.237107
0.236121
0.235155
0.234286
0.23387
0.234519
0.237938
0.250688
0.274242
4.56136
3.2206
2.44905
1.99919
1.69147
1.46549
1.29487
1.1619
1.05708
0.972819
0.904417
0.84854
0.802716
0.765045
0.73391
0.708247
0.68619
0.239051
0.238083
0.237103
0.236117
0.235146
0.23426
0.233751
0.234192
0.236635
0.245297
0.260294
0.664702
13.5429
6.57222
1.3698
1.14299
0.979321
0.857797
0.764871
0.692841
0.636266
0.591513
0.556485
0.52952
0.510146
0.497858
0.492494
0.494004
0.502712
0.516948
0.23905
0.238082
0.2371
0.236114
0.235133
0.23422
0.233572
0.233713
0.235195
0.239866
0.24656
0.276877
0.304237
0.319411
0.305183
0.307966
0.307823
0.305012
0.301068
0.296591
0.291878
0.287037
0.28228
0.27762
0.273266
0.269437
0.266387
0.264346
0.26359
0.264384
0.23905
0.238082
0.237101
0.23611
0.23512
0.234174
0.233405
0.233228
0.233905
0.236256
0.241098
0.246605
0.250396
0.25335
0.254992
0.255355
0.255089
0.254088
0.252733
0.251197
0.249549
0.247831
0.246072
0.244292
0.242532
0.240816
0.239195
0.2377
0.236383
0.235249
0.239051
0.238081
0.237099
0.236105
0.235109
0.234137
0.233271
0.232746
0.232886
0.233938
0.236274
0.238459
0.240304
0.241381
0.241773
0.24163
0.240929
0.239841
0.238604
0.237297
0.235938
0.234537
0.233096
0.231632
0.230141
0.228624
0.227073
0.225506
0.223936
0.22237
0.239051
0.23808
0.237097
0.236102
0.2351
0.234109
0.233178
0.23244
0.232174
0.232474
0.233398
0.234399
0.235117
0.235351
0.235251
0.234761
0.233849
0.232734
0.231534
0.230288
0.229006
0.227693
0.226353
0.224996
0.223625
0.222245
0.220853
0.219447
0.218036
0.216632
0.23905
0.238079
0.237096
0.2361
0.235094
0.234089
0.233118
0.232256
0.231658
0.231533
0.231727
0.231976
0.231923
0.231525
0.230849
0.229997
0.228982
0.227867
0.226696
0.225487
0.22425
0.222993
0.221714
0.220426
0.219126
0.217817
0.216502
0.215173
0.213837
0.212504
0.239049
0.238078
0.237095
0.236098
0.23509
0.234077
0.233082
0.23215
0.231375
0.230862
0.230634
0.230381
0.229791
0.228926
0.227971
0.22699
0.22594
0.224827
0.223675
0.222495
0.221295
0.220079
0.218849
0.217609
0.216359
0.215105
0.213844
0.212578
0.211311
0.210049
0.239049
0.238078
0.237095
0.236097
0.235087
0.234069
0.233062
0.232093
0.23123
0.230529
0.229978
0.229369
0.228486
0.227419
0.22635
0.225311
0.224244
0.223132
0.221992
0.22083
0.21965
0.218456
0.217251
0.216035
0.21481
0.213581
0.212349
0.211115
0.209881
0.208653
0.239049
0.238077
0.237094
0.236096
0.235084
0.234065
0.233051
0.232068
0.231168
0.230392
0.229714
0.228962
0.227961
0.22681
0.225694
0.224629
0.223552
0.22244
0.221301
0.220142
0.218967
0.217778
0.216579
0.215373
0.214156
0.212936
0.211715
0.210492
0.209268
0.208055
0.239058
0.238111
0.23717
0.236234
0.235305
0.234388
0.233492
0.232646
0.231887
0.231249
0.230707
0.230118
0.229344
0.22845
0.227569
0.226714
0.225843
0.224937
0.224014
0.22308
0.222139
0.221194
0.220248
0.219302
0.218355
0.217408
0.216464
0.215524
0.214588
0.213667
0.239058
0.238111
0.23717
0.236235
0.235307
0.234392
0.233502
0.232669
0.231945
0.231374
0.230947
0.230488
0.229823
0.229001
0.228163
0.227331
0.22647
0.225567
0.224644
0.223709
0.222765
0.221817
0.220867
0.219916
0.218963
0.218011
0.21706
0.216114
0.215172
0.214243
0.239058
0.238111
0.23717
0.236236
0.23531
0.234399
0.233524
0.232724
0.232081
0.231682
0.231543
0.231402
0.231
0.230349
0.22961
0.228824
0.227976
0.227075
0.22615
0.225208
0.224255
0.223296
0.222333
0.221369
0.220401
0.219435
0.218472
0.217513
0.216557
0.215614
0.239058
0.238111
0.237171
0.236237
0.235314
0.234412
0.233561
0.232825
0.232342
0.232289
0.232563
0.232883
0.23296
0.232684
0.232167
0.231473
0.230647
0.22975
0.228822
0.227876
0.226916
0.225945
0.224965
0.223975
0.22298
0.221981
0.220984
0.219988
0.218994
0.218012
0.239059
0.238112
0.237172
0.236239
0.23532
0.234432
0.233618
0.232995
0.232805
0.233158
0.234038
0.234985
0.235694
0.235979
0.235966
0.235517
0.234783
0.233941
0.233045
0.232128
0.2312
0.230261
0.229305
0.228327
0.227328
0.22631
0.225277
0.224231
0.223179
0.222126
0.239059
0.238112
0.237172
0.236242
0.235329
0.234458
0.233704
0.233269
0.233474
0.234441
0.236417
0.23847
0.240031
0.241051
0.241513
0.241566
0.241241
0.240693
0.239997
0.239197
0.238321
0.237383
0.23638
0.235322
0.234204
0.23304
0.231837
0.230604
0.229355
0.228101
0.239059
0.238113
0.237173
0.236245
0.235339
0.234492
0.233824
0.233684
0.234344
0.236335
0.240293
0.244706
0.247886
0.250244
0.251524
0.251935
0.252025
0.251769
0.251301
0.2507
0.24998
0.249144
0.248186
0.247105
0.245891
0.244555
0.243106
0.241561
0.239951
0.238278
0.23906
0.238115
0.237176
0.236248
0.23535
0.234531
0.233968
0.234149
0.235425
0.239251
0.242523
0.253997
0.262647
0.267959
0.281497
0.282678
0.28315
0.282941
0.281968
0.280468
0.278567
0.276323
0.27379
0.270998
0.268009
0.264865
0.261611
0.258294
0.254968
0.251634
0.239061
0.238116
0.237179
0.236253
0.235364
0.234565
0.234115
0.234545
0.236577
0.243212
0.250778
0.279621
0.338398
0.355148
0.482478
0.451079
0.424329
0.401661
0.382355
0.365922
0.351613
0.33913
0.32813
0.318421
0.309742
0.301926
0.294846
0.288389
0.282478
0.277005
0.239061
0.238117
0.237181
0.236259
0.235375
0.234594
0.234222
0.234818
0.23755
0.247265
0.26154
0.646755
17.1837
7.06517
2.42281
1.91919
1.58842
1.35842
1.18887
1.06221
0.962599
0.882403
0.817213
0.762718
0.71635
0.676223
0.64096
0.609441
0.580856
0.554355
0.23906
0.238116
0.237181
0.236257
0.23537
0.234593
0.234221
0.234816
0.237547
0.247261
0.262946
0.693502
8.80531
8.96061
2.59668
2.07813
1.73137
1.48733
1.30593
1.16516
1.05187
0.958613
0.879752
0.811553
0.752261
0.699922
0.653437
0.61205
0.575111
0.542243
0.239059
0.238114
0.237177
0.236251
0.235359
0.234565
0.234115
0.234547
0.236578
0.243211
0.253294
0.506419
7.3513
7.03482
0.48162
0.457185
0.433549
0.412752
0.394735
0.379002
0.365101
0.352708
0.341559
0.331434
0.32236
0.314206
0.30703
0.300803
0.295558
0.291193
0.239058
0.238114
0.237174
0.236249
0.23535
0.234532
0.233971
0.234153
0.235429
0.23925
0.244741
0.26468
0.279413
0.287806
0.28018
0.281183
0.281064
0.27966
0.2776
0.275261
0.272777
0.270187
0.267548
0.264862
0.262202
0.259606
0.257155
0.254883
0.252869
0.251155
0.239059
0.238113
0.237174
0.236245
0.23534
0.234494
0.233828
0.233693
0.234353
0.236347
0.24029
0.244706
0.247966
0.250387
0.251846
0.252457
0.252562
0.252211
0.251459
0.250472
0.249325
0.248053
0.246683
0.245241
0.243756
0.242248
0.240759
0.239308
0.237927
0.236635
0.239059
0.238112
0.237173
0.236242
0.23533
0.234461
0.23371
0.233281
0.23349
0.234462
0.236441
0.2385
0.240106
0.241191
0.241754
0.241879
0.24156
0.240902
0.240079
0.239168
0.238197
0.237175
0.236101
0.23499
0.233839
0.232664
0.231462
0.230246
0.229026
0.227816
0.239059
0.238112
0.237172
0.23624
0.235322
0.234434
0.233624
0.233009
0.232831
0.233192
0.234083
0.235043
0.235783
0.236118
0.236178
0.23588
0.235242
0.234456
0.233591
0.23268
0.23173
0.230745
0.22973
0.228689
0.227631
0.226562
0.225485
0.224398
0.22331
0.222233
0.239058
0.238112
0.237171
0.236238
0.235315
0.234416
0.233568
0.23284
0.232371
0.232336
0.232623
0.232956
0.233057
0.232856
0.232435
0.231846
0.231105
0.230277
0.229396
0.228475
0.227523
0.226548
0.225555
0.224547
0.223527
0.222497
0.221465
0.220425
0.219382
0.218346
0.239058
0.238111
0.237171
0.236236
0.235311
0.234403
0.233531
0.23274
0.232111
0.23173
0.231613
0.231489
0.231101
0.23048
0.229795
0.229072
0.228283
0.227436
0.226553
0.225643
0.22471
0.223762
0.222801
0.221831
0.220847
0.21986
0.218867
0.217871
0.216874
0.215884
0.239058
0.238111
0.23717
0.236235
0.235308
0.234395
0.23351
0.232686
0.231974
0.231423
0.231015
0.230569
0.229906
0.229092
0.228284
0.227495
0.226678
0.22582
0.224938
0.224034
0.223114
0.222179
0.221235
0.220281
0.219318
0.21835
0.217377
0.216404
0.21543
0.214464
0.239058
0.23811
0.237169
0.236234
0.235306
0.234391
0.233499
0.23266
0.231915
0.231295
0.230772
0.230194
0.229418
0.228525
0.227664
0.226843
0.226011
0.225147
0.224261
0.223356
0.222435
0.221503
0.220561
0.219612
0.218657
0.217694
0.216731
0.215766
0.214801
0.213845
0.239058
0.238113
0.237175
0.236244
0.235324
0.234418
0.233533
0.232697
0.231935
0.231268
0.230673
0.230047
0.229295
0.228468
0.227658
0.226869
0.22607
0.22525
0.224419
0.223581
0.222741
0.221899
0.221059
0.220221
0.219386
0.218553
0.217722
0.216895
0.216073
0.215265
0.239058
0.238113
0.237175
0.236245
0.235325
0.234421
0.233541
0.232717
0.231982
0.231367
0.230859
0.230335
0.229668
0.2289
0.228128
0.227361
0.226575
0.225761
0.224935
0.224101
0.223262
0.222422
0.221583
0.220745
0.219909
0.219075
0.218242
0.217413
0.21659
0.215779
0.239058
0.238113
0.237175
0.236246
0.235328
0.234428
0.233559
0.232763
0.232091
0.231607
0.231318
0.231043
0.230582
0.229957
0.229273
0.228553
0.22779
0.226987
0.226169
0.225338
0.224501
0.22366
0.222818
0.221976
0.221136
0.220296
0.219458
0.218623
0.217793
0.216975
0.239058
0.238113
0.237176
0.236247
0.235331
0.234439
0.233591
0.232844
0.232297
0.232076
0.232201
0.232359
0.232288
0.231938
0.231419
0.23078
0.230047
0.229253
0.228438
0.227605
0.226763
0.225915
0.225062
0.224207
0.22335
0.22249
0.221633
0.220778
0.219928
0.219089
0.239058
0.238113
0.237176
0.236249
0.235337
0.234455
0.233639
0.232979
0.232658
0.232843
0.23342
0.234092
0.234517
0.234685
0.234532
0.234079
0.233434
0.232702
0.231923
0.231118
0.230299
0.229471
0.228635
0.227789
0.226932
0.226066
0.225192
0.224314
0.223434
0.222557
0.239059
0.238114
0.237177
0.236251
0.235344
0.234477
0.233707
0.233191
0.233253
0.233884
0.235249
0.236764
0.237878
0.238615
0.238962
0.238991
0.23866
0.238169
0.237561
0.236869
0.236121
0.235329
0.234498
0.233629
0.232723
0.231787
0.230828
0.229852
0.228866
0.22788
0.239059
0.238114
0.237178
0.236254
0.235352
0.234504
0.2338
0.233504
0.233909
0.235291
0.2381
0.240836
0.243057
0.244701
0.245635
0.246145
0.246387
0.24648
0.246372
0.246002
0.245446
0.244749
0.243935
0.243018
0.242008
0.240916
0.239764
0.238559
0.237322
0.236055
0.239059
0.238114
0.23718
0.236256
0.235361
0.234534
0.233912
0.233911
0.234771
0.237306
0.242634
0.249131
0.253469
0.256605
0.25829
0.258982
0.259403
0.259603
0.259569
0.259294
0.25879
0.258089
0.257172
0.256039
0.254717
0.253235
0.251632
0.249934
0.248182
0.246369
0.23906
0.238115
0.237182
0.23626
0.235371
0.234562
0.234016
0.234232
0.235598
0.239792
0.244367
0.260495
0.273955
0.280041
0.287854
0.288635
0.288353
0.286442
0.283749
0.280725
0.277563
0.274395
0.271185
0.267976
0.264797
0.261672
0.258611
0.255627
0.252733
0.249937
0.23906
0.238117
0.237185
0.236266
0.235381
0.234583
0.234089
0.234426
0.236235
0.242059
0.249922
0.299507
0.400462
0.398144
0.398355
0.39087
0.380205
0.369442
0.359249
0.349855
0.341233
0.333312
0.325841
0.318856
0.312326
0.306131
0.300222
0.294553
0.289078
0.283773
0.23906
0.238116
0.237183
0.236264
0.235378
0.234582
0.234089
0.234426
0.236233
0.242049
0.250304
0.322301
0.506342
0.533095
0.3911
0.390808
0.385067
0.377939
0.370373
0.362861
0.355397
0.348064
0.340666
0.333343
0.326042
0.318825
0.311671
0.30459
0.297628
0.290784
0.239059
0.238114
0.237179
0.236259
0.235369
0.234562
0.234017
0.234233
0.235597
0.239783
0.246051
0.271686
0.293054
0.298014
0.285667
0.286729
0.286652
0.284859
0.282395
0.27968
0.276846
0.273941
0.270992
0.267988
0.26493
0.261853
0.258785
0.255784
0.252878
0.250087
0.239059
0.238114
0.237179
0.236257
0.235362
0.234535
0.233915
0.233915
0.234773
0.237304
0.242591
0.248998
0.253279
0.256374
0.258146
0.258967
0.259438
0.259583
0.259431
0.258865
0.257953
0.256761
0.25534
0.25373
0.251985
0.250164
0.248323
0.246512
0.24477
0.243143
0.239059
0.238114
0.237178
0.236254
0.235353
0.234506
0.233803
0.233511
0.233916
0.235295
0.238088
0.240797
0.243049
0.244724
0.245745
0.246319
0.246535
0.246523
0.246163
0.245528
0.244705
0.243746
0.242682
0.241534
0.240325
0.239079
0.237816
0.236555
0.235313
0.234114
0.239059
0.238114
0.237177
0.236252
0.235345
0.234479
0.233712
0.2332
0.233268
0.233901
0.235264
0.236771
0.237908
0.238694
0.23911
0.239194
0.238908
0.238387
0.237728
0.236986
0.236181
0.235324
0.23442
0.233477
0.232499
0.2315
0.230483
0.229458
0.228431
0.227417
0.239059
0.238114
0.237177
0.236249
0.235338
0.234457
0.233644
0.23299
0.232679
0.232871
0.233455
0.234132
0.234578
0.234783
0.234755
0.234403
0.23383
0.233143
0.232393
0.231595
0.230757
0.22989
0.228999
0.22809
0.227166
0.226235
0.225301
0.224365
0.223432
0.222516
0.239058
0.238113
0.237176
0.236248
0.235333
0.234441
0.233597
0.232857
0.232322
0.232116
0.232252
0.232421
0.232388
0.232092
0.231644
0.231076
0.230404
0.229654
0.22887
0.228052
0.227208
0.226346
0.225472
0.224589
0.223699
0.222802
0.221905
0.221005
0.220108
0.219223
0.239058
0.238113
0.237175
0.236246
0.235329
0.234431
0.233566
0.232777
0.232117
0.23165
0.231381
0.231124
0.230682
0.230085
0.22944
0.228764
0.22804
0.227268
0.226474
0.225658
0.224825
0.223981
0.223129
0.222272
0.221409
0.220542
0.219674
0.218805
0.217941
0.217086
0.239058
0.238113
0.237175
0.236245
0.235327
0.234424
0.233549
0.232732
0.232008
0.231411
0.230923
0.230415
0.22976
0.229005
0.228254
0.227514
0.226755
0.225965
0.22516
0.22434
0.223509
0.22267
0.221826
0.220977
0.220126
0.219272
0.218416
0.217562
0.21671
0.21587
0.239058
0.238112
0.237174
0.236244
0.235324
0.23442
0.233539
0.23271
0.231959
0.231309
0.230734
0.230123
0.229379
0.228559
0.227763
0.226996
0.226221
0.225422
0.224611
0.223786
0.222953
0.222112
0.221267
0.22042
0.21957
0.21872
0.217869
0.21702
0.216173
0.215338
0.239058
0.238113
0.237175
0.236245
0.235325
0.234419
0.233531
0.232685
0.231896
0.231176
0.230506
0.229816
0.229046
0.22823
0.227429
0.226644
0.225854
0.22505
0.224241
0.223429
0.222615
0.221804
0.220995
0.22019
0.219389
0.218592
0.2178
0.217013
0.21623
0.215461
0.239058
0.238113
0.237175
0.236246
0.235326
0.234421
0.233538
0.232701
0.231932
0.23125
0.230641
0.230021
0.229313
0.228542
0.22777
0.227003
0.226224
0.225426
0.224623
0.223814
0.223005
0.222195
0.221389
0.220586
0.219787
0.218991
0.2182
0.217412
0.21663
0.215861
0.239058
0.238113
0.237175
0.236246
0.235328
0.234427
0.233552
0.232736
0.232014
0.231424
0.230964
0.230522
0.229963
0.229299
0.228595
0.227866
0.227108
0.226321
0.225528
0.224726
0.223922
0.223117
0.222313
0.221512
0.220714
0.219919
0.219127
0.218338
0.217556
0.216786
0.239058
0.238113
0.237176
0.236247
0.235331
0.234435
0.233575
0.232797
0.232164
0.231755
0.231599
0.231499
0.231221
0.230756
0.230172
0.229508
0.22878
0.228006
0.22722
0.226422
0.225618
0.224813
0.224008
0.223203
0.222399
0.221597
0.220797
0.22
0.219208
0.218429
0.239059
0.238114
0.237176
0.236249
0.235335
0.234448
0.233613
0.232895
0.232418
0.232338
0.232603
0.232937
0.233106
0.233012
0.232646
0.232098
0.231423
0.230676
0.2299
0.229105
0.228303
0.227499
0.226695
0.225891
0.225086
0.22428
0.223471
0.222663
0.221857
0.221059
0.239059
0.238114
0.237177
0.23625
0.235341
0.234465
0.233664
0.233044
0.232828
0.233135
0.233918
0.234839
0.235487
0.235855
0.235927
0.235641
0.235119
0.234496
0.233792
0.23305
0.232289
0.231516
0.230733
0.229939
0.229133
0.228313
0.227484
0.226646
0.225805
0.224966
0.239059
0.238114
0.237178
0.236253
0.235347
0.234485
0.23373
0.233258
0.233395
0.234172
0.235821
0.237641
0.239003
0.239971
0.240496
0.240686
0.240626
0.240291
0.239761
0.239114
0.238398
0.237633
0.23683
0.235994
0.235125
0.234225
0.233301
0.232355
0.231399
0.230435
0.239059
0.238115
0.23718
0.236255
0.235354
0.234507
0.233807
0.233528
0.23397
0.235452
0.238548
0.241582
0.243995
0.245643
0.246666
0.247283
0.247552
0.247592
0.247326
0.246802
0.246119
0.245326
0.244465
0.243545
0.242562
0.241527
0.240448
0.239339
0.238206
0.237055
0.23906
0.238116
0.237183
0.236258
0.23536
0.234526
0.23388
0.233797
0.234564
0.236907
0.241829
0.247789
0.251706
0.254231
0.256003
0.257176
0.257882
0.257993
0.257603
0.256682
0.255469
0.254107
0.252661
0.251162
0.249606
0.248024
0.246434
0.244849
0.243276
0.241716
0.23906
0.238117
0.237185
0.236264
0.235366
0.23454
0.233928
0.233992
0.23498
0.238162
0.245222
0.254844
0.261404
0.264682
0.26697
0.268132
0.268587
0.267788
0.266295
0.264441
0.262414
0.26032
0.258163
0.255993
0.253796
0.251602
0.249419
0.247246