/*--------------------------------*- C++ -*----------------------------------*\
| =========                 |                                                 |
| \\      /  F ield         | OpenFOAM: The Open Source CFD Toolbox           |
|  \\    /   O peration     | Version:  2512                                  |
|   \\  /    A nd           | Website:  www.openfoam.com                      |
|    \\/     M anipulation  |                                                 |
\*---------------------------------------------------------------------------*/
FoamFile
{
    version     2.0;
    format      ascii;
    arch        "LSB;label=32;scalar=64";
    class       volScalarField;
    location    "240";
    object      k;
}
// * * * * * * * * * * * * * * * * * * * * * * * * * * * * * * * * * * * * * //

dimensions      [0 2 -2 0 0 0 0];

internalField   nonuniform List<scalar> 
90398
(
0.231943
0.224238
0.216995
0.210168
0.203742
0.197689
0.191967
0.18658
0.181513
0.176742
0.172274
0.168081
0.164098
0.160314
0.156695
0.153226
0.149889
0.146728
0.143739
0.140925
0.138295
0.135861
0.133632
0.131616
0.129806
0.128213
0.126907
0.129031
0.174629
0.553796
0.231943
0.224239
0.217001
0.210179
0.203758
0.197709
0.191994
0.186614
0.181555
0.176792
0.172337
0.168156
0.164184
0.160404
0.156787
0.153313
0.149967
0.1468
0.143803
0.140984
0.13835
0.135912
0.133681
0.131665
0.129857
0.128284
0.127658
0.15182
0.396468
1.47216
0.231944
0.224242
0.217011
0.210195
0.203781
0.19774
0.19203
0.186666
0.181624
0.17688
0.172454
0.168298
0.164352
0.160587
0.156972
0.153485
0.150119
0.146938
0.143931
0.141103
0.138464
0.136023
0.133793
0.131782
0.129989
0.128539
0.131985
0.244506
0.955542
2.87709
0.231945
0.224245
0.21702
0.210211
0.203803
0.197772
0.19207
0.186723
0.18171
0.177006
0.172631
0.168523
0.164624
0.160889
0.157279
0.153772
0.150381
0.147183
0.144162
0.141327
0.138688
0.136259
0.134059
0.132119
0.130465
0.129654
0.149608
0.466025
1.80995
4.28211
0.231946
0.224247
0.217025
0.210225
0.203823
0.197802
0.192113
0.186792
0.181822
0.177192
0.172904
0.168867
0.165071
0.161388
0.157785
0.154241
0.15082
0.147602
0.144577
0.141775
0.139244
0.13706
0.135332
0.134202
0.133831
0.135918
0.194084
0.788067
2.67175
5.44282
0.231951
0.224248
0.217028
0.210237
0.203841
0.197826
0.19217
0.186876
0.181972
0.177437
0.173204
0.169295
0.165589
0.162023
0.158466
0.154882
0.151455
0.148359
0.145732
0.143859
0.14308
0.14376
0.146269
0.150892
0.157757
0.169305
0.266519
1.05502
3.13377
6.05414
0.231955
0.224257
0.217029
0.210245
0.203857
0.197853
0.192224
0.186967
0.182093
0.177564
0.173344
0.169484
0.166161
0.162905
0.159694
0.156582
0.154998
0.15582
0.160149
0.168821
0.181996
0.199479
0.220842
0.245156
0.271016
0.29877
0.395272
1.14181
3.23381
6.30227
0.231956
0.224265
0.217043
0.210267
0.203878
0.197883
0.192277
0.187072
0.182175
0.177355
0.168743
0.161532
0.15667
0.154677
0.212312
0.229733
0.263876
0.304261
0.350085
0.398079
0.445083
0.488906
0.527298
0.557642
0.577948
0.590859
0.654839
1.2164
3.33458
6.60533
0.231956
0.224266
0.217055
0.210288
0.203912
0.197909
0.192324
0.187077
0.181827
0.173344
0.16841
0.174877
0.286249
0.452411
1.6536
1.60843
1.52554
1.43664
1.34356
1.2474
1.15095
1.05721
0.968287
0.885474
0.812078
0.761494
0.845317
1.58339
3.80997
7.05548
0.231956
0.224264
0.217051
0.21028
0.203919
0.197925
0.192361
0.187137
0.182086
0.174395
0.203474
0.460617
1.72202
2.12819
2.52419
2.09102
1.75499
1.49776
1.29551
1.13184
0.996917
0.884402
0.789615
0.709166
0.642532
0.615181
0.820675
1.92355
4.58289
8.06407
0.231955
0.224263
0.217048
0.210276
0.203915
0.197922
0.19236
0.187148
0.182183
0.175583
4.17521
3.6116
2.74538
1.86997
1.56923
1.32504
1.12989
0.974382
0.849005
0.746395
0.661595
0.590802
0.531212
0.484959
0.515995
1.03717
2.8855
6.21822
9.90872
0.231954
0.224261
0.217048
0.210278
0.203901
0.197899
0.19232
0.187076
0.181965
0.174886
0.244245
3.75541
3.35892
2.28863
1.04827
0.859654
0.72667
0.622092
0.53993
0.474587
0.421903
0.378951
0.343556
0.314538
0.303113
0.494794
1.69771
4.51817
8.37949
12.0447
0.231954
0.22426
0.217033
0.210254
0.203862
0.197866
0.192268
0.187016
0.18218
0.177445
0.195951
0.536333
0.678591
0.543707
0.303551
0.273817
0.253557
0.236018
0.22099
0.208127
0.197124
0.187738
0.179804
0.174132
0.204963
0.727827
2.74756
6.18712
10.2061
13.7037
0.231954
0.224251
0.217018
0.21023
0.203838
0.197832
0.192205
0.186964
0.182047
0.17774
0.176849
0.179225
0.176732
0.171861
0.167421
0.163326
0.15961
0.156242
0.153148
0.150321
0.14778
0.145545
0.143668
0.14319
0.180084
0.764024
3.12731
6.88276
11.0622
14.551
0.231949
0.224243
0.217017
0.210222
0.203821
0.197802
0.192144
0.186857
0.181971
0.177397
0.173475
0.169947
0.166381
0.162781
0.159303
0.155979
0.152819
0.149911
0.147205
0.1447
0.142412
0.140374
0.138639
0.137984
0.165612
0.649448
3.0642
7.01107
11.3632
14.9145
0.231945
0.224243
0.217015
0.21021
0.203803
0.197777
0.192082
0.186761
0.181802
0.177195
0.172915
0.168945
0.165237
0.161597
0.158101
0.154736
0.151502
0.148486
0.14565
0.142999
0.140555
0.138357
0.136462
0.135371
0.152438
0.513749
2.76185
6.77376
11.2748
14.9213
0.231944
0.224241
0.217012
0.210198
0.203785
0.197746
0.192035
0.186679
0.181661
0.176963
0.172616
0.16854
0.164669
0.16094
0.157359
0.153913
0.150587
0.147457
0.144503
0.141735
0.13918
0.136879
0.134883
0.133508
0.143315
0.397269
2.3451
6.28279
10.8788
14.6328
0.231944
0.22424
0.217005
0.210184
0.203764
0.197714
0.191991
0.186609
0.181549
0.17679
0.172359
0.168204
0.16426
0.160482
0.156859
0.153373
0.150002
0.146812
0.143792
0.140957
0.138337
0.13597
0.133906
0.132337
0.136981
0.298235
1.83358
5.57765
10.2063
14.0719
0.231943
0.224238
0.216998
0.210171
0.203743
0.197681
0.191948
0.186542
0.181454
0.176664
0.172189
0.167995
0.164013
0.16021
0.156564
0.153056
0.149661
0.14643
0.14336
0.140471
0.137797
0.135377
0.133257
0.131558
0.133082
0.225659
1.33725
4.7332
9.30751
13.2751
0.231944
0.224239
0.216995
0.210163
0.203728
0.197657
0.191909
0.186489
0.181387
0.176583
0.172091
0.167883
0.163887
0.160075
0.156423
0.152909
0.149507
0.146256
0.143154
0.140223
0.137509
0.135052
0.132894
0.131118
0.131027
0.181711
0.964675
3.96209
8.41495
12.4261
0.238838
0.237494
0.236013
0.234422
0.232746
0.231011
0.229228
0.227431
0.225641
0.223872
0.222091
0.220265
0.218382
0.216499
0.214628
0.212767
0.210926
0.209119
0.207369
0.205701
0.204148
0.202751
0.201552
0.200546
0.199778
0.199274
0.202183
0.293856
1.01533
3.70928
0.238838
0.237493
0.236013
0.234422
0.232747
0.231012
0.229229
0.227436
0.225659
0.223916
0.222168
0.220369
0.21851
0.216642
0.214777
0.212921
0.211085
0.209283
0.207537
0.20587
0.204318
0.202919
0.201718
0.200714
0.199966
0.200056
0.223922
0.646808
2.75427
7.78416
0.238838
0.237494
0.236014
0.234424
0.232749
0.231015
0.229231
0.227453
0.225712
0.224038
0.222379
0.220646
0.218856
0.217028
0.215185
0.213345
0.211519
0.209729
0.207992
0.206336
0.204797
0.203412
0.202224
0.201241
0.200605
0.204067
0.322043
1.51815
5.77687
13.2528
0.238838
0.237494
0.236015
0.234426
0.232751
0.23102
0.229243
0.227495
0.22584
0.224336
0.222886
0.221338
0.219702
0.21797
0.216181
0.214376
0.212572
0.210801
0.209078
0.207438
0.205916
0.204554
0.203403
0.202495
0.202311
0.219902
0.594583
3.04862
9.57488
17.8748
0.238838
0.237494
0.236015
0.234427
0.232759
0.231033
0.229274
0.227593
0.226138
0.225028
0.224042
0.222928
0.221616
0.220081
0.218409
0.216653
0.214854
0.213085
0.211377
0.209772
0.20832
0.207097
0.206209
0.20577
0.207261
0.263579
1.07291
5.00378
13.278
21.4273
0.238838
0.237494
0.236016
0.234429
0.232764
0.231065
0.229351
0.227805
0.226824
0.226425
0.226204
0.225742
0.225105
0.223953
0.222461
0.220824
0.21905
0.21737
0.215965
0.215019
0.214708
0.215229
0.216828
0.21977
0.227039
0.343439
1.61907
6.77409
15.5322
23.7347
0.238839
0.237494
0.236017
0.234434
0.23277
0.231096
0.229495
0.228271
0.228037
0.228671
0.229779
0.230562
0.231004
0.230932
0.229859
0.229292
0.230431
0.233007
0.237515
0.24422
0.25336
0.265353
0.280449
0.298656
0.321958
0.462191
1.95476
7.7425
16.7444
25.2397
0.23884
0.237496
0.236022
0.234448
0.232778
0.231114
0.229671
0.22904
0.22991
0.229904
0.230712
0.232777
0.23456
0.239761
0.289451
0.305846
0.333997
0.368715
0.40917
0.453103
0.498916
0.545652
0.591711
0.634274
0.672119
0.79655
2.24225
8.00688
17.5348
26.4689
0.23884
0.237499
0.236026
0.234456
0.232794
0.231133
0.229853
0.229736
0.229606
0.233951
0.241952
0.252696
0.341993
0.684056
2.20057
2.00227
1.85581
1.768
1.72021
1.6794
1.62836
1.55753
1.46835
1.36148
1.24578
1.32798
3.00406
8.94143
18.6816
27.8305
0.23884
0.237498
0.236027
0.23446
0.232822
0.231178
0.230092
0.230469
0.231442
0.237862
0.296781
1.26752
3.8845
5.51123
2.00551
1.51532
1.23601
1.0462
0.899623
0.787176
0.700824
0.63464
0.584497
0.547808
0.548905
0.97331
3.80068
11.2104
21.3992
30.4334
0.23884
0.237498
0.236027
0.23446
0.232823
0.231181
0.230142
0.230561
0.232066
0.242554
2.25474
1.70381
1.29684
1.06536
0.918978
0.820262
0.749993
0.697762
0.657263
0.624121
0.597276
0.644042
1.58791
6.08536
14.8803
25.2759
34.0171
0.23884
0.237498
0.236026
0.234456
0.232796
0.231144
0.22994
0.229954
0.230597
0.239694
0.31423
2.39443
1.11134
0.857996
0.59325
0.582868
0.561519
0.538355
0.516633
0.495761
0.475618
0.455316
0.435293
0.42174
0.588307
2.57379
9.15094
19.0569
29.4009
37.6926
0.23884
0.237496
0.236022
0.234448
0.232779
0.231126
0.229738
0.229344
0.230816
0.232908
0.248649
0.317152
0.345163
0.330216
0.280387
0.274729
0.270614
0.266737
0.26303
0.259482
0.256091
0.252843
0.250182
0.26777
0.767861
4.21656
12.3344
22.6067
32.7061
40.6096
0.238839
0.237493
0.236017
0.234433
0.232769
0.2311
0.229539
0.228517
0.228747
0.230525
0.2341
0.237267
0.238695
0.238816
0.237426
0.235392
0.233536
0.231869
0.230276
0.228741
0.227321
0.226095
0.225645
0.247769
0.758737
4.31932
13.5706
24.3818
34.6181
42.4629
0.238838
0.237494
0.236015
0.234428
0.232761
0.231062
0.229365
0.227924
0.227341
0.227657
0.228718
0.229266
0.229395
0.228577
0.227001
0.225184
0.223346
0.221571
0.219842
0.218197
0.216703
0.215457
0.214926
0.231247
0.642155
3.8946
13.3601
24.8439
35.428
43.4197
0.238839
0.237494
0.236015
0.234425
0.232754
0.231024
0.229266
0.227624
0.226355
0.225793
0.225608
0.22522
0.22438
0.22315
0.221641
0.219908
0.218125
0.216395
0.214727
0.213154
0.211748
0.21061
0.210051
0.220309
0.516052
3.28111
12.2932
24.339
35.3664
43.6395
0.238839
0.237494
0.236014
0.234423
0.232745
0.231007
0.229222
0.22748
0.22589
0.224605
0.223555
0.222332
0.220934
0.219387
0.217748
0.216027
0.214299
0.212625
0.211022
0.20951
0.208153
0.207052
0.206429
0.212371
0.408544
2.60512
10.7601
23.0884
34.5618
43.2151
0.238839
0.237494
0.236014
0.234421
0.232742
0.231
0.229204
0.227417
0.22569
0.224091
0.222575
0.220942
0.219224
0.217498
0.215787
0.214066
0.212355
0.210688
0.209095
0.207599
0.20626
0.20518
0.204529
0.207593
0.323338
1.92728
8.95109
21.2014
33.0859
42.208
0.238839
0.237494
0.236013
0.23442
0.23274
0.230996
0.229198
0.22739
0.225609
0.223888
0.222185
0.220396
0.218529
0.216705
0.214942
0.213204
0.211486
0.209805
0.208201
0.206701
0.205361
0.204282
0.2036
0.204987
0.265988
1.3455
7.10162
18.7387
31.0427
40.7325
0.238839
0.237495
0.236014
0.234421
0.23274
0.230996
0.229199
0.227384
0.225583
0.223821
0.222054
0.220211
0.218291
0.21643
0.214647
0.212904
0.211188
0.209508
0.207908
0.206415
0.205086
0.204018
0.203334
0.203938
0.234688
0.93551
5.60092
16.3791
28.9926
39.175
0.239047
0.238074
0.237088
0.236086
0.235071
0.234051
0.233036
0.232046
0.231103
0.230207
0.229305
0.228322
0.227236
0.226109
0.224976
0.223837
0.222718
0.221632
0.220621
0.219723
0.218993
0.218498
0.218291
0.218301
0.218532
0.22001
0.263662
0.916545
3.6043
10.0386
0.239047
0.238074
0.237088
0.236086
0.235071
0.234053
0.233042
0.232064
0.231145
0.230291
0.229445
0.228513
0.227456
0.226349
0.225225
0.224095
0.222985
0.221909
0.220908
0.22002
0.219299
0.218811
0.218615
0.218648
0.219095
0.228162
0.450555
2.24656
7.81944
17.2316
0.239047
0.238074
0.237088
0.236088
0.235072
0.234058
0.233059
0.232109
0.231253
0.230512
0.229811
0.229
0.228042
0.22699
0.225893
0.224787
0.223702
0.222653
0.221676
0.220818
0.220132
0.21968
0.219521
0.219624
0.221258
0.26929
0.998058
4.78786
14.1155
25.2992
0.239047
0.238074
0.237089
0.23609
0.235076
0.234069
0.233091
0.232198
0.231477
0.230988
0.230608
0.230097
0.229325
0.228403
0.227375
0.226312
0.225265
0.224251
0.223313
0.222503
0.221871
0.221481
0.221396
0.221727
0.22858
0.408832
2.13173
8.61705
20.7543
31.4425
0.239047
0.238075
0.23709
0.236092
0.235087
0.234086
0.233148
0.232367
0.231926
0.231905
0.232017
0.232005
0.231713
0.23107
0.230208
0.229217
0.228202
0.227222
0.226345
0.225626
0.225108
0.224852
0.224944
0.225933
0.249575
0.720295
3.87089
13.0608
26.2239
36.1157
0.239047
0.238076
0.237092
0.236095
0.235099
0.234115
0.233246
0.232683
0.232714
0.233304
0.234197
0.234829
0.235246
0.235275
0.234744
0.233989
0.233114
0.232264
0.231597
0.231217
0.231179
0.231532
0.232373
0.235088
0.292339
1.17573
5.82021
16.8899
29.7965
39.6237
0.239047
0.238075
0.237095
0.2361
0.235111
0.234162
0.233409
0.233234
0.233895
0.235415
0.237777
0.239964
0.241537
0.242531
0.242689
0.2425
0.242677
0.24325
0.244416
0.246187
0.248511
0.251465
0.255106
0.261054
0.337589
1.51496
7.43864
19.6632
32.4645
42.4354
0.239048
0.238075
0.237094
0.236101
0.235128
0.234222
0.233633
0.23388
0.235382
0.238964
0.240511
0.245783
0.251551
0.258142
0.293688
0.297544
0.298942
0.300581
0.305009
0.313124
0.324088
0.337325
0.352049
0.367706
0.450464
1.80963
8.6817
21.4823
34.7589
44.981
0.239049
0.238077
0.237096
0.236103
0.235136
0.234279
0.233915
0.234542
0.235399
0.240554
0.250955
0.272947
0.56326
0.833226
1.62351
1.40391
1.24924
1.13621
1.05125
0.982527
0.92112
0.861264
0.797326
0.73567
0.785712
2.47404
10.2576
23.5007
37.2472
47.6232
0.239049
0.238078
0.2371
0.236113
0.235152
0.234336
0.234192
0.235206
0.236836
0.2435
0.277019
1.48805
5.24688
4.95783
1.993
1.54867
1.28315
1.11058
0.991097
0.903787
0.836733
0.783353
0.739158
0.707082
0.913878
3.64058
13.0794
26.9485
40.5912
50.7444
0.239049
0.238078
0.2371
0.236114
0.235154
0.234343
0.234236
0.235309
0.237235
0.245638
1.72725
4.04542
2.15484
1.63975
1.33411
1.13496
0.995395
0.890686
0.80734
0.738148
0.678411
0.647274
1.16284
5.67569
16.9746
31.1443
44.4381
54.2178
0.239049
0.238077
0.237096
0.236104
0.235141
0.234299
0.234019
0.234771
0.236226
0.245367
0.273071
1.01223
12.8873
5.19763
0.940663
0.800191
0.69719
0.617794
0.55633
0.507112
0.466442
0.431684
0.402999
0.443542
1.67979
8.40158
21.0653
35.1947
48.1055
57.5318
0.239048
0.238075
0.237094
0.236102
0.235134
0.234246
0.233738
0.234165
0.236281
0.241846
0.248086
0.266456
0.278909
0.284836
0.279448
0.280066
0.278541
0.276188
0.273298
0.269978
0.266414
0.262825
0.26375
0.43219
2.49512
10.3808
23.9584
38.1743
50.9738
60.2294
0.239047
0.238075
0.237095
0.236102
0.235116
0.234181
0.233487
0.233494
0.234546
0.237203
0.241457
0.245428
0.247967
0.249329
0.24934
0.248496
0.247539
0.24656
0.245446
0.24425
0.243111
0.242285
0.24689
0.412679
2.38698
10.5141
25.2406
39.8689
52.8457
62.1309
0.239047
0.238076
0.237093
0.236097
0.235102
0.234126
0.233293
0.232877
0.233165
0.234389
0.236421
0.238022
0.239049
0.239407
0.239079
0.238185
0.237109
0.236031
0.234941
0.233901
0.233027
0.232553
0.236203
0.363302
2.05069
9.82264
25.0526
40.4194
53.766
63.2416
0.239047
0.238075
0.237091
0.236093
0.235088
0.23409
0.233167
0.23246
0.232269
0.232589
0.233315
0.233876
0.234115
0.233983
0.233426
0.232461
0.231377
0.230327
0.229326
0.228418
0.227714
0.227407
0.229672
0.315093
1.65539
8.68332
23.7125
39.9229
53.7907
63.6032
0.239047
0.238075
0.23709
0.23609
0.235075
0.234066
0.233092
0.232229
0.23162
0.231423
0.231445
0.231369
0.230938
0.230295
0.229467
0.228475
0.227433
0.226437
0.225506
0.224673
0.224036
0.223767
0.225099
0.277127
1.25085
7.23165
21.4988
38.4637
52.9657
63.2579
0.239047
0.238075
0.237089
0.236088
0.23507
0.234052
0.233049
0.232105
0.231293
0.230676
0.230183
0.229535
0.228695
0.227788
0.226857
0.225878
0.224882
0.223924
0.223038
0.222263
0.221694
0.221485
0.222249
0.250379
0.890089
5.6525
18.6711
35.9467
51.2824
62.2505
0.239047
0.238075
0.237089
0.236086
0.235068
0.234045
0.233027
0.232044
0.23114
0.230338
0.229572
0.228674
0.22762
0.226573
0.225577
0.224586
0.223599
0.22265
0.221782
0.221039
0.220511
0.220339
0.220795
0.234327
0.610036
4.16871
15.5525
32.5436
48.7766
60.6986
0.239048
0.238076
0.23709
0.236088
0.23507
0.234044
0.23302
0.232022
0.231081
0.230211
0.229343
0.228346
0.227214
0.226111
0.225089
0.224096
0.223117
0.222178
0.221324
0.2206
0.220095
0.219942
0.220257
0.226635
0.434463
3.03903
12.9104
29.3792
46.2015
58.992
0.239055
0.238106
0.237162
0.236224
0.235293
0.234376
0.233484
0.232633
0.231841
0.231108
0.230388
0.229609
0.228749
0.227852
0.22695
0.226049
0.225175
0.224349
0.223608
0.222998
0.222586
0.222448
0.222567
0.222894
0.223654
0.234831
0.511851
2.60702
8.58934
19.3279
0.239055
0.238106
0.237162
0.236223
0.235293
0.234378
0.233491
0.232651
0.231881
0.231187
0.230518
0.229789
0.228959
0.228079
0.227187
0.226296
0.225431
0.224614
0.223881
0.22328
0.222874
0.222742
0.222876
0.223257
0.225628
0.293005
1.22667
5.55924
15.5884
28.4856
0.239055
0.238106
0.237162
0.236224
0.235295
0.234384
0.233507
0.232694
0.231981
0.231389
0.230857
0.230251
0.229513
0.228682
0.227818
0.226952
0.22611
0.225316
0.224608
0.224033
0.223656
0.22355
0.223721
0.224363
0.236112
0.514756
2.78488
10.5429
24.835
37.6495
0.239055
0.238106
0.237163
0.236226
0.235298
0.234395
0.233538
0.232776
0.232181
0.231809
0.231576
0.231245
0.230692
0.229976
0.22918
0.228361
0.227556
0.226805
0.226137
0.225609
0.225279
0.225219
0.225477
0.227247
0.277183
1.06967
5.43286
17.0493
33.1334
44.2983
0.239056
0.238107
0.237164
0.236228
0.235304
0.234412
0.23359
0.232925
0.232565
0.232624
0.232844
0.232966
0.232842
0.232366
0.231708
0.230959
0.230192
0.229482
0.228873
0.228423
0.228181
0.228212
0.228679
0.234331
0.38734
2.05677
9.00324
23.6195
39.0934
49.5453
0.239056
0.238108
0.237166
0.236231
0.235313
0.234438
0.233675
0.233187
0.233251
0.233792
0.234642
0.235369
0.235813
0.235947
0.235623
0.235058
0.234412
0.233819
0.233351
0.233076
0.233039
0.233309
0.234283
0.248882
0.585108
3.37511
12.8576
28.9284
43.5387
53.89
0.239056
0.238107
0.237168
0.236234
0.235325
0.234475
0.233807
0.233624
0.234148
0.235515
0.237655
0.23968
0.241099
0.241884
0.242145
0.241882
0.24152
0.241307
0.241389
0.24178
0.242457
0.243445
0.245257
0.2703
0.810519
4.8016
16.5028
32.941
47.3305
57.6926
0.239056
0.238108
0.237168
0.236236
0.235337
0.234522
0.233991
0.234175
0.235383
0.238181
0.239961
0.245144
0.249294
0.252742
0.260193
0.261108
0.261844
0.262693
0.26367
0.264846
0.266341
0.268035
0.270304
0.301178
1.03836
6.20944
19.7969
36.3167
50.8804
61.2503
0.239057
0.238109
0.237171
0.236243
0.235348
0.234571
0.234195
0.234706
0.236789
0.24227
0.246964
0.261917
0.28227
0.301438
0.338555
0.341236
0.344115
0.34464
0.342534
0.337342
0.329508
0.323023
0.320801
0.361532
1.36332
7.97458
23.0807
39.7168
54.4104
64.7013
0.239058
0.238111
0.237173
0.23625
0.235362
0.234616
0.234371
0.235167
0.238142
0.242066
0.25894
0.508452
5.33092
1.20301
1.58987
1.35402
1.17398
1.03675
0.930172
0.845911
0.775576
0.712966
0.657515
0.664877
2.10036
10.5104
26.5387
43.3904
57.9699
68.0654
0.239058
0.238111
0.237173
0.236251
0.235363
0.234622
0.234396
0.235251
0.238386
0.243244
0.265995
0.870533
6.25869
7.35222
1.29669
1.14853
1.02159
0.917592
0.832407
0.75896
0.693021
0.63258
0.579378
0.687821
3.23505
13.8431
30.41
47.051
61.375
71.2665
0.239056
0.238109
0.237171
0.236244
0.235352
0.234587
0.234264
0.234886
0.237338
0.244072
0.253923
0.40136
2.1136
0.782819
0.316707
0.3127
0.306938
0.300752
0.294557
0.288382
0.282298
0.27667
0.285415
0.723473
4.67157
16.6703
33.6474
50.149
64.3611
74.1411
0.239056
0.238108
0.237169
0.236237
0.235342
0.234541
0.23407
0.234382
0.23595
0.239834
0.24417
0.257163
0.265556
0.269574
0.264436
0.263802
0.26304
0.262123
0.26079
0.259081
0.257149
0.255724
0.284284
0.935256
5.43508
17.9748
35.724
52.4178
66.7418
76.5278
0.239056
0.238107
0.237168
0.236235
0.235329
0.23449
0.23387
0.233873
0.23466
0.236715
0.239961
0.243059
0.245245
0.246365
0.246659
0.24631
0.24572
0.245059
0.244232
0.243326
0.242515
0.2426
0.271294
0.881733
5.25902
18.1786
36.7417
53.8141
68.4184
78.3203
0.239056
0.238108
0.237166
0.236232
0.235316
0.234447
0.233713
0.233336
0.23359
0.234554
0.236125
0.237535
0.238484
0.23894
0.238917
0.238349
0.237586
0.236835
0.236069
0.235348
0.234815
0.235065
0.256046
0.753581
4.73254
17.4415
36.6389
54.3216
69.3269
79.4583
0.239056
0.238107
0.237164
0.236229
0.235305
0.234415
0.233606
0.232998
0.232815
0.233119
0.233758
0.234295
0.234614
0.234611
0.234243
0.233539
0.232728
0.231972
0.231263
0.23065
0.230262
0.230465
0.243493
0.604426
3.98119
15.9106
35.2842
53.8613
69.4297
79.9194
0.239056
0.238107
0.237164
0.236226
0.235298
0.234393
0.233539
0.2328
0.232287
0.23212
0.232214
0.232238
0.231978
0.231542
0.230954
0.230222
0.229443
0.228712
0.228055
0.22751
0.227199
0.227347
0.234618
0.466761
3.1081
13.7407
32.7438
52.3359
68.6805
79.7006
0.239056
0.238107
0.237163
0.236225
0.235293
0.234379
0.233499
0.232689
0.232007
0.231501
0.231116
0.23064
0.230023
0.229351
0.228663
0.227934
0.227191
0.226493
0.22588
0.2254
0.225169
0.225322
0.229098
0.361801
2.26132
11.1974
29.1553
49.4544
66.9742
78.8134
0.239056
0.238107
0.237163
0.236224
0.235291
0.234372
0.233478
0.232632
0.231869
0.231206
0.230586
0.229878
0.229061
0.228255
0.227498
0.226753
0.226017
0.225328
0.224736
0.224294
0.224114
0.224272
0.226192
0.293259
1.52882
8.63964
24.9673
45.585
64.3783
77.3508
0.239056
0.238108
0.237164
0.236226
0.235293
0.234371
0.233471
0.232611
0.231817
0.231094
0.230387
0.229588
0.228695
0.227834
0.227047
0.226294
0.225564
0.224884
0.224305
0.223883
0.22373
0.223888
0.224979
0.256361
1.01322
6.61902
21.3827
41.9565
61.7413
75.6387
0.239056
0.238108
0.237167
0.236234
0.235311
0.234405
0.233525
0.232683
0.231895
0.231157
0.230438
0.229684
0.228871
0.228029
0.227183
0.226346
0.22554
0.224787
0.224125
0.2236
0.223284
0.22326
0.223485
0.223942
0.225938
0.282077
1.16246
5.50856
15.773
30.713
0.239056
0.238108
0.237167
0.236233
0.235311
0.234407
0.23353
0.232697
0.231926
0.231219
0.230539
0.229822
0.229034
0.228206
0.227368
0.226538
0.22574
0.224993
0.224336
0.223817
0.223505
0.223485
0.223725
0.224398
0.235038
0.50251
2.79178
10.6121
25.3473
40.6803
0.239056
0.238108
0.237167
0.236234
0.235313
0.234412
0.233544
0.232732
0.232004
0.231372
0.230796
0.230177
0.229458
0.228669
0.227855
0.227045
0.226267
0.225538
0.224901
0.224401
0.224109
0.224107
0.224403
0.226317
0.281034
1.14415
5.87912
18.4098
36.6031
49.9796
0.239056
0.238108
0.237168
0.236235
0.235316
0.23442
0.233568
0.232795
0.232154
0.231682
0.231331
0.230924
0.230356
0.229658
0.228901
0.228133
0.227389
0.226696
0.226095
0.225633
0.225379
0.225416
0.2259
0.233422
0.433425
2.46483
10.6024
27.355
45.462
56.7605
0.239056
0.238108
0.237168
0.236237
0.23532
0.234434
0.233608
0.232906
0.23243
0.232277
0.232364
0.232361
0.232074
0.231563
0.230909
0.230198
0.229487
0.228836
0.228279
0.227873
0.227678
0.227789
0.228847
0.255145
0.784886
4.56225
16.339
35.2053
51.5811
62.3892
0.239056
0.238108
0.237169
0.236239
0.235326
0.234454
0.233671
0.233092
0.232923
0.233206
0.233765
0.234253
0.234488
0.23444
0.234065
0.233487
0.232847
0.232266
0.231786
0.231472
0.231383
0.23166
0.234155
0.30381
1.38039
7.294
22.1426
41.1957
56.6419
67.284
0.239056
0.238108
0.237169
0.236242
0.235335
0.234482
0.233764
0.233394
0.233627
0.234502
0.235898
0.237072
0.237978
0.238497
0.238589
0.238298
0.237902
0.237565
0.237338
0.23729
0.237478
0.23809
0.243124
0.384291
2.16821
10.3141
27.3826
45.8526
61.1524
71.7067
0.239057
0.23811
0.237169
0.236243
0.235344
0.234515
0.23389
0.23382
0.234518
0.236286
0.239439
0.242549
0.244687
0.24611
0.246654
0.246564
0.246401
0.246353
0.246505
0.246895
0.247535
0.248545
0.256197
0.481005
3.04563
13.3985
32.0391
50.1193
65.3938
75.8338
0.239057
0.238113
0.237173
0.236248
0.235353
0.234549
0.234023
0.234225
0.235471
0.238591
0.241309
0.249446
0.255196
0.259906
0.263934
0.264775
0.264944
0.26476
0.264283
0.263699
0.263017
0.262634
0.273452
0.635476
4.24671
16.704
36.1416
54.1488
69.4057
79.6926
0.239058
0.238113
0.237177
0.236254
0.235365
0.234575
0.234125
0.234512
0.236232
0.240651
0.245876
0.26436
0.274049
0.285036
0.321364
0.323007
0.320717
0.316967
0.312337
0.3069
0.300919
0.294882
0.303034
0.813527
5.66685
20.0566
39.8058
57.9378
73.0985
83.216
0.239058
0.238113
0.237177
0.236255
0.235366
0.234578
0.234143
0.234561
0.236393
0.241125
0.247631
0.270696
0.288309
0.330861
0.300516
0.302896
0.301728
0.299067
0.295464
0.291232
0.28654
0.282187
0.309468
1.17723
7.42703
23.1826
43.1011
61.2368
76.3328
86.3419
0.239057
0.238113
0.237173
0.236249
0.235355
0.234559
0.234066
0.234343
0.235791
0.239561
0.244181
0.258584
0.26614
0.270741
0.265989
0.265854
0.2652
0.264256
0.26294
0.261274
0.259391
0.259074
0.33614
1.63687
8.83657
25.37
45.6487
63.8786
79.0473
89.0415
0.239057
0.23811
0.237169
0.236244
0.235347
0.234527
0.233939
0.234004
0.234907
0.23721
0.241185
0.245172
0.247895
0.24956
0.250098
0.250027
0.249921
0.249685
0.249113
0.248258
0.247334
0.249277
0.355456
1.82522
9.32743
26.4196
47.3203
65.8268
81.2232
91.2847
0.239056
0.238108
0.23717
0.236243
0.235337
0.234491
0.233803
0.233542
0.233944
0.235216
0.237243
0.239019
0.240422
0.241242
0.241473
0.241226
0.240719
0.240129
0.239412
0.238666
0.238099
0.240277
0.331857
1.70732
9.11029
26.6268
48.1547
67.0725
82.8063
93.0208
0.239056
0.238108
0.237169
0.23624
0.235328
0.23446
0.233694
0.233183
0.233212
0.233737
0.234706
0.235625
0.236241
0.236549
0.236515
0.235979
0.235277
0.234591
0.233901
0.233269
0.232872
0.234483
0.302643
1.46809
8.37789
25.8149
48.0523
67.5631
83.7383
94.1943
0.239056
0.238109
0.237169
0.236237
0.23532
0.234435
0.233616
0.232947
0.232579
0.23267
0.233002
0.233301
0.233414
0.233314
0.232902
0.232248
0.231517
0.230824
0.230184
0.229648
0.229376
0.230427
0.27501
1.17213
7.23986
23.9151
46.6464
67.1419
83.9486
94.7652
0.239056
0.238109
0.237168
0.236236
0.235315
0.234418
0.233565
0.232803
0.232207
0.231855
0.231711
0.231527
0.231186
0.230737
0.23018
0.229521
0.228832
0.228179
0.227607
0.227168
0.227005
0.227674
0.253349
0.873424
5.84245
21.0824
43.8462
65.6421
83.3413
94.7075
0.239056
0.238109
0.237168
0.236234
0.235311
0.234407
0.233534
0.232719
0.232003
0.231414
0.230916
0.230379
0.229756
0.229112
0.228463
0.227788
0.227112
0.226482
0.225949
0.225572
0.225488
0.225948
0.238903
0.619882
4.39452
17.643
39.6757
62.6812
81.7642
94.025
0.239056
0.238109
0.237168
0.236234
0.235309
0.234401
0.233517
0.232675
0.2319
0.2312
0.230536
0.229824
0.229051
0.228298
0.227587
0.226892
0.226218
0.225598
0.225086
0.224751
0.224722
0.225086
0.231018
0.43542
3.0641
14.0893
34.8327
58.8114
79.4872
92.7653
0.239057
0.23811
0.237169
0.236235
0.235311
0.2344
0.233512
0.232659
0.23186
0.231116
0.230389
0.229608
0.228776
0.227976
0.22724
0.226539
0.225869
0.225257
0.224759
0.224444
0.22444
0.224755
0.227529
0.327658
2.07428
11.2265
30.6711
55.2036
77.2292
91.2306
0.239056
0.238108
0.237168
0.236233
0.235312
0.234405
0.233521
0.23267
0.231862
0.231094
0.230344
0.229574
0.228764
0.227931
0.227094
0.226269
0.225475
0.224735
0.224086
0.223577
0.223281
0.223287
0.223543
0.224137
0.231069
0.429301
2.42285
9.85312
24.8651
43.1112
0.239056
0.238108
0.237167
0.236233
0.235312
0.234407
0.233525
0.232681
0.231885
0.231139
0.230417
0.229672
0.22888
0.228056
0.227225
0.226403
0.225614
0.224878
0.224232
0.223724
0.223428
0.223436
0.223719
0.225206
0.266882
1.00381
5.35547
17.2915
36.1447
52.9247
0.239056
0.238108
0.237168
0.236233
0.235313
0.23441
0.233536
0.232706
0.231942
0.231248
0.230596
0.22992
0.229176
0.228379
0.227562
0.226753
0.225979
0.225254
0.224621
0.224125
0.223842
0.22386
0.224287
0.230927
0.414517
2.36231
10.4321
27.6394
48.2713
61.9151
0.239056
0.238108
0.237168
0.236234
0.235315
0.234417
0.233554
0.232753
0.232047
0.231459
0.230956
0.230425
0.229786
0.229051
0.228273
0.227496
0.226749
0.226051
0.225447
0.224982
0.224728
0.224792
0.225833
0.254498
0.820825
4.82273
17.3988
38.1491
57.0623
68.7353
0.239056
0.238108
0.237169
0.236235
0.235319
0.234427
0.233583
0.232829
0.232232
0.231851
0.231643
0.231391
0.230954
0.230349
0.229649
0.228923
0.228209
0.227554
0.226988
0.226566
0.226358
0.226531
0.229622
0.322053
1.62111
8.38653
25.0224
46.4612
63.445
74.6403
0.239055
0.238108
0.237169
0.236237
0.235323
0.234442
0.233627
0.232953
0.23255
0.232542
0.232768
0.232946
0.23287
0.232514
0.231953
0.231298
0.230625
0.230014
0.229491
0.22912
0.228976
0.229375
0.237987
0.465134
2.8585
12.698
32.1366
52.6539
68.9562
79.9047
0.239057
0.238107
0.237168
0.236239
0.235329
0.234461
0.233688
0.233142
0.233062
0.233458
0.234221
0.234901
0.235299
0.235488
0.235295
0.234806
0.234228
0.233692
0.233243
0.232953
0.232913
0.233709
0.253617
0.701293
4.45743
17.2631
38.2993
57.8456
73.9478
84.7146
0.239058
0.23811
0.237168
0.236241
0.235336
0.234484
0.233766
0.233405
0.233666
0.234637
0.236263
0.237606
0.238645
0.239283
0.239471
0.239174
0.238739
0.238311
0.237975
0.237821
0.237969
0.239357
0.276974
1.02799
6.30507
21.6935
43.468
62.5723
78.5591
89.1635
0.239058
0.238113
0.237172
0.236242
0.235342
0.234505
0.233849
0.233691
0.234292
0.235956
0.238879
0.241588
0.243524
0.244772
0.245331
0.245412
0.245136
0.244747
0.244357
0.244066
0.244014
0.245801
0.309311
1.4368
8.25835
25.6961
47.7376
66.8717
82.8031
93.245
0.239058
0.238113
0.237176
0.236249
0.235351
0.234521
0.23391
0.233921
0.234802
0.237108
0.241403
0.245141
0.248209
0.250141
0.251415
0.252106
0.252164
0.251857
0.251317
0.250649
0.250038
0.251782
0.341838
1.84249
10.2313
29.2247
51.4831
70.7433
86.6023
96.8945
0.239058
0.238113
0.237176
0.236249
0.235351
0.234524
0.233919
0.233961
0.234894
0.237338
0.241854
0.24578
0.248745
0.250775
0.251605
0.251577
0.251237
0.250782
0.250247
0.249666
0.249213
0.252393
0.387612
2.34578
12.1052
32.1481
54.6044
74.0027
89.8634
100.068
0.239058
0.238113
0.237173
0.236243
0.235344
0.234511
0.233873
0.233782
0.234492
0.236434
0.239777
0.242931
0.245106
0.246447
0.247