/*--------------------------------*- C++ -*----------------------------------*\
| =========                 |                                                 |
| \\      /  F ield         | OpenFOAM: The Open Source CFD Toolbox           |
|  \\    /   O peration     | Version:  2512                                  |
|   \\  /    A nd           | Website:  www.openfoam.com                      |
|    \\/     M anipulation  |                                                 |
\*---------------------------------------------------------------------------*/
FoamFile
{
    version     2.0;
    format      ascii;
    arch        "LSB;label=32;scalar=64";
    class       volScalarField;
    location    "240";
    object      nut;
}
// * * * * * * * * * * * * * * * * * * * * * * * * * * * * * * * * * * * * * //

dimensions      [0 2 -1 0 0 0 0];

internalField   nonuniform List<scalar> 
84826
(
0.0144196
0.0141772
0.0139459
0.0137246
0.0135127
0.0133097
0.0131154
0.0129293
0.0127523
0.0125827
0.012422
0.0122654
0.0121204
0.0119861
0.0118508
0.0117182
0.0115865
0.0114579
0.0113328
0.0112112
0.0110928
0.0109777
0.0108659
0.0107573
0.0106516
0.0105488
0.0104489
0.0103518
0.0102573
0.0101656
0.0144196
0.0141772
0.0139459
0.0137248
0.0135131
0.0133104
0.0131166
0.0129311
0.0127546
0.0125858
0.0124258
0.0122699
0.0121257
0.011992
0.011857
0.0117243
0.0115924
0.0114634
0.0113379
0.011216
0.0110972
0.0109819
0.0108699
0.010761
0.0106551
0.0105521
0.0104519
0.0103546
0.0102599
0.0101679
0.0144196
0.0141772
0.0139461
0.013725
0.0135136
0.0133111
0.0131174
0.0129328
0.0127577
0.0125902
0.012432
0.0122775
0.0121352
0.0120031
0.0118687
0.0117361
0.0116033
0.0114735
0.0113479
0.0112255
0.0111063
0.0109906
0.0108781
0.0107688
0.0106627
0.0105594
0.0104591
0.0103616
0.0102668
0.0101747
0.0144196
0.0141773
0.0139461
0.0137252
0.0135139
0.0133119
0.0131186
0.0129349
0.0127613
0.0125958
0.0124406
0.0122901
0.0121508
0.0120202
0.011887
0.0117545
0.0116209
0.0114901
0.0113636
0.0112405
0.0111207
0.0110044
0.0108913
0.0107815
0.0106747
0.0105708
0.0104699
0.0103719
0.0102766
0.0101839
0.0144196
0.0141773
0.0139462
0.0137254
0.0135143
0.0133124
0.0131197
0.0129371
0.0127654
0.0126029
0.0124486
0.0123236
0.0121892
0.0120389
0.0119081
0.0117761
0.0116416
0.0115096
0.0113824
0.0112589
0.0111392
0.0110236
0.0109117
0.0108037
0.010699
0.0105977
0.0104993
0.0104037
0.0103105
0.0102193
0.0144196
0.0141773
0.0139462
0.0137254
0.0135145
0.013313
0.0131208
0.0129396
0.0127701
0.0126072
0.0124566
0.0123182
0.0121905
0.0120659
0.011939
0.0118074
0.0116715
0.011541
0.0114222
0.0113165
0.0112254
0.011148
0.0110821
0.0110242
0.0109709
0.010919
0.0108655
0.0108076
0.0107433
0.0106686
0.0144196
0.0141773
0.0139462
0.0137255
0.0135147
0.0133134
0.0131221
0.012942
0.0127724
0.0126124
0.0104098
0.00998236
0.0104039
0.0113924
0.0121932
0.0120732
0.0120413
0.012169
0.0124017
0.012707
0.0130454
0.0133791
0.0136843
0.0130644
0.0124963
0.0121129
0.0118423
0.0116673
0.0114995
0.0115032
0.0144196
0.0141772
0.0139461
0.0137256
0.0135149
0.0133139
0.0131232
0.012944
0.0127737
0.0115319
0.00457258
0.00339797
0.00411687
0.00431732
0.0106814
0.00911189
0.00921074
0.00989304
0.0105355
0.0110543
0.0115269
0.0119428
0.0122666
0.0125016
0.0126684
0.012782
0.0128454
0.0128857
0.0128285
0.0130004
0.0144196
0.0141772
0.0139461
0.0137255
0.0135149
0.0133142
0.0131241
0.0129459
0.0127764
0.00794694
0.00301141
0.00217488
0.00280913
0.0118425
0.0181698
0.0174506
0.0175204
0.0177468
0.0176708
0.0174535
0.0172801
0.0171567
0.0170542
0.0169776
0.0169432
0.01695
0.0169854
0.0170498
0.0170423
0.0174965
0.0144195
0.0141771
0.0139459
0.0137252
0.0135145
0.0133139
0.0131241
0.0129453
0.0127755
0.00602354
0.00205114
0.000864479
0.0015173
0.00305137
0.0132166
0.014253
0.0162899
0.0182484
0.0195318
0.0201717
0.0204517
0.0205088
0.0204091
0.0202286
0.020032
0.01985
0.0196827
0.0195536
0.0193324
0.0197631
0.0144195
0.014177
0.0139457
0.0137249
0.0135142
0.0133136
0.0131241
0.0129453
0.0127756
0.00601864
0.00194101
0.00129824
0.00275145
0.0128042
0.0137231
0.0157065
0.0178302
0.0193196
0.0200874
0.0203798
0.0203355
0.0200441
0.0196157
0.0191473
0.0186897
0.0182415
0.0178694
0.0173999
0.0174677
0.0144195
0.0141771
0.013946
0.0137254
0.0135146
0.013314
0.0131242
0.0129461
0.0127767
0.00793019
0.00246987
0.000900594
0.00121792
0.0021151
0.0176373
0.0177763
0.0188586
0.0200848
0.0206828
0.0207267
0.020476
0.0200024
0.019348
0.0185924
0.0178045
0.0170249
0.0162285
0.0154906
0.0147157
0.0138818
0.0144195
0.0141772
0.0139462
0.0137257
0.013515
0.013314
0.0131234
0.0129443
0.0127741
0.011481
0.00385757
0.00290245
0.0030339
0.00541322
0.00868869
0.00744779
0.0075122
0.00803409
0.008571
0.00908349
0.00957583
0.00999523
0.0103121
0.0105725
0.0107807
0.0109393
0.0110517
0.0110902
0.0111404
0.0107943
0.0144195
0.0141773
0.0139462
0.0137256
0.0135148
0.0133136
0.0131223
0.0129424
0.0127731
0.0126134
0.0102977
0.00956642
0.00969151
0.0105112
0.0121589
0.0120192
0.0118768
0.0117397
0.0116083
0.0114819
0.0113602
0.0112429
0.0111293
0.0110186
0.010912
0.0108091
0.0107142
0.0106317
0.0105712
0.0105398
0.0144196
0.0141773
0.0139462
0.0137255
0.0135146
0.0133131
0.0131211
0.01294
0.0127709
0.0126083
0.0124583
0.0123211
0.0121956
0.0120718
0.0119465
0.0118182
0.0116867
0.0115578
0.0114336
0.0113126
0.0111948
0.0110804
0.0109692
0.0108607
0.0107545
0.0106505
0.0105483
0.0104481
0.0103501
0.0102554
0.0144196
0.0141773
0.0139462
0.0137254
0.0135143
0.0133126
0.01312
0.0129376
0.0127661
0.012604
0.0124502
0.0123259
0.0121926
0.0120443
0.0119159
0.0117867
0.0116556
0.0115279
0.0114054
0.0112866
0.011171
0.0110589
0.01095
0.0108439
0.0107401
0.0106386
0.0105388
0.0104407
0.0103438
0.0102473
0.0144196
0.0141773
0.0139461
0.0137253
0.013514
0.013312
0.0131189
0.0129354
0.012762
0.012597
0.0124423
0.0122927
0.0121547
0.0120258
0.0118947
0.0117641
0.0116335
0.0115067
0.011384
0.0112643
0.0111474
0.0110335
0.0109223
0.0108138
0.0107078
0.010604
0.0105025
0.0104031
0.010306
0.0102109
0.0144196
0.0141772
0.0139461
0.0137251
0.0135136
0.0133113
0.0131177
0.0129332
0.0127584
0.0125913
0.0124337
0.01228
0.0121389
0.0120083
0.0118756
0.0117448
0.0116146
0.0114881
0.0113657
0.0112463
0.0111298
0.0110164
0.0109059
0.0107982
0.010693
0.0105902
0.0104896
0.0103911
0.0102946
0.0101999
0.0144196
0.0141772
0.0139459
0.0137249
0.0135132
0.0133105
0.0131168
0.0129315
0.0127553
0.0125869
0.0124276
0.0122725
0.0121295
0.0119972
0.0118638
0.0117329
0.0116033
0.0114771
0.0113545
0.0112352
0.0111187
0.0110053
0.0108947
0.0107868
0.0106814
0.0105783
0.0104775
0.0103788
0.0102823
0.0101877
0.0144196
0.0141772
0.0139458
0.0137246
0.0135127
0.0133097
0.0131156
0.0129297
0.012753
0.0125839
0.0124239
0.0122682
0.0121243
0.0119914
0.0118577
0.0117268
0.0115975
0.0114716
0.0113492
0.01123
0.0111137
0.0110003
0.0108897
0.0107818
0.0106763
0.0105732
0.0104724
0.0103738
0.0102774
0.0101829
0.12312
0.114073
0.106848
0.100888
0.0958411
0.0914732
0.0876344
0.084199
0.0810284
0.0781355
0.075515
0.0731775
0.071101
0.0693245
0.0678218
0.0665223
0.0653149
0.0641937
0.0631322
0.0621211
0.061158
0.0602454
0.0593828
0.0585686
0.0578012
0.0570826
0.0564117
0.0557859
0.0552027
0.0546665
0.123119
0.114069
0.106841
0.100877
0.0958219
0.09144
0.087577
0.0841165
0.0809001
0.0779482
0.0752612
0.0728552
0.070727
0.0689171
0.067411
0.0661208
0.0649159
0.0637942
0.0627258
0.0617049
0.0607299
0.0598029
0.0589248
0.0580947
0.0573132
0.056582
0.0558997
0.0552643
0.054673
0.0541308
0.123122
0.114064
0.10683
0.100856
0.0957846
0.0913724
0.0874521
0.0839395
0.0806244
0.0775448
0.0747127
0.0721632
0.0699213
0.0680413
0.0665301
0.0652635
0.0640603
0.0629371
0.0618536
0.0608161
0.0598249
0.0588835
0.0579928
0.0571558
0.0563731
0.0556474
0.0549781
0.0543643
0.0538021
0.0533003
0.123126
0.114058
0.106815
0.100828
0.0957323
0.0912792
0.0872883
0.0836779
0.0802059
0.076917
0.0737875
0.0709953
0.0685009
0.0664981
0.0649805
0.0637525
0.0625571
0.0614147
0.0602961
0.0592159
0.0581756
0.057184
0.056245
0.0553642
0.0545434
0.0537849
0.0530899
0.0524585
0.0518874
0.0513841
0.123124
0.114058
0.106798
0.100792
0.0956682
0.0911618
0.0870802
0.0833281
0.0796307
0.0759719
0.0573681
0.0550806
0.0615847
0.0642251
0.0626638
0.0614496
0.0601974
0.058964
0.0577614
0.0566076
0.0554991
0.0544479
0.053463
0.0525509
0.0517151
0.0509581
0.0502819
0.0496894
0.0491776
0.0487667
0.123121
0.114057
0.106787
0.100755
0.0955965
0.0910296
0.086838
0.082897
0.078861
0.0551812
0.0369242
0.0400822
0.0393773
0.0461655
0.0579769
0.0567704
0.0554241
0.0540168
0.0526211
0.0512523
0.0499164
0.0486485
0.04747
0.0463947
0.0454271
0.0445703
0.0438246
0.0431912
0.0426639
0.0422676
0.123119
0.114049
0.106777
0.100727
0.0955254
0.0908955
0.0865811
0.082386
0.065979
0.0361248
0.0227816
0.0217927
0.0254147
0.0263102
0.0363615
0.0441769
0.0427608
0.0413876
0.0400687
0.0388089
0.03755
0.0363668
0.0353153
0.0344129
0.0336614
0.0330491
0.0325606
0.0321725
0.0318641
0.0316592
0.123118
0.114042
0.106762
0.100703
0.0954706
0.0907816
0.0863419
0.0818394
0.0464539
0.0227093
0.0163106
0.012113
0.0133781
0.0100785
0.0174506
0.0174105
0.0178267
0.0181017
0.0184038
0.01873
0.0190848
0.0194598
0.0192745
0.0188861
0.0186297
0.0184876
0.0184153
0.0184122
0.018373
0.0185563
0.123117
0.114036
0.106749
0.100679
0.0954291
0.0906916
0.0861545
0.0773516
0.0349482
0.0139793
0.00786686
0.00477221
0.00765065
0.0141219
0.0201247
0.0209727
0.0219785
0.0228803
0.0237079
0.0245137
0.0253429
0.0261683
0.0266914
0.0266661
0.0266721
0.0266818
0.0266593
0.0266549
0.0264463
0.0268333
0.12311
0.114023
0.106729
0.10065
0.0953873
0.0906225
0.0860341
0.0686116
0.0274641
0.0103367
0.00389661
0.00153177
0.00377789
0.00399986
0.0238982
0.0262692
0.0277841
0.0286987
0.0293753
0.0299816
0.0305264
0.0310404
0.0315386
0.0320246
0.0324937
0.0329387
0.0333532
0.0337258
0.0340671
0.0343094
0.123103
0.114013
0.106717
0.100638
0.0953755
0.0906318
0.0860469
0.0686128
0.027454
0.0103252
0.0036276
0.0166017
0.0217174
0.023523
0.0248622
0.0257973
0.026595
0.0273973
0.0282502
0.0291645
0.0301423
0.0311701
0.0322233
0.0332726
0.034292
0.0352512
0.036146
0.0368951
0.123103
0.114027
0.106732
0.100671
0.0954212
0.0907058
0.0861729
0.0773621
0.0348938
0.0139496
0.00498509
0.00186457
0.00610929
0.00778851
0.0131771
0.0139528
0.0148216
0.015649
0.0164712
0.0173241
0.0182288
0.0191923
0.0202346
0.0213622
0.0225823
0.0238941
0.0252935
0.0267737
0.0281115
0.0293668
0.123101
0.114042
0.106757
0.100709
0.0954772
0.0907917
0.0863565
0.0818626
0.0464104
0.0226822
0.011094
0.00836697
0.00809479
0.00733093
0.0180852
0.0183538
0.0185243
0.018669
0.0188093
0.0189471
0.0190865
0.0192298
0.0193928
0.0195889
0.0198276
0.0201174
0.0204603
0.0208467
0.0212565
0.0216768
0.123109
0.114048
0.106779
0.10073
0.0955319
0.090907
0.0866006
0.0824175
0.0660244
0.0359613
0.0225493
0.0210339
0.0234483
0.0249756
0.0343346
0.0463078
0.046
0.0457921
0.0456786
0.0456208
0.0455774
0.0455189
0.0454325
0.0452947
0.0450687
0.0447439
0.0442824
0.043672
0.0428989
0.0419105
0.12312
0.114057
0.106789
0.100759
0.0956044
0.0910439
0.0868617
0.0829348
0.0789157
0.054998
0.0366746
0.0385562
0.0374405
0.0441083
0.0587259
0.0581819
0.0576764
0.0571551
0.0566341
0.0561146
0.0555809
0.0550377
0.0544858
0.0539203
0.0533297
0.0527119
0.052052
0.0513542
0.0506109
0.0497984
0.123123
0.114058
0.106799
0.100797
0.0956772
0.0911776
0.0871063
0.0833693
0.0796926
0.0760587
0.0569654
0.054131
0.0597104
0.0646698
0.063459
0.0627591
0.0621222
0.0615103
0.0609116
0.0603251
0.0597454
0.0591699
0.058596
0.0580252
0.0574515
0.0568713
0.0562747
0.0556536
0.0550041
0.0543087
0.123126
0.114058
0.106816
0.100833
0.0957419
0.091296
0.0873158
0.083721
0.080271
0.0770107
0.0739214
0.0711838
0.0687873
0.0669756
0.0657411
0.0648618
0.0640395
0.0632449
0.0624832
0.0617476
0.0610324
0.0603343
0.0596495
0.0589787
0.0583099
0.0576373
0.0569576
0.0562717
0.0555788
0.054875
0.123121
0.114064
0.106832
0.100861
0.0957944
0.0913896
0.0874802
0.0839832
0.0806904
0.0776422
0.0748537
0.0723651
0.0702209
0.0684945
0.0671963
0.0661647
0.0652102
0.0642904
0.0634219
0.0625927
0.0617967
0.0610301
0.0602887
0.0595713
0.058874
0.0581967
0.0575341
0.0568832
0.0562419
0.0556038
0.123118
0.114069
0.106843
0.100882
0.0958318
0.0914573
0.087605
0.0841602
0.0809661
0.0780458
0.0754024
0.0730567
0.0710175
0.0693365
0.0680019
0.0668857
0.0658634
0.0648687
0.0639389
0.0630569
0.0622142
0.0614062
0.0606292
0.0598794
0.0591536
0.0584522
0.0577721
0.0571095
0.0564625
0.0558269
0.123119
0.114073
0.10685
0.100893
0.0958509
0.0914905
0.0876625
0.0842427
0.0810946
0.0782339
0.0756576
0.0733809
0.0713898
0.0697323
0.0683848
0.0672322
0.0661742
0.0651472
0.0641899
0.0632832
0.062418
0.0615896
0.0607942
0.0600282
0.0592873
0.0585717
0.0578807
0.05721
0.0565569
0.0559205
0.134469
0.133881
0.133114
0.132198
0.131158
0.130013
0.128802
0.127437
0.126027
0.124583
0.12312
0.121654
0.120149
0.118718
0.117402
0.11619
0.115049
0.113825
0.112657
0.111512
0.110387
0.109284
0.108208
0.107164
0.106149
0.105172
0.104242
0.103353
0.102505
0.101706
0.134469
0.133881
0.133113
0.132197
0.131154
0.130005
0.128784
0.127403
0.125981
0.124515
0.123028
0.12155
0.119985
0.118524
0.117191
0.115963
0.114812
0.113573
0.112384
0.111217
0.110067
0.108939
0.107838
0.106766
0.105726
0.104731
0.103782
0.102878
0.102016
0.101207
0.13447
0.133881
0.133112
0.132193
0.131146
0.129986
0.128735
0.127351
0.125899
0.124386
0.122847
0.121319
0.119667
0.118143
0.116777
0.115523
0.114323
0.113068
0.111837
0.110622
0.109425
0.108251
0.107106
0.105995
0.104926
0.103912
0.102951
0.102044
0.10119
0.1004
0.13447
0.13388
0.13311
0.132189
0.131136
0.129964
0.128681
0.127274
0.125771
0.124197
0.0939036
0.090382
0.107868
0.117427
0.116001
0.114707
0.113425
0.112097
0.110771
0.109458
0.108162
0.10689
0.105643
0.104444
0.103295
0.102208
0.101185
0.100228
0.0993367
0.098525
0.13447
0.13388
0.133108
0.132184
0.131124
0.129937
0.128623
0.127178
0.125615
0.089783
0.0635787
0.0609976
0.0704022
0.0870868
0.108754
0.112568
0.111175
0.109704
0.10822
0.106751
0.105305
0.103882
0.102499
0.101186
0.0999467
0.0987886
0.0977181
0.0967422
0.0958605
0.0950959
0.13447
0.133881
0.133107
0.132178
0.13111
0.129907
0.128562
0.127072
0.101803
0.060971
0.040307
0.0431982
0.0456739
0.0543784
0.0739739
0.101606
0.104252
0.102517
0.10071
0.0988794
0.0970385
0.0951904
0.0933759
0.0916469
0.0900217
0.0885233
0.0871688
0.0859731
0.0849359
0.0840969
0.13447
0.13388
0.133107
0.132174
0.131097
0.129878
0.128504
0.126975
0.0724952
0.0394224
0.0244029
0.0235066
0.0285555
0.0304011
0.0436401
0.0711764
0.0813395
0.0787298
0.0762375
0.0738642
0.0716108
0.0694446
0.0673148
0.0653329
0.0635512
0.0620035
0.0607058
0.0596529
0.0588363
0.0582875
0.13447
0.13388
0.133106
0.132172
0.131089
0.129858
0.128457
0.103072
0.050829
0.0243885
0.017344
0.012058
0.0184308
0.0153351
0.0184932
0.0262447
0.0262577
0.0253613
0.0246526
0.0240793
0.0236232
0.0232795
0.023039
0.0228814
0.0227911
0.022762
0.0227829
0.0228411
0.0229307
0.0230515
0.13447
0.133879
0.133104
0.132169
0.131084
0.129845
0.128434
0.083929
0.0376049
0.0148304
0.00760931
0.00418386
0.0110512
0.0107821
0.0173693
0.0176755
0.0179343
0.0181337
0.0182826
0.0184009
0.0184956
0.0185865
0.0186877
0.0187968
0.0189107
0.0190276
0.0191474
0.0192709
0.0194029
0.0195366
0.134469
0.133878
0.133102
0.132166
0.131079
0.129834
0.128426
0.0741465
0.0294286
0.0105856
0.00361487
0.00139537
0.0254517
0.0176091
0.0249531
0.0256776
0.0260512
0.026198
0.0262549
0.0262951
0.0263372
0.0263876
0.0264481
0.0265162
0.0265877
0.0266579
0.026723
0.0267782
0.0268262
0.0268375
0.134469
0.133878
0.133103
0.132165
0.131076
0.129832
0.128424
0.0741659
0.0294297
0.0105806
0.0033686
0.0100564
0.0246436
0.0252141
0.0254667
0.0255066
0.0254716
0.0254244
0.0253894
0.0253803
0.0254077
0.0254774
0.0255926
0.0257545
0.025963
0.0262137
0.0265068
0.0268156
0.134469
0.133879
0.133102
0.132168
0.131082
0.129842
0.128433
0.0839502
0.0375806
0.014825
0.00476281
0.00177486
0.0276832
0.0232766
0.0175859
0.0179787
0.0182141
0.0183693
0.0184948
0.0186138
0.0187404
0.0188861
0.0190651
0.0192959
0.0195999
0.0200057
0.020543
0.0212374
0.0221166
0.0231559
0.134469
0.133879
0.133104
0.132173
0.131089
0.129859
0.128461
0.103064
0.0508402
0.0243953
0.0112174
0.00789231
0.0113352
0.00977082
0.0170074
0.0243565
0.0307503
0.0304731
0.0302563
0.0300407
0.0298004
0.0295085
0.0291666
0.0287719
0.0283297
0.0278487
0.0273407
0.0268324
0.0263414
0.025917
0.134469
0.13388
0.133108
0.132175
0.131098
0.129882
0.128512
0.126991
0.0725553
0.0393577
0.0243486
0.0232126
0.0275623
0.0294432
0.0391647
0.0601932
0.0863463
0.0851947
0.0840327
0.082857
0.0816848
0.0805211
0.0793688
0.0782007
0.0770083
0.0757775
0.0744891
0.0731365
0.0717104
0.070196
0.13447
0.133881
0.133108
0.132178
0.131112
0.129912
0.128572
0.127092
0.101669
0.0608654
0.0402068
0.0425232
0.0444092
0.0529805
0.0697818
0.0965777
0.106916
0.106103
0.10525
0.104363
0.103435
0.102465
0.101457
0.100422
0.0993483
0.0982244
0.0970269
0.0957708
0.0944528
0.093062
0.13447
0.133881
0.133109
0.132185
0.131126
0.129942
0.128634
0.127198
0.125652
0.0894245
0.0632786
0.0603917
0.068734
0.08366
0.100728
0.11399
0.113092
0.11216
0.111228
0.110299
0.109373
0.108444
0.107515
0.106586
0.10565
0.104707
0.103747
0.102762
0.101749
0.100702
0.13447
0.13388
0.13311
0.13219
0.131139
0.12997
0.128693
0.127296
0.12581
0.123465
0.0931732
0.0894115
0.105466
0.117893
0.11675
0.115765
0.114785
0.113788
0.112803
0.111826
0.110857
0.109895
0.108933
0.107982
0.107033
0.106081
0.105126
0.10415
0.103156
0.102142
0.13447
0.133881
0.133112
0.132194
0.131149
0.129992
0.128747
0.127373
0.125937
0.124449
0.122948
0.121476
0.119912
0.118528
0.117358
0.116317
0.115307
0.114278
0.113268
0.112272
0.111286
0.110311
0.109344
0.108387
0.107442
0.106502
0.105569
0.10464
0.103714
0.102789
0.134469
0.133881
0.133114
0.132198
0.131157
0.130011
0.128796
0.127425
0.126019
0.124577
0.123126
0.121697
0.120205
0.118853
0.117671
0.116598
0.115556
0.114514
0.113486
0.112475
0.111477
0.110491
0.109517
0.108552
0.1076
0.106658
0.105726
0.104803
0.103888
0.102981
0.134469
0.133881
0.133114
0.132199
0.13116
0.13002
0.128814
0.127458
0.126065
0.124645
0.123217
0.121799
0.120361
0.119028
0.117845
0.116756
0.115702
0.114648
0.11361
0.112588
0.111581
0.110586
0.109604
0.108635
0.107673
0.106727
0.105791
0.104865
0.103949
0.103044
0.134739
0.134633
0.134511
0.134371
0.13421
0.134027
0.133821
0.133587
0.133343
0.133091
0.132826
0.132519
0.132146
0.13174
0.131339
0.130945
0.130552
0.130119
0.129668
0.129205
0.128728
0.128241
0.127745
0.127245
0.126742
0.126239
0.125739
0.125246
0.12476
0.12429
0.134739
0.134633
0.134511
0.134371
0.13421
0.134027
0.133821
0.133588
0.133348
0.133105
0.132856
0.13258
0.132204
0.131803
0.131404
0.131009
0.130611
0.13017
0.129708
0.129232
0.128741
0.128239
0.127727
0.12721
0.126691
0.126171
0.125656
0.125149
0.124651
0.12417
0.134739
0.134633
0.134511
0.134371
0.13421
0.134026
0.133824
0.133591
0.133362
0.133145
0.132938
0.13272
0.132347
0.131958
0.131563
0.131164
0.130756
0.130283
0.129799
0.129296
0.128776
0.128243
0.1277
0.127152
0.126602
0.126055
0.125518
0.124993
0.12448
0.12399
0.134739
0.134633
0.134511
0.134371
0.13421
0.134027
0.133825
0.133603
0.133397
0.133231
0.107779
0.103984
0.12387
0.132098
0.131715
0.131305
0.130862
0.130349
0.129811
0.12925
0.128668
0.12807
0.127461
0.126847
0.126231
0.125622
0.125027
0.124449
0.12389
0.123361
0.134739
0.134633
0.134511
0.134371
0.13421
0.134028
0.133829
0.133626
0.133467
0.102377
0.0742505
0.0705497
0.0823043
0.101434
0.126835
0.130577
0.130093
0.129516
0.12889
0.128229
0.127541
0.126832
0.126111
0.125386
0.124665
0.123958
0.123274
0.122617
0.121991
0.121413
0.134739
0.134633
0.134511
0.134371
0.134211
0.13403
0.133839
0.133669
0.115303
0.0708483
0.0484513
0.0484575
0.0535919
0.0651113
0.0851025
0.113439
0.126079
0.12533
0.124471
0.123525
0.122511
0.121447
0.120352
0.119251
0.118161
0.117105
0.116093
0.115139
0.114252
0.113461
0.134739
0.134633
0.134511
0.134371
0.134212
0.134035
0.133858
0.133741
0.0833578
0.0474755
0.0298418
0.0290511
0.0338458
0.0397551
0.0540869
0.0813349
0.108617
0.108591
0.106457
0.104309
0.102187
0.10013
0.0981835
0.0963848
0.0947519
0.0932394
0.0918668
0.0906491
0.0895931
0.0887288
0.134739
0.134633
0.134512
0.134372
0.134213
0.134041
0.133883
0.117123
0.0606055
0.0299829
0.0200052
0.0138333
0.0207034
0.0221783
0.0243909
0.0364149
0.0476996
0.0537547
0.0514444
0.0493476
0.0474925
0.0459074
0.0445926
0.0435442
0.0427256
0.0420726
0.0415849
0.0412541
0.041072
0.0410582
0.134739
0.134633
0.134512
0.134372
0.134215
0.134046
0.133911
0.0964238
0.0455855
0.0194263
0.00948716
0.00504632
0.0108625
0.0114357
0.0150983
0.0157064
0.0161967
0.0166167
0.0169973
0.0173495
0.0176874
0.0180143
0.0183357
0.0186493
0.0189624
0.0192819
0.01961
0.0199477
0.0202982
0.0206527
0.134739
0.134633
0.134512
0.134373
0.134217
0.134051
0.133933
0.0861509
0.0372086
0.01417
0.00487553
0.00248441
0.0203687
0.0231237
0.0257167
0.0257538
0.0256678
0.0255259
0.0253801
0.0252606
0.0251633
0.0250883
0.0250371
0.0250032
0.0249819
0.0249687
0.02496
0.0249509
0.0249399
0.0249167
0.134739
0.134633
0.134512
0.134373
0.134216
0.134051
0.133933
0.0861687
0.037221
0.0141697
0.00444681
0.00165478
0.0304431
0.0365499
0.0266772
0.0269844
0.0270557
0.0270106
0.0269132
0.0267888
0.0266451
0.0264861
0.0263134
0.026127
0.0259306
0.0257258
0.0255165
0.0253083
0.0251082
0.0249192
0.134739
0.134633
0.134512
0.134372
0.134214
0.134046
0.133912
0.0964205
0.0455941
0.0194413
0.00654594
0.00224238
0.0127189
0.020488
0.0159447
0.0167963
0.0174774
0.0180555
0.0185589
0.0190004
0.0193851
0.019719
0.0200047
0.0202454
0.0204366
0.020589
0.0207086
0.0208127
0.0209155
0.0210301
0.134739
0.134633
0.134511
0.134372
0.134214
0.134041
0.133884
0.117107
0.0606557
0.0300244
0.0137798
0.00943299
0.0144856
0.0139597
0.0240853
0.0368362
0.0546332
0.0582249
0.0569527
0.055835
0.0548243
0.0538922
0.0530198
0.052167
0.051262
0.0502604
0.0491216
0.0478318
0.0464022
0.0448971
0.134739
0.134633
0.134511
0.134372
0.134212
0.134036
0.13386
0.133746
0.083422
0.0474773
0.029919
0.0289475
0.0332125
0.0387847
0.0488077
0.069111
0.0968561
0.111432
0.110212
0.108951
0.107665
0.106361
0.105069
0.103781
0.1025
0.101204
0.0998774
0.0984798
0.0969975
0.0954346
0.134739
0.134633
0.134511
0.134371
0.134211
0.134032
0.133842
0.133675
0.11512
0.0707764
0.0484417
0.0483023
0.0526697
0.0630021
0.0787385
0.104381
0.126893
0.126477
0.126001
0.12548
0.124919
0.124317
0.123671
0.122987
0.122251
0.12146
0.120609
0.119698
0.118732
0.117714
0.134739
0.134633
0.134511
0.134371
0.134211
0.134029
0.133832
0.133632
0.133479
0.101954
0.0739382
0.0701014
0.080569
0.0972734
0.118172
0.131004
0.130669
0.130278
0.129862
0.129424
0.128966
0.128487
0.127986
0.127466
0.126926
0.126366
0.125782
0.12517
0.12453
0.123862
0.134739
0.134633
0.134511
0.134371
0.13421
0.134028
0.133828
0.133609
0.13341
0.133255
0.106891
0.102938
0.121065
0.132255
0.131976
0.131667
0.131315
0.130928
0.130518
0.13009
0.129644
0.129182
0.128707
0.128215
0.12771
0.127192
0.126658
0.126104
0.125529
0.124932
0.134739
0.134633
0.134511
0.134371
0.134211
0.134028
0.133827
0.133598
0.133375
0.133167
0.132974
0.132775
0.13243
0.132089
0.131763
0.131436
0.131082
0.130705
0.130306
0.129892
0.129462
0.129018
0.128561
0.128092
0.127609
0.127117
0.126613
0.126097
0.125569
0.125031
0.134739
0.134633
0.134511
0.134371
0.134211
0.134028
0.133824
0.133595
0.133361
0.133128
0.132891
0.13263
0.132277
0.131909
0.131562
0.131222
0.130865
0.13049
0.130094
0.129685
0.129261
0.128824
0.128375
0.127915
0.127443
0.12696
0.126469
0.125967
0.125456
0.124938
0.134739
0.134632
0.134511
0.134371
0.13421
0.134028
0.133824
0.133594
0.133356
0.133113
0.13286
0.132568
0.132214
0.131837
0.13148
0.131134
0.130774
0.130398
0.130003
0.129594
0.129171
0.128735
0.128287
0.127829
0.12736
0.126879
0.126391
0.125893
0.125385
0.124872
0.134745
0.134656
0.134567
0.134477
0.134386
0.134296
0.134206
0.134123
0.134053
0.133999
0.133956
0.133896
0.133798
0.133676
0.133555
0.133436
0.133309
0.133173
0.133023
0.132865
0.132699
0.132526
0.132346
0.132161
0.131971
0.131777
0.13158
0.13138
0.131178
0.130979
0.134745
0.134656
0.134567
0.134477
0.134386
0.134296
0.134208
0.134128
0.134064
0.134023
0.134
0.133966
0.133887
0.133779
0.133667
0.133553
0.133429
0.133293
0.133142
0.132982
0.132814
0.132638
0.132454
0.132265
0.13207
0.13187
0.131668
0.131462
0.131256
0.131053
0.134745
0.134656
0.134567
0.134477
0.134387
0.134298
0.134212
0.134139
0.13409
0.134081
0.13411
0.134134
0.134101
0.134025
0.133932
0.133826
0.133705
0.133567
0.133412
0.133246
0.13307
0.132885
0.132692
0.132492
0.132286
0.132076
0.131862
0.131647
0.131432
0.131221
0.134745
0.134656
0.134567
0.134477
0.134388
0.1343
0.13422
0.134159
0.13414
0.134193
0.128514
0.124401
0.134425
0.134399
0.134333
0.134236
0.13411
0.133956
0.133785
0.1336
0.133403
0.133195
0.132977
0.13275
0.132517
0.132279
0.132038
0.131797
0.131556
0.131322
0.134745
0.134656
0.134567
0.134478
0.134389
0.134304
0.134232
0.134191
0.134228
0.1216
0.0907108
0.0860355
0.0996804
0.119703
0.134297
0.13423
0.134107
0.13394
0.133748
0.133534
0.133302
0.133053
0.132791
0.132516
0.132233
0.131942
0.131648
0.131355
0.131065
0.130784
0.134745
0.134656
0.134567
0.134478
0.134391
0.13431
0.134248
0.134244
0.134367
0.0871729
0.0610982
0.0581133
0.0664844
0.0781126
0.0966362
0.124565
0.132477
0.132301
0.132058
0.13176
0.131414
0.131027
0.130605
0.130155
0.129684
0.1292
0.128714
0.128233
0.127763
0.127318
0.134745
0.134656
0.134567
0.134479
0.134393
0.134316
0.134271
0.13432
0.101467
0.059957
0.0390796
0.0424556
0.0443049
0.0515296
0.065708
0.0820216
0.0979397
0.112598
0.125029
0.124289
0.123426
0.122474
0.121463
0.120422
0.119377
0.118351
0.11737
0.116443
0.11558
0.114806
0.134745
0.134656
0.134568
0.13448
0.134395
0.134324
0.134299
0.134418
0.075531
0.0406967
0.0240048
0.0217187
0.0271623
0.031007
0.0434946
0.0624636
0.0772601
0.0871928
0.0948088
0.0981404
0.0958735
0.0935602
0.0913296
0.0892768
0.0874288
0.0857755
0.0843354
0.0831136
0.0821058
0.081341
0.134746
0.134657
0.134568
0.13448
0.134397
0.134331
0.134325
0.116623
0.0591218
0.0284459
0.0160964
0.0115237
0.0147167
0.0166974
0.0240052
0.0351926
0.0487442
0.0499085
0.0491035
0.0483697
0.0476815
0.0470262
0.0464423
0.0459157
0.0454431
0.0450209
0.0446572
0.0443549
0.0441217
0.043948
0.134746
0.134657
0.134568
0.134481
0.134399
0.134335
0.134342
0.105776
0.0498584
0.0223563
0.00980246
0.00650045
0.0106478
0.0137695
0.0218347
0.0221939
0.0224973
0.0227167
0.0228926
0.0230318
0.0231334
0.0232074
0.0232742
0.0233273
0.0233652
0.0233959
0.0234217
0.0234456
0.0234727
0.0235038
0.134746
0.134657
0.134568
0.134481
0.134399
0.134335
0.134342
0.105793
0.0498842
0.0223808
0.00921474
0.00618709
0.0127589
0.0159743
0.0222193
0.0223366
0.0224488
0.022505
0.0225458
0.0225704
0.0225912
0.02261
0.0226421
0.022681
0.0227299
0.0227858
0.0228525
0.0229345
0.0230351
0.0231544
0.134745
0.134657
0.134568
0.13448
0.134397
0.134331
0.134325
0.116658
0.0591828
0.0284852
0.0122679
0.00788356
0.013457
0.0152395
0.0239792
0.035644
0.0517856
0.0511587
0.0500622
0.0490561
0.0481249
0.0472573
0.046432
0.0456473
0.0449218
0.0442485
0.0436364
0.0430686
0.0425522
0.0421032
0.134745
0.134656
0.134568
0.13448
0.134395
0.134324
0.1343
0.134419
0.0756159
0.0407483
0.0241536
0.0218954
0.0270493
0.0306029
0.0411648
0.0572123
0.0723151
0.0856303
0.0972892
0.100559
0.0988959
0.0972152
0.0955389
0.0938839
0.0922496
0.0906263
0.0889977
0.0873198
0.0855621
0.0836869
0.134745
0.134656
0.134567
0.134479
0.134393
0.134317
0.134272
0.134323
0.101568
0.0600129
0.0392169
0.0426153
0.043631
0.0500465
0.0617265
0.0766561
0.0963215
0.119363
0.125817
0.125382
0.12485
0.124238
0.123556
0.122815
0.122018
0.121172
0.120274
0.119325
0.118326
0.117277
0.134745
0.134656
0.134567
0.134478
0.134391
0.13431
0.134249
0.134247
0.134372
0.0871396
0.0610723
0.0581545
0.0653578
0.075147
0.0902657
0.116047
0.132549
0.132453
0.132311
0.132133
0.131922
0.131679
0.131406
0.131102
0.130766
0.130401
0.130002
0.129568
0.129096
0.128589
0.134745
0.134656
0.134567
0.134478
0.134389
0.134305
0.134233
0.134195
0.134234
0.121021
0.0903017
0.0855695
0.0975702
0.114354
0.134362
0.134339
0.134258
0.13414
0.133999
0.13384
0.133664
0.133472
0.133265
0.133045
0.132811
0.132564
0.132303
0.132028
0.131739
0.131438
0.134745
0.134656
0.134567
0.134477
0.134388
0.134301
0.134222
0.134162
0.134147
0.134205
0.127226
0.12295
0.134458
0.134456
0.134423
0.134357
0.134259
0.134137
0.133999
0.133847
0.133681
0.133505
0.133318
0.133121
0.132916
0.1327
0.132475
0.132241
0.131997
0.131745
0.134745
0.134656
0.134567
0.134477
0.134387
0.134299
0.134214
0.134143
0.134098
0.134093
0.134129
0.134159
0.134136
0.134074
0.134002
0.133918
0.133816
0.133698
0.133566
0.133423
0.133269
0.133105
0.132932
0.132752
0.132563
0.132365
0.13216
0.131947
0.131726
0.131501
0.134745
0.134656
0.134567
0.134477
0.134387
0.134297
0.13421
0.134132
0.134071
0.134035
0.134019
0.133991
0.133919
0.13382
0.133722
0.133623
0.133514
0.133392
0.133259
0.133117
0.132965
0.132806
0.132638
0.132462
0.132279
0.132089
0.131891
0.131686
0.131475
0.13126
0.134745
0.134656
0.134567
0.134477
0.134386
0.134296
0.134208
0.134127
0.13406
0.134011
0.133974
0.13392
0.133828
0.133713
0.133603
0.133497
0.133383
0.133259
0.133125
0.132982
0.13283
0.13267
0.132502
0.132328
0.132146
0.131958
0.131762
0.13156
0.13135
0.131138
0.134745
0.134657
0.134569
0.134481
0.134395
0.13431
0.134229
0.134157
0.134098
0.134054
0.134021
0.133981
0.133919
0.133843
0.133768
0.133697
0.133623
0.133543
0.133459
0.133372
0.133281
0.133189
0.133094
0.132998
0.1329
0.1328
0.1327
0.132598
0.132495
0.132395
0.134745
0.134657
0.134569
0.134481
0.134395
0.134311
0.134231
0.134161
0.134107
0.134073
0.134056
0.134035
0.133989
0.133925
0.133859
0.133793
0.133722
0.133645
0.133563
0.133477
0.133388
0.133296
0.133202
0.133106
0.133008
0.132908
0.132807
0.132705
0.132601
0.1325
0.134746
0.134657
0.134569
0.134481
0.134395
0.134312
0.134235
0.13417
0.134128
0.134119
0.134141
0.134165
0.134158
0.134122
0.134075
0.13402
0.133955
0.133882