/*--------------------------------*- C++ -*----------------------------------*\
| =========                 |                                                 |
| \\      /  F ield         | OpenFOAM: The Open Source CFD Toolbox           |
|  \\    /   O peration     | Version:  2512                                  |
|   \\  /    A nd           | Website:  www.openfoam.com                      |
|    \\/     M anipulation  |                                                 |
\*---------------------------------------------------------------------------*/
FoamFile
{
    version     2.0;
    format      ascii;
    arch        "LSB;label=32;scalar=64";
    class       volScalarField;
    location    "240";
    object      nut;
}
// * * * * * * * * * * * * * * * * * * * * * * * * * * * * * * * * * * * * * //

dimensions      [0 2 -1 0 0 0 0];

internalField   nonuniform List<scalar> 
90398
(
0.01442
0.0141783
0.0139484
0.0137274
0.0135161
0.0133125
0.0131115
0.0129355
0.0127559
0.0125881
0.012428
0.0122711
0.0121248
0.0119885
0.0118524
0.0117204
0.0115909
0.0114666
0.0113481
0.0112355
0.011129
0.0110294
0.0109372
0.010853
0.00989583
0.00823556
0.00710451
0.0060953
0.00800948
0.0188208
0.0144199
0.0141783
0.0139483
0.0137274
0.0135161
0.0133129
0.0131134
0.0129371
0.0127581
0.0125917
0.0124302
0.0122735
0.0121278
0.0119918
0.0118559
0.0117238
0.0115939
0.0114694
0.0113505
0.0112376
0.011131
0.0110313
0.010939
0.0108548
0.00990567
0.00823806
0.00711402
0.00714875
0.0164847
0.0325556
0.01442
0.0141783
0.0139485
0.0137275
0.0135169
0.0133146
0.0131181
0.0129387
0.01276
0.0125944
0.0124343
0.0122783
0.0121334
0.0119986
0.0118628
0.0117304
0.0115993
0.0114741
0.0113552
0.0112421
0.0111352
0.0110354
0.0109432
0.0108592
0.00983971
0.00817162
0.00724693
0.0113054
0.0257467
0.046587
0.01442
0.0141784
0.0139483
0.0137281
0.0135182
0.013317
0.01312
0.0129367
0.0127632
0.0125994
0.0124405
0.012287
0.0121437
0.0120096
0.0118743
0.0117414
0.0116094
0.0114834
0.011364
0.0112506
0.0111437
0.0110442
0.010953
0.0108714
0.00975141
0.0081083
0.00803099
0.0178846
0.0363381
0.0578173
0.01442
0.0141785
0.0139481
0.0137288
0.0135201
0.0133211
0.013124
0.0129392
0.0127684
0.012607
0.0124501
0.012323
0.0121833
0.0120279
0.0118934
0.0117595
0.0116263
0.0114993
0.0113794
0.0112664
0.011162
0.0110694
0.0109931
0.01094
0.00965142
0.0081438
0.00991261
0.0233772
0.0449889
0.0658843
0.0144202
0.0141784
0.0139482
0.0137288
0.01352
0.0133258
0.013142
0.0129466
0.0127756
0.0126357
0.0124739
0.0123195
0.0121832
0.0120522
0.0119199
0.0117848
0.0116494
0.0115217
0.0114072
0.0113143
0.0112574
0.0112537
0.0113214
0.0114753
0.0100954
0.00904022
0.0122954
0.0271551
0.0488865
0.0696289
0.0144205
0.014179
0.0139488
0.0137299
0.0135205
0.0133271
0.0131468
0.0129545
0.0127838
0.0126109
0.0124476
0.0123034
0.0121756
0.0120719
0.01195
0.0118215
0.0117023
0.0116472
0.0117043
0.0119168
0.0122959
0.0120935
0.0107347
0.0100336
0.00980971
0.0100436
0.0129111
0.0283486
0.0494989
0.0709616
0.0144205
0.0141798
0.0139524
0.0137381
0.0135264
0.0133254
0.0131471
0.012967
0.0127842
0.00630397
0.00614668
0.00600939
0.00588277
0.00580226
0.00613727
0.0066699
0.00723172
0.00767065
0.00823829
0.00899769
0.00984083
0.0106453
0.0113451
0.0119846
0.0127121
0.0138776
0.0174279
0.0297304
0.0496914
0.0725012
0.0144205
0.0141799
0.0139539
0.0137436
0.0135361
0.0133294
0.0131427
0.0129599
0.00638008
0.00438281
0.0048351
0.00489019
0.00600474
0.00366014
0.0178926
0.0188255
0.0188319
0.0178152
0.016654
0.0157259
0.0149868
0.0143948
0.013996
0.013851
0.0140312
0.0149693
0.0196084
0.0345925
0.054235
0.0753829
0.0144206
0.0141795
0.0139512
0.0137386
0.0135355
0.0133303
0.0131381
0.012957
0.00638702
0.00154728
0.00123195
0.00235388
0.00340717
0.00340063
0.0172905
0.0169206
0.0164575
0.0154414
0.0143668
0.0135065
0.0128161
0.0122457
0.0118068
0.0115543
0.0116083
0.0127281
0.0204811
0.0385178
0.0603041
0.0813443
0.0144205
0.0141795
0.0139511
0.0137385
0.0135353
0.0133302
0.013138
0.0129573
0.00638832
0.00108888
0.00469525
0.0071709
0.0053158
0.0148617
0.014986
0.0150774
0.014637
0.0141567
0.0139025
0.0138217
0.0138655
0.0140615
0.0144838
0.0151906
0.0181519
0.0283846
0.0474877
0.0710979
0.0910112
0.0144205
0.0141797
0.0139537
0.0137432
0.0135356
0.013329
0.0131425
0.0129598
0.00638318
0.00262507
0.000998741
0.00461846
0.00554739
0.00437635
0.0198722
0.0209224
0.0227254
0.0234964
0.0238383
0.0221476
0.0206933
0.0194379
0.0183505
0.0174092
0.0167152
0.019516
0.0356844
0.0598972
0.0832381
0.100966
0.0144205
0.0141796
0.0139521
0.0137376
0.0135258
0.0133247
0.0131467
0.0129649
0.0127839
0.00481478
0.00303746
0.00758384
0.0104949
0.0104833
0.0175148
0.016546
0.0158471
0.0152108
0.0146404
0.0141331
0.0136848
0.0132916
0.0129499
0.0126621
0.0129128
0.0225471
0.0457168
0.0706787
0.0923526
0.108071
0.0144204
0.0141788
0.0139484
0.0137293
0.0135198
0.0133263
0.013146
0.0129543
0.0127818
0.0126159
0.0098378
0.0102409
0.0123305
0.0124818
0.0123068
0.0121424
0.0119909
0.0118532
0.0117268
0.0116107
0.0115061
0.0114136
0.0113348
0.0112777
0.0118318
0.022741
0.0488422
0.0747092
0.0963131
0.11151
0.0144201
0.0141782
0.0139478
0.0137282
0.0135193
0.0133249
0.0131409
0.0129457
0.0127753
0.0126337
0.0124824
0.0123451
0.0122177
0.0120828
0.0119478
0.0118182
0.0116932
0.0115773
0.0114705
0.0113709
0.0112794
0.0111974
0.0111266
0.0110735
0.0114642
0.0207505
0.0479904
0.0752381
0.0975609
0.112891
0.0144199
0.0141783
0.0139477
0.0137283
0.0135193
0.0133201
0.0131228
0.0129379
0.0127674
0.0126068
0.0124502
0.0123258
0.0121896
0.0120339
0.0119007
0.0117715
0.011645
0.011526
0.0114144
0.0113091
0.0112111
0.0111223
0.0110444
0.0109827
0.0111699
0.0184022
0.0451048
0.073649
0.097004
0.112816
0.01442
0.0141783
0.013948
0.0137277
0.0135175
0.013316
0.0131186
0.012935
0.0127612
0.0125975
0.0124395
0.0122873
0.0121452
0.0120104
0.0118748
0.0117429
0.0116131
0.0114898
0.0113732
0.0112629
0.0111599
0.0110662
0.0109835
0.0109161
0.0109842
0.0162305
0.0411925
0.0706356
0.0950763
0.111575
0.01442
0.0141782
0.0139483
0.0137272
0.0135163
0.0133137
0.0131165
0.0129365
0.012757
0.0125907
0.0124302
0.0122741
0.0121294
0.0119936
0.0118567
0.0117236
0.0115923
0.0114667
0.0113474
0.0112342
0.0111282
0.0110313
0.0109456
0.0108743
0.0108686
0.0141945
0.035686
0.0661242
0.0918011
0.109208
0.0144199
0.0141782
0.0139482
0.0137271
0.0135156
0.0133119
0.0131116
0.0129343
0.0127542
0.0125864
0.0124239
0.0122667
0.0121205
0.0119835
0.0118459
0.0117121
0.0115804
0.0114534
0.0113318
0.0112162
0.0111078
0.0110085
0.0109202
0.0108461
0.0108049
0.0125924
0.0299636
0.0603817
0.0872577
0.105772
0.01442
0.0141784
0.0139484
0.0137272
0.0135156
0.0133114
0.0131093
0.012932
0.0127509
0.0125816
0.0124203
0.0122626
0.0121157
0.0119784
0.0118406
0.0117067
0.0115748
0.0114472
0.0113247
0.0112074
0.0110972
0.0109963
0.0109063
0.0108303
0.0107739
0.0116074
0.0250878
0.054742
0.082571
0.102033
0.123154
0.114139
0.106943
0.101012
0.0960081
0.0917167
0.0878826
0.0845279
0.0815157
0.0788346
0.0764419
0.0743562
0.0725218
0.0709313
0.0694822
0.0681428
0.0668947
0.0657058
0.0645936
0.0635503
0.0625744
0.0616741
0.0608492
0.0600557
0.0592995
0.0586033
0.0587825
0.0839818
0.207372
0.514336
0.123153
0.114138
0.106939
0.101006
0.0960067
0.0916976
0.0878227
0.0844386
0.0813909
0.0786862
0.0762679
0.0741715
0.0723507
0.0707793
0.0693381
0.0680018
0.0667548
0.0655629
0.0644433
0.0633853
0.0623889
0.0614639
0.0606129
0.0597944
0.0590206
0.0584674
0.0645448
0.173726
0.462301
0.941584
0.123152
0.114132
0.10693
0.100989
0.0959924
0.0916491
0.0877042
0.0842551
0.0811331
0.0783522
0.075879
0.0737522
0.0719616
0.0704148
0.0689977
0.0676737
0.0664085
0.0652065
0.0640536
0.0629497
0.0618998
0.0609162
0.0600032
0.0591274
0.0583285
0.0586838
0.0901033
0.350576
0.747362
1.17194
0.123151
0.114125
0.106916
0.100962
0.0959544
0.0915735
0.0875366
0.0839804
0.0807441
0.0777985
0.0752346
0.073139
0.0713483
0.0698399
0.0684594
0.0671535
0.0658608
0.0646202
0.063404
0.0622146
0.0610599
0.0599559
0.0589083
0.0578893
0.0570361
0.0610081
0.154296
0.564652
1.02626
1.2703
0.12315
0.114117
0.106895
0.100925
0.0959142
0.0915266
0.0873575
0.0836292
0.0801674
0.0769263
0.0742312
0.0721513
0.0704697
0.0690317
0.0677041
0.0664135
0.065037
0.0636849
0.0623167
0.0609205
0.0594966
0.0580529
0.0565842
0.0550573
0.053839
0.0659455
0.235883
0.726103
1.16033
1.3006
0.123146
0.114107
0.106876
0.100884
0.0958388
0.0915924
0.0873001
0.0831908
0.0793043
0.0698891
0.066116
0.0710203
0.0694436
0.0680987
0.0668142
0.0654876
0.0638085
0.0619564
0.0599033
0.0576233
0.0551169
0.0524174
0.0495543
0.0466206
0.0443285
0.0615388
0.249343
0.733666
1.12393
1.26122
0.123152
0.114107
0.106902
0.100903
0.0957283
0.0914713
0.0873308
0.0826735
0.0649463
0.0437198
0.0409763
0.043657
0.0537178
0.0613468
0.0638988
0.0613574
0.0574732
0.0532974
0.0489216
0.0445494
0.0406053
0.0359092
0.0307597
0.0273657
0.025723
0.0341572
0.136839
0.498323
0.938729
1.14251
0.123162
0.114143
0.107057
0.101164
0.0956398
0.0910738
0.0869859
0.0807921
0.0399872
0.0287434
0.0315584
0.0286544
0.0356869
0.0311011
0.0191631
0.0208899
0.0205853
0.019088
0.018252
0.018036
0.0180275
0.0182211
0.0186819
0.0193606
0.0202559
0.0242068
0.0683337
0.253121
0.614563
0.982651
0.123164
0.114151
0.107068
0.101262
0.0957384
0.0906798
0.086227
0.0606835
0.0318332
0.0130174
0.0195654
0.00796434
0.0203752
0.0162818
0.0240454
0.0252035
0.0264985
0.0280204
0.0296891
0.031136
0.0320919
0.0318999
0.0318183
0.0318313
0.0311117
0.0354588
0.0868241
0.285656
0.632648
0.927467
0.123163
0.114121
0.106973
0.101195
0.0959252
0.0906288
0.0858438
0.0484884
0.0204802
0.00596721
0.00300418
0.00217166
0.00587962
0.00937474
0.0135341
0.0140775
0.0145185
0.0148003
0.014867
0.0148873
0.0149219
0.0150003
0.0151511
0.0154177
0.0166402
0.031524
0.131778
0.410337
0.774566
1.02798
0.123162
0.114119
0.106968
0.101192
0.0959119
0.0905982
0.0857764
0.0473066
0.0172966
0.00362128
0.00362059
0.0124503
0.0128856
0.013297
0.0137278
0.0141961
0.0147064
0.0152613
0.0158557
0.0164823
0.0172076
0.0202649
0.0551669
0.237716
0.610762
0.971194
1.16246
0.123162
0.114145
0.107063
0.101257
0.095709
0.0906025
0.0860425
0.0557869
0.0228551
0.00681639
0.00511901
0.00488725
0.00502432
0.00797741
0.0124144
0.0132913
0.0139326
0.0145135
0.0150792
0.0156471
0.0162361
0.0168596
0.0175328
0.0185931
0.0287445
0.142367
0.524889
0.958038
1.20873
1.29551
0.123159
0.114134
0.107049
0.101136
0.0955786
0.0909453
0.0867036
0.0692177
0.0316317
0.013968
0.00918775
0.0092622
0.0140517
0.0171091
0.028705
0.0300559
0.0311417
0.0322787
0.0334019
0.0344807
0.0355253
0.0365647
0.0376944
0.042018
0.120868
0.530324
1.01968
1.27254
1.37029
1.37979
0.123148
0.114094
0.106876
0.100854
0.09564
0.0913067
0.0869998
0.0819757
0.0500384
0.0285744
0.0214468
0.0227415
0.031079
0.0419244
0.0529217
0.0533454
0.0537526
0.054192
0.0546336
0.0550702
0.0555259
0.0560234
0.0567276
0.063038
0.172476
0.63856
1.21155
1.39338
1.44126
1.42302
0.123141
0.114092
0.106845
0.100827
0.0957403
0.0914166
0.0869793
0.0825855
0.0765752
0.0474038
0.0366222
0.0406568
0.0497004
0.0624096
0.0621417
0.0618745
0.0616061
0.0613793
0.0611866
0.0610309
0.0609349
0.0609311
0.0611378
0.0660406
0.165384
0.562324
1.24239
1.43714
1.47504
1.44715
0.123144
0.1141
0.10686
0.100864
0.0958111
0.0913524
0.0870611
0.0831174
0.0792888
0.0738871
0.0584432
0.0623174
0.0673474
0.0664131
0.0657164
0.0650526
0.0644237
0.0638547
0.0633454
0.0629008
0.0625424
0.062304
0.0622419
0.0653239
0.131052
0.464554
1.20965
1.44948
1.49296
1.46235
0.123145
0.114107
0.106879
0.100898
0.0958507
0.0914064
0.0872685
0.0835505
0.0800637
0.0767537
0.0736949
0.0712634
0.0694824
0.0683264
0.0673699
0.0664826
0.0656572
0.0648989
0.0642188
0.0636207
0.0631245
0.0627617
0.0625662
0.0643306
0.109178
0.383637
1.08225
1.44368
1.50146
1.47236
0.123146
0.114113
0.106892
0.100924
0.0958897
0.0914896
0.0874604
0.0838871
0.080591
0.0775823
0.0748535
0.072554
0.0707784
0.0694659
0.0683415
0.0673113
0.0663664
0.0654892
0.0647064
0.0640189
0.0634449
0.0630146
0.0627427
0.0636085
0.0870262
0.296476
0.911943
1.42306
1.50119
1.47777
0.123147
0.114119
0.1069
0.100941
0.095905
0.0915438
0.087596
0.0841115
0.0809346
0.0780768
0.0755054
0.073317
0.0715286
0.0701302
0.0689111
0.0678013
0.0667941
0.0658437
0.0650003
0.0642611
0.0636425
0.0631736
0.0628579
0.0631994
0.0726762
0.218657
0.742015
1.37402
1.48848
1.47764
0.123148
0.11412
0.106905
0.100948
0.0959083
0.0915675
0.0876666
0.0842238
0.0811044
0.0783057
0.0758075
0.0736688
0.0718825
0.070453
0.0691926
0.0680499
0.0670121
0.0660335
0.0651668
0.0644086
0.0637748
0.0632928
0.0629605
0.063056
0.06412
0.15353
0.578768
1.3132
1.47002
1.47355
0.13447
0.133884
0.13312
0.132211
0.13118
0.130054
0.128843
0.127567
0.126246
0.124907
0.123558
0.122244
0.120926
0.119676
0.118466
0.117274
0.116114
0.114923
0.113804
0.112734
0.111721
0.110783
0.109918
0.101103
0.0867005
0.079563
0.0817071
0.287258
0.501314
0.965827
0.13447
0.133884
0.133119
0.132211
0.131176
0.130046
0.128828
0.127541
0.126206
0.124851
0.123489
0.122189
0.120846
0.1196
0.118388
0.117193
0.116028
0.114833
0.113702
0.112614
0.111577
0.110611
0.109716
0.101559
0.086777
0.0805884
0.13474
0.520537
0.90404
1.81529
0.13447
0.133883
0.133118
0.13221
0.131167
0.130029
0.128796
0.127486
0.12612
0.124734
0.123349
0.122041
0.120687
0.119449
0.118234
0.117032
0.115857
0.114653
0.113483
0.112341
0.111242
0.110207
0.109237
0.100913
0.0860146
0.0927971
0.264113
0.762648
1.38312
3.02999
0.13447
0.133883
0.133117
0.132207
0.131155
0.130005
0.12875
0.127404
0.125989
0.124562
0.123144
0.121871
0.120471
0.119243
0.118025
0.116808
0.115587
0.114327
0.113069
0.111818
0.110587
0.109396
0.108235
0.099262
0.0864642
0.133715
0.456704
1.07273
2.068
3.77669
0.13447
0.133882
0.133114
0.132202
0.131179
0.129969
0.128685
0.127292
0.125811
0.114396
0.101572
0.109921
0.120225
0.119011
0.117781
0.11651
0.115162
0.113728
0.112233
0.110666
0.109016
0.107269
0.10539
0.0978879
0.0918516
0.216689
0.690194
1.4964
2.98921
3.72183
0.134469
0.133882
0.133114
0.132197
0.131191
0.129933
0.12862
0.127168
0.111981
0.0759092
0.0665427
0.0750695
0.0861109
0.11025
0.116678
0.115205
0.113405
0.111275
0.108756
0.105756
0.102225
0.0981648
0.0935638
0.0889753
0.100796
0.328198
0.93107
1.9111
3.31559
3.51559
0.13447
0.133881
0.133122
0.132206
0.131161
0.129935
0.128546
0.127026
0.0736911
0.0517169
0.0399776
0.0417516
0.0523115
0.0625919
0.10873
0.104575
0.0985975
0.0920422
0.0849693
0.0777145
0.0707249
0.0641438
0.0581401
0.0530767
0.0616251
0.244085
0.863646
1.85907
2.82702
3.16446
0.13447
0.133884
0.133121
0.132206
0.13118
0.129927
0.128458
0.0955227
0.0502188
0.0296765
0.0297559
0.0259694
0.0294247
0.0296627
0.0287878
0.0342603
0.0317356
0.0300454
0.0287666
0.027743
0.0269657
0.0263888
0.0259261
0.0255928
0.0305015
0.122867
0.532393
1.39294
2.26471
2.77185
0.13447
0.133886
0.133129
0.132184
0.131154
0.129891
0.128427
0.0752392
0.0423814
0.0185409
0.0132018
0.00570713
0.012627
0.0177379
0.0206119
0.0204003
0.020325
0.020361
0.0204882
0.0206349
0.0207159
0.0206531
0.0203901
0.0201157
0.0233175
0.0821798
0.401553
1.09897
1.95029
2.56479
0.134471
0.133883
0.133135
0.132219
0.13116
0.129883
0.128465
0.0614769
0.028848
0.00959837
0.00608507
0.00201201
0.00822358
0.0125527
0.0134994
0.0139994
0.0144006
0.0147667
0.0151357
0.0154969
0.01586
0.016233
0.0166425
0.0172712
0.0245338
0.11065
0.480702
1.23776
2.1061
2.68726
0.134471
0.133883
0.133135
0.132218
0.131158
0.129876
0.12845
0.0597453
0.0257225
0.00611763
0.00511464
0.00829396
0.0148482
0.0151967
0.0154656
0.0157235
0.0160043
0.0163007
0.016614
0.0169364
0.01729
0.0183866
0.03786
0.223106
0.834861
1.77139
2.58762
3.00684
0.13447
0.133885
0.133127
0.132181
0.131146
0.129872
0.128381
0.0697943
0.0311888
0.0110186
0.00831964
0.00252546
0.0151621
0.017089
0.0154305
0.0154743
0.0155693
0.0157113
0.0159186
0.0161945
0.0165572
0.017021
0.0176904
0.022044
0.0988969
0.607775
1.67033
2.64694
3.18793
3.35468
0.13447
0.133883
0.133119
0.132201
0.131167
0.129895
0.128385
0.0844322
0.0404462
0.0209671
0.0128611
0.00980933
0.0153929
0.0180741
0.0311371
0.0482784
0.0461927
0.0452364
0.0449237
0.0450478
0.0455711
0.0465103
0.0490181
0.0847947
0.47306
1.62049
2.84359
3.44809
3.63581
3.60008
0.134469
0.13388
0.133119
0.132198
0.131143
0.129895
0.128458
0.114346
0.0603607
0.0361982
0.0262533
0.027387
0.0353518
0.0467629
0.0765555
0.0991096
0.098143
0.097315
0.096613
0.0960526
0.0957032
0.0956732
0.097996
0.133418
0.474976
1.35811
3.32651
3.85973
3.87004
3.73681
0.134469
0.133881
0.13311
0.132187
0.131171
0.129889
0.128528
0.12698
0.0914824
0.0561712
0.0435292
0.0487587
0.0577209
0.0773463
0.112754
0.112106
0.11144
0.110822
0.110253
0.109747
0.109341
0.109128
0.107844
0.12833
0.404432
1.13576
2.91288
4.03915
3.98648
3.81232
0.134469
0.13388
0.13311
0.132192
0.131157
0.129924
0.128596
0.127122
0.125499
0.087672
0.0694619
0.0731348
0.0878467
0.110778
0.116763
0.115885
0.115022
0.114207
0.113456
0.112779
0.112214
0.111819
0.0986418
0.106012
0.329013
0.965262
2.50086
4.10839
4.04832
3.85887
0.13447
0.133881
0.133112
0.132196
0.131133
0.129961
0.128667
0.127255
0.125734
0.124155
0.105359
0.111908
0.119707
0.118673
0.117713
0.116754
0.115827
0.114935
0.11411
0.113361
0.112724
0.112246
0.09972
0.0954291
0.263136
0.818892
2.13577
4.11415
4.08092
3.89129
0.13447
0.133882
0.133114
0.132199
0.131145
0.129986
0.128719
0.127354
0.125906
0.124413
0.122904
0.121492
0.120134
0.119032
0.118011
0.117014
0.116061
0.115129
0.114266
0.113484
0.112816
0.112302
0.0981582
0.0851804
0.196096
0.66959
1.80915
4.01262
4.08674
3.9135
0.13447
0.133882
0.133115
0.1322
0.131153
0.130005
0.128755
0.127422
0.126021
0.124586
0.123135
0.121764
0.120416
0.119272
0.11821
0.117184
0.1162
0.115249
0.114362
0.113559
0.112875
0.112341
0.0973597
0.0793728
0.140528
0.521424
1.50142
3.40544
4.05218
3.92337
0.13447
0.133882
0.133115
0.132201
0.131159
0.130014
0.128774
0.127456
0.126078
0.124673
0.123255
0.121888
0.120573
0.119416
0.118336
0.117297
0.116303
0.115342
0.114444
0.113634
0.112943
0.112402
0.0955579
0.0758784
0.101312
0.377823
1.22742
2.89027
4.00329
3.92492
0.134739
0.134631
0.13451
0.13437
0.13421
0.134028
0.133826
0.133605
0.133369
0.133119
0.132847
0.132542
0.132206
0.131853
0.131487
0.131107
0.130719
0.130328
0.12994
0.129578
0.129256
0.128995
0.122817
0.103313
0.0884655
0.0832725
0.150289
0.610352
0.814359
1.47228
0.134738
0.134631
0.134509
0.13437
0.13421
0.134027
0.133825
0.133605
0.133371
0.133126
0.132861
0.132576
0.13223
0.131881
0.131515
0.131135
0.130746
0.130353
0.129962
0.129594
0.129263
0.128991
0.124146
0.104093
0.0884952
0.10096
0.320672
0.899238
1.38495
2.72281
0.134739
0.134631
0.134509
0.13437
0.134209
0.134027
0.133825
0.133607
0.13338
0.133148
0.132903
0.132652
0.132301
0.13196
0.131595
0.131214
0.130822
0.130412
0.130013
0.129629
0.129279
0.128982
0.125102
0.104111
0.0914286
0.169102
0.558302
1.19015
2.20395
4.79249
0.134739
0.134631
0.134509
0.13437
0.134208
0.134027
0.133826
0.133613
0.133402
0.133203
0.133004
0.132785
0.132474
0.132149
0.131788
0.131401
0.130999
0.130569
0.130136
0.129707
0.129297
0.128926
0.126072
0.104428
0.106913
0.307891
0.813012
1.66935
3.45403
5.90148
0.134739
0.134631
0.134509
0.13437
0.134209
0.134028
0.13383
0.13363
0.133455
0.132239
0.114504
0.122003
0.1327
0.132395
0.132027
0.131611
0.131157
0.130652
0.130111
0.129537
0.12893
0.128289
0.126792
0.108261
0.146695
0.487497
1.11156
2.38145
5.04282
5.87883
0.134739
0.134632
0.13451
0.13437
0.134212
0.134029
0.13384
0.133668
0.131479
0.0905556
0.0770868
0.0830607
0.0973798
0.126226
0.13148
0.130956
0.130315
0.129512
0.12854
0.127344
0.125871
0.124065
0.121993
0.115717
0.205584
0.665924
1.44738
3.18429
5.37259
5.6654
0.134739
0.134632
0.13451
0.13437
0.134214
0.134033
0.133859
0.133736
0.0916219
0.0600478
0.0453488
0.0476377
0.0578258
0.0769931
0.118329
0.125051
0.122888
0.120209
0.116874
0.112863
0.10822
0.102988
0.0975107
0.100079
0.226538
0.766946
1.68144
3.71445
4.93817
5.30002
0.134739
0.134632
0.134511
0.13437
0.134217
0.134041
0.133889
0.117139
0.0626472
0.0383166
0.0314693
0.0257351
0.0336403
0.0349315
0.0531239
0.0845392
0.0776786
0.0717604
0.0666977
0.0621908
0.0577809
0.0536248
0.0499257
0.0520344
0.165731
0.704411
1.69585
3.47071
4.39645
4.89889
0.134739
0.134632
0.134512
0.134373
0.134215
0.134048
0.133924
0.0912612
0.044541
0.0224504
0.0154258
0.00763312
0.0140128
0.0146143
0.0208539
0.020441
0.0201328
0.0199612
0.0198355
0.0197611
0.0197603
0.0198328
0.0200003
0.0231363
0.0912589
0.555505
1.67423
2.9709
4.03837
4.66124
0.134739
0.134632
0.134512
0.134376
0.134221
0.134067
0.133952
0.0765017
0.0348125
0.0173592
0.00736692
0.00157137
0.0115983
0.00719887
0.0198339
0.0198513
0.0197542
0.019637
0.01952
0.019402
0.0192887
0.0191958
0.0191803
0.0213657
0.0802334
0.508835
1.61994
2.99982
4.12217
4.7361
0.134739
0.134632
0.134512
0.134376
0.134221
0.134068
0.133954
0.0739107
0.0335518
0.0149359
0.00680745
0.00201219
0.0122788
0.0224071
0.0192671
0.0194813
0.0195305
0.0195492
0.0195725
0.0196065
0.0196681
0.019775
0.0201153
0.027468
0.1591
0.881266
2.27706
3.67221
4.62414
5.05895
0.134739
0.134632
0.134512
0.134373
0.134215
0.134049
0.133932
0.0846717
0.0397479
0.0192462
0.0093381
0.00175452
0.00889159
0.00743101
0.0256819
0.0254881
0.0255006
0.0257618
0.0261607
0.0267114
0.0274452
0.0284291
0.0316172
0.0881803
0.580668
1.92868
3.53014
4.66514
5.26258
5.4437
0.134739
0.134632
0.134511
0.13437
0.134217
0.134042
0.133896
0.105208
0.0536981
0.0300977
0.0172327
0.0126297
0.0199607
0.023163
0.0464828
0.0879009
0.0880243
0.0869132
0.0862068
0.0857123
0.0854806
0.0858097
0.0964564
0.294765
1.11664
2.50354
4.7043
5.48828
5.76233
5.74296
0.134739
0.134632
0.13451
0.13437
0.134214
0.134032
0.133861
0.133766
0.0772326
0.0466202
0.0342591
0.0358045
0.0425404
0.0574552
0.0850928
0.121854
0.12141
0.121037
0.120714
0.120441
0.120277
0.120579
0.120851
0.27844
0.880839
2.13634
5.1378
5.94907
6.05451
5.92649
0.134739
0.134632
0.13451
0.134369
0.134211
0.134027
0.133837
0.133673
0.110967
0.0712113
0.0559277
0.0590413
0.0680744
0.0864709
0.121087
0.129756
0.12947
0.129198
0.128944
0.128723
0.128583
0.12878
0.11503
0.232919
0.753323
1.8627
4.54967
6.15721
6.20348
6.02821
0.134739
0.134632
0.134509
0.134369
0.134207
0.134024
0.133823
0.133622
0.133456
0.106532
0.0850447
0.0874561
0.102198
0.12583
0.131998
0.131697
0.131374
0.131061
0.130768
0.130511
0.130327
0.126773
0.104155
0.183499
0.638235
1.63466
3.96194
6.22
6.27205
6.08386
0.134739
0.134632
0.134509
0.134369
0.134206
0.134022
0.133816
0.133598
0.133385
0.133194
0.12567
0.131418
0.132554
0.132321
0.13205
0.131738
0.131413
0.131095
0.130797
0.130535
0.130346
0.126035
0.100511
0.144819
0.520528
1.40818
3.40165
6.18397
6.2923
6.11472
0.134739
0.134632
0.134509
0.134369
0.134206
0.134022
0.133814
0.133588
0.133352
0.133116
0.132873
0.132624
0.132292
0.13201
0.131723
0.131418
0.131103
0.130797
0.130509
0.13026
0.130085
0.123576
0.0966384
0.112437
0.401696
1.17906
2.87902
5.43567
6.26906
6.12886
0.134739
0.134632
0.134509
0.134369
0.134207
0.134022
0.133814
0.133585
0.133341
0.133085
0.13281
0.132511
0.132165
0.131853
0.131549
0.131239
0.130925
0.130619
0.130334
0.130092
0.129926
0.121605
0.0944708
0.0912506
0.289143
0.941152
2.35749
4.40119
5.63676
6.12782
0.134739
0.134632
0.13451
0.134369
0.134208
0.134022
0.133814
0.133585
0.133338
0.133076
0.132791
0.132469
0.132125
0.131801
0.131489
0.131177
0.130863
0.130559
0.130275
0.130036
0.129875
0.119735
0.0926506
0.0796175
0.193515
0.708485
1.93143
3.61931
4.81391
5.93349
0.134745
0.134655
0.134565
0.134474
0.134383
0.134293
0.134205
0.134121
0.134046
0.133978
0.133908
0.133823
0.133719
0.133602
0.13348
0.133354
0.133229
0.133113
0.133013
0.132943
0.132924
0.132974
0.12265
0.102889
0.0876549
0.0963527
0.302169
0.875426
1.11745
2.07353
0.134745
0.134655
0.134565
0.134474
0.134383
0.134293
0.134206
0.134125
0.134053
0.133992
0.133932
0.133857
0.133759
0.133646
0.133526
0.133401
0.133279
0.133164
0.133065
0.132996
0.132976
0.133026
0.124006
0.103044
0.0896992
0.162932
0.577737
1.24538
1.92925
3.70691
0.134745
0.134655
0.134565
0.134474
0.134384
0.134294
0.134209
0.134133
0.134072
0.134029
0.133994
0.133943
0.133862
0.133759
0.133644
0.133525
0.133406
0.133294
0.133197
0.133129
0.133108
0.133156
0.125134
0.102684
0.106089
0.323323
0.85209
1.68651
3.26032
6.71496
0.134745
0.134655
0.134565
0.134475
0.134384
0.134296
0.134215
0.134148
0.134108
0.134104
0.134123
0.134122
0.134077
0.133996
0.133893
0.13378
0.133665
0.133554
0.133455
0.133381
0.13335
0.133382
0.125735
0.105414
0.158999
0.542106
1.17318
2.46862
5.2626
7.51109
0.134745
0.134655
0.134565
0.134475
0.134385
0.1343
0.134225
0.134175
0.134176
0.134246
0.134353
0.134428
0.134431
0.134378
0.134281
0.134161
0.134031
0.133894
0.133764
0.133649
0.133558
0.133513
0.126288
0.116516
0.258494
0.770202
1.60506
3.62497
7.09597
7.57463
0.134745
0.134655
0.134565
0.134476
0.134387
0.134305
0.13424
0.134221
0.134293
0.113248
0.0932217
0.0980109
0.11879
0.134392
0.134313
0.134165
0.133978
0.133755
0.133502
0.13321
0.13287
0.132497
0.127546
0.136374
0.379257
1.00302
2.138
4.97414
7.07607
7.45185
0.134745
0.134655
0.134565
0.134476
0.134389
0.134312
0.134263
0.134294
0.117087
0.0764087
0.0612878
0.0694205
0.0760721
0.0950704
0.132594
0.132263
0.131799
0.13116
0.130314
0.129204
0.127793
0.126117
0.123158
0.152444
0.477389
1.20036
2.66602
6.00701
6.83537
7.19669
0.134745
0.134655
0.134565
0.134477
0.134392
0.13432
0.134294
0.134395
0.0834237
0.0523728
0.0348402
0.0356898
0.0447462
0.0552723
0.0982219
0.121526
0.119034
0.116355
0.113192
0.10951
0.105477
0.101372
0.0894177
0.131733
0.492099
1.30743
3.11947
5.66975
6.49921
6.90829
0.134745
0.134656
0.134566
0.134478
0.134394
0.134328
0.134327
0.118353
0.0628247
0.0358803
0.0249661
0.0203747
0.0269316
0.0254406
0.0477462
0.0801339
0.0743233
0.0698431
0.0661865
0.0628578
0.0599187
0.0572509
0.0576757
0.127702
0.578887
1.50177
3.64233
5.34463
6.26063
6.72714
0.134745
0.134656
0.134566
0.134479
0.134396
0.134335
0.134352
0.101992
0.0522295
0.026993
0.0150912
0.00981922
0.0205225
0.0182735
0.0250539
0.0304045
0.0291553
0.0283787
0.0278771
0.0275983
0.0274973
0.0275993
0.02961
0.0858888
0.618512
1.92183
3.95052
5.37476
6.31237
6.76156
0.134745
0.134656
0.134566
0.134479
0.134396
0.134336
0.134356
0.099764
0.050181
0.0256975
0.0129959
0.00818705
0.0148166
0.0151821
0.0265639
0.0355102
0.033552
0.0324008
0.0317653
0.0314946
0.0315819
0.0320321
0.0374423
0.153346
0.949675
2.61932
4.56901
5.88546
6.66597
6.98699
0.134745
0.134656
0.134566
0.134478
0.134394
0.134331
0.134337
0.111097
0.0576002
0.0314524
0.0164986
0.0116497
0.0209063
0.0222444
0.0431324
0.0785734
0.0815062
0.0787623
0.0767316
0.0753563
0.0747143
0.0757483
0.099654
0.434276
1.40887
3.16431
5.5353
6.59506
7.12559
7.27544
0.134745
0.134655
0.134566
0.134477
0.134392
0.134323
0.134306
0.134041
0.0738484
0.0440795
0.0295813
0.0297131
0.0362379
0.0459783
0.0728332
0.119253
0.118937
0.118216
0.11764
0.117039
0.116645
0.117879
0.160613
0.560079
1.41937
3.14046
6.29821
7.1692
7.50128
7.515
0.134745
0.134655
0.134565
0.134476
0.13439
0.134314
0.134272
0.134329
0.102025
0.0629679
0.0488087
0.0537128
0.0575949
0.0714298
0.10196
0.130811
0.130713
0.130597
0.130471
0.130366
0.13036
0.131635
0.153633
0.467705
1.26505
2.90801
6.68128
7.5018
7.73288
7.66909
0.134745
0.134655
0.134565
0.134476
0.134387
0.134306
0.134245
0.134241
0.134355
0.0936801
0.0730638
0.0745146
0.0843698
0.100568
0.133925
0.133871
0.133783
0.133698
0.133622
0.133571
0.133604
0.133912
0.132283
0.386429
1.12835
2.65643
6.06152
7.64368
7.84808
7.7519
0.134745
0.134655
0.134565
0.134475
0.134386
0.1343
0.134226
0.134184
0.134208
0.132848
0.107429
0.109396
0.123698
0.134573
0.134553
0.134469
0.134366
0.13427
0.134189
0.134137
0.134163
0.126582
0.114316
0.307326
0.978477
2.3772
5.35882
7.65662
7.88774
7.78875
0.134745
0.134655
0.134565
0.134475
0.134384
0.134296
0.134214
0.134149
0.134118
0.13414
0.134201
0.134244
0.134251
0.134235
0.134189
0.134113
0.134025
0.133944
0.13388
0.133851
0.133897
0.121989
0.102846
0.233904
0.814397
2.06481
4.61481
7.57302
7.87765
7.79885
0.134745
0.134655
0.134565
0.134474
0.134383
0.134293
0.134206
0.134128
0.134069
0.134034
0.134015
0.13398
0.133923
0.133861
0.133795
0.133717
0.133636
0.133563
0.133512
0.133501
0.133566
0.118563
0.0947099
0.169269
0.647875
1.74062
3.86169
6.34823
7.48925
7.79323
0.134745
0.134655
0.134565
0.134474
0.134383
0.134292
0.134202
0.134118
0.134045
0.133983
0.133924
0.133847
0.133753
0.133663
0.13358
0.133497
0.133416
0.133346
0.133301
0.1333
0.133378
0.116075
0.090082
0.121047
0.481017
1.39385
3.09309
5.08348
6.33269
7.42878
0.134745
0.134655
0.134565
0.134475
0.134383
0.134292
0.134201
0.134114
0.134035
0.133963
0.133889
0.133796
0.133687
0.133585
0.133495
0.133411
0.13333
0.133262
0.133219
0.133224
0.133306
0.114219
0.0874587
0.0915331
0.325643
1.07145
2.49928
4.20611
5.57803
7.02212
0.134745
0.134656
0.134567
0.134479
0.134392
0.134307
0.134227
0.134153
0.134089
0.134033
0.13398
0.13392
0.133847
0.133767
0.133685
0.133603
0.133527
0.133464
0.133422
0.133416
0.133465
0.13359
0.121683
0.101572
0.0870673
0.138814
0.512261
1.09703
1.4597
2.80268
0.134745
0.134656
0.134567
0.134479
0.134392
0.134308
0.134228
0.134156
0.134095
0.134045
0.133999
0.133946
0.133879
0.133801
0.13372
0.13364
0.133566
0.133505
0.133465
0.13346
0.133509
0.133636
0.122856
0.100973
0.0988175
0.289879
0.848442
1.61149
2.5458
4.70464
0.134745
0.134656
0.134567
0.134479
0.134392
0.134309
0.134231
0.134163
0.13411
0.134073
0.134046
0.134011
0.133957
0.133888
0.133812
0.133736
0.133667
0.13361
0.133574
0.133572
0.133626
0.133757
0.123212
0.101989
0.149678
0.530695
1.1612
2.30645
4.50074
8.40125
0.134745
0.134656
0.134567
0.134479
0.134393
0.13431
0.134235
0.134175
0.134137
0.134128
0.13414
0.134144
0.134118
0.134066
0.134001
0.133935
0.133874
0.133823
0.133794
0.133799
0.133856
0.133997
0.12254
0.11258
0.267227
0.793753
1.59772
3.51118
7.31327
8.76795
0.134745
0.134656
0.134567
0.134479
0.134394
0.134313
0.134243
0.134195
0.134186
0.134231
0.134315
0.134385
0.134408
0.134386
0.134337
0.134278
0.13422
0.13417
0.134138