/*--------------------------------*- C++ -*----------------------------------*\
| =========                 |                                                 |
| \\      /  F ield         | OpenFOAM: The Open Source CFD Toolbox           |
|  \\    /   O peration     | Version:  2512                                  |
|   \\  /    A nd           | Website:  www.openfoam.com                      |
|    \\/     M anipulation  |                                                 |
\*---------------------------------------------------------------------------*/
FoamFile
{
    version     2.0;
    format      ascii;
    arch        "LSB;label=32;scalar=64";
    class       volScalarField;
    location    "240";
    object      omega;
}
// * * * * * * * * * * * * * * * * * * * * * * * * * * * * * * * * * * * * * //

dimensions      [0 0 -1 0 0 0 0];

internalField   nonuniform List<scalar> 
90398
(
16.0849
15.8155
15.557
15.3101
15.074
14.8498
14.6411
14.4239
14.2297
14.0404
13.8618
13.6973
13.5341
13.3723
13.2205
13.0734
12.9316
12.7962
12.6663
12.5428
12.4266
12.3181
12.2181
12.1272
12.0451
11.973
11.9172
12.1447
15.1955
28.639
16.0849
15.8157
15.5575
15.3109
15.0752
14.8509
14.6411
14.4247
14.2305
14.0404
13.8644
13.7007
13.5378
13.3762
13.2244
13.0771
12.9349
12.7993
12.6694
12.5457
12.4292
12.3206
12.2206
12.1296
12.0476
11.9772
11.9792
13.7802
24.0507
45.2199
16.0849
15.8159
15.5581
15.3119
15.076
14.8513
14.6386
14.427
14.2339
14.0443
13.8692
13.707
13.5454
13.3839
13.2322
13.0844
12.942
12.8061
12.6754
12.5514
12.4348
12.3261
12.2261
12.1355
12.0545
11.9937
12.3287
18.5198
37.1132
61.7573
16.085
15.816
15.5589
15.3124
15.0762
14.8511
14.6395
14.4336
14.2371
14.0488
13.8765
13.7155
13.5563
13.3967
13.2453
13.0965
12.9534
12.817
12.6859
12.5617
12.4454
12.3375
12.2395
12.1529
12.0796
12.066
13.5883
26.0573
49.8087
74.0627
16.085
15.816
15.5595
15.3126
15.0756
14.8488
14.6383
14.4361
14.24
14.0551
13.8877
13.7033
13.549
13.4178
13.2666
13.1162
12.9723
12.8358
12.7051
12.5838
12.4748
12.3819
12.3106
12.267
12.2595
12.4254
16.1334
33.7109
59.3869
82.6117
16.0851
15.8162
15.5596
15.3136
15.077
14.8454
14.6226
14.4344
14.2438
14.0425
13.8853
13.742
13.5916
13.4434
13.2942
13.1425
13.0011
12.8765
12.7754
12.7148
12.7098
12.7745
12.9197
13.1493
13.4613
14.0363
19.1422
38.8518
64.1028
86.9486
16.0851
15.8162
15.559
15.3129
15.0777
14.8459
14.6214
14.4326
14.244
14.0802
13.9259
13.7754
13.647
13.4946
13.3635
13.2454
13.2451
13.3783
13.6829
14.1667
14.8014
15.5476
16.3606
17.1906
17.9897
18.8382
22.834
40.2773
65.3309
88.8123
16.0851
15.8158
15.5559
15.3054
15.0726
14.8501
14.6251
14.4267
14.25
28.1339
27.4527
26.8799
26.632
26.658
16.1993
17.15
18.5086
19.8846
21.2562
22.5375
23.665
24.6054
25.3289
25.8111
26.0555
26.2048
28.2299
40.9142
67.1057
91.1065
16.0851
15.8158
15.5551
15.3008
15.0643
14.8476
14.6335
14.435
28.4992
27.8158
27.3794
29.1695
43.6344
52.7684
44.4582
43.5707
42.2236
40.7297
39.1416
37.505
35.8724
34.2835
32.7588
31.3208
30.0548
29.2994
31.9855
45.7727
70.2493
93.5952
16.0851
15.8161
15.5579
15.3058
15.0655
14.8477
14.6415
14.443
28.5088
55.8681
59.3905
119.224
202.157
204.566
52.8898
47.7815
43.6186
40.2217
37.3839
34.9562
32.8462
30.994
29.3532
27.8928
26.647
26.3774
31.7789
49.9392
75.9963
99.135
16.085
15.816
15.5578
15.3057
15.0654
14.8476
14.6415
14.4434
28.5181
56.0276
285.829
276.16
220.84
44.121
40.2065
36.9161
34.125
31.7579
29.7299
27.9687
26.4279
25.0684
23.8625
22.9362
24.3924
36.5398
60.7631
87.46
108.874
16.085
15.8156
15.5549
15.3005
15.064
14.8473
14.6334
14.4351
28.507
27.9454
71.7904
258.998
239.806
196.232
30.7591
27.9272
25.8431
24.101
22.6497
21.4284
20.3884
19.4955
18.7219
18.0673
18.134
25.3533
47.5756
75.432
100.669
119.294
16.0851
15.8156
15.5556
15.305
15.0721
14.8495
14.6248
14.4248
14.2508
28.1449
30.183
48.2883
51.2234
45.1265
17.3311
16.5488
16.0002
15.5165
15.0945
14.7262
14.4045
14.1246
13.8846
13.7523
15.8729
32.2802
60.0995
87.5387
110.513
126.802
16.085
15.816
15.5587
15.3124
15.0771
14.8452
14.6208
14.4326
14.2426
14.0886
14.0741
14.1166
13.9786
13.769
13.604
13.451
13.3109
13.1815
13.0597
12.9468
12.8436
12.7519
12.6749
12.6968
15.2203
33.5968
64.029
92.1273
114.857
130.49
16.0851
15.816
15.5593
15.3131
15.0763
14.8446
14.6218
14.4339
14.2439
14.0416
13.8976
13.7664
13.618
13.4722
13.3332
13.1982
13.0691
12.9487
12.8334
12.7255
12.6259
12.5363
12.4602
12.4608
14.4461
31.2979
63.8501
93.1851
116.473
132.114
16.085
15.8159
15.5592
15.3122
15.0749
14.848
14.6373
14.4351
14.2395
14.0556
13.8885
13.7067
13.5556
13.4284
13.285
13.1449
13.01
12.8827
12.7602
12.6445
12.5371
12.4397
12.3557
12.3259
13.6472
27.9179
61.232
91.9736
116.23
132.261
16.0849
15.8159
15.5586
15.312
15.0756
14.8502
14.6384
14.4321
14.2355
14.0475
13.8764
13.7166
13.5584
13.4
13.2515
13.1069
12.9669
12.8337
12.7055
12.5842
12.4714
12.3691
12.2804
12.2304
13.0474
24.4767
56.9302
88.9464
114.422
131.148
16.0849
15.8158
15.5579
15.3116
15.0754
14.8505
14.6373
14.425
14.2313
14.0413
13.8661
13.704
13.5423
13.3806
13.2296
13.0824
12.9399
12.8033
12.6718
12.5472
12.4312
12.3258
12.2338
12.1698
12.6034
21.0106
51.381
84.3512
111.179
128.854
16.0849
15.8157
15.5574
15.3106
15.0747
14.8499
14.6395
14.4223
14.2271
14.0361
13.8594
13.6953
13.5318
13.3692
13.2167
13.0682
12.9237
12.7849
12.6511
12.524
12.4054
12.2974
12.2027
12.1296
12.3168
17.9203
44.6289
78.3879
106.667
125.506
16.0849
15.8156
15.557
15.31
15.0735
14.8488
14.6391
14.4208
14.2254
14.0351
13.8557
13.6907
13.5268
13.3637
13.2107
13.0617
12.9166
12.7765
12.6409
12.5116
12.3913
12.2816
12.185
12.1066
12.1616
15.6548
38.452
72.3775
101.912
121.785
1.93935
2.08074
2.2069
2.32073
2.42423
2.51875
2.60834
2.6906
2.76807
2.83977
2.90536
2.9623
3.01126
3.05224
3.08897
3.12237
3.15311
3.18266
3.21037
3.23682
3.26248
3.28746
3.31232
3.33934
3.36897
3.40039
3.4395
3.49904
3.9429
5.54662
1.93936
2.08075
2.20699
2.32088
2.42428
2.51928
2.61013
2.69351
2.77253
2.84568
2.913
2.97107
3.02014
3.06081
3.09754
3.13111
3.1621
3.1921
3.22045
3.24792
3.2749
3.30143
3.32797
3.35674
3.38807
3.42168
3.46925
3.72314
5.09197
8.2671
1.93937
2.08086
2.20719
2.32129
2.42466
2.52065
2.61369
2.69958
2.78199
2.85938
2.93071
2.99173
3.04129
3.08214
3.11873
3.15255
3.18512
3.21639
3.24715
3.27779
3.30852
3.33921
3.37022
3.40352
3.43922
3.47739
3.57415
4.33045
7.07251
11.3085
1.9394
2.081
2.20749
2.32193
2.42565
2.52278
2.61882
2.70891
2.79699
2.88355
2.96254
3.02626
3.07929
3.121
3.15781
3.19232
3.2276
3.26216
3.29755
3.33424
3.37236
3.41175
3.45288
3.49796
3.54708
3.60446
3.85353
5.39912
9.32991
14.0713
1.93942
2.08115
2.20792
2.3228
2.42674
2.52422
2.62455
2.72146
2.82082
2.92524
3.01817
3.08973
3.14484
3.18811
3.22594
3.26218
3.30356
3.34592
3.39198
3.44338
3.50138
3.56739
3.64428
3.73738
3.84965
3.99692
4.54848
6.89127
11.4432
16.475
1.93947
2.08132
2.20831
2.32376
2.42871
2.52276
2.62716
2.73834
2.86017
2.99266
3.10036
3.17855
3.24155
3.28866
3.32954
3.37199
3.43294
3.50843
3.60522
3.73145
3.8955
4.10605
4.37556
4.714
5.12173
5.58085
6.49337
9.2332
13.8195
18.8188
1.93938
2.08132
2.20779
2.32336
2.43157
2.52643
2.62788
2.76111
2.91298
3.08299
3.22076
3.32031
3.41969
3.49646
3.59723
3.73699
4.00935
4.37183
4.85501
5.48201
6.23957
7.12392
8.13365
9.24905
10.4195
11.4408
12.3472
14.2694
17.8373
22.0916
1.93923
2.08069
2.20463
2.3175
2.4339
2.53765
2.64033
2.80098
3.00181
3.30257
3.82293
4.1663
4.63822
5.37613
10.4676
12.3824
14.2608
16.0441
17.742
19.313
20.7564
22.1247
23.4046
24.5472
25.4749
25.9874
25.6328
24.6235
24.9591
26.9363
1.93921
2.08056
2.20445
2.31534
2.43156
2.54889
2.66567
2.83927
3.13389
4.15069
5.69697
7.46486
16.7848
42.0136
91.5174
79.4441
70.0346
63.0968
57.9409
53.9376
50.6309
47.7482
45.1151
42.5988
40.042
37.4515
34.5993
31.3014
29.5293
30.007
1.93923
2.0811
2.20642
2.31691
2.42712
2.55082
2.68036
2.87153
3.25603
5.297
40.4603
301.881
366.017
431.155
148.182
107.641
85.1335
70.688
60.5114
52.8757
46.9661
42.3084
38.5779
35.5311
32.9867
30.8752
28.8416
27.3199
27.6274
29.605
1.93924
2.08114
2.20651
2.31699
2.42746
2.55171
2.68304
2.88105
3.32115
6.97539
622.754
136.849
100.643
80.1205
66.9428
57.7809
50.9978
45.7209
41.4528
37.8661
34.71
31.7812
28.7838
25.5993
24.3634
26.0255
29.2631
1.93924
2.08067
2.20456
2.31545
2.43233
2.55119
2.67241
2.86059
3.22593
5.60782
36.7343
215.23
164.968
107.553
47.7872
43.8533
40.3025
37.0934
34.2612
31.6839
29.2937
27.0063
24.8273
22.6826
20.4667
18.0785
17.434
19.8916
24.3239
29.0949
1.93928
2.08086
2.2048
2.31814
2.43547
2.54137
2.64969
2.82026
3.09627
3.7661
7.76685
16.7871
20.0309
18.7069
9.7559
9.1406
8.68977
8.26355
7.8747
7.52544
7.2087
6.91496
6.63711
6.37274
6.35287
7.95092
12.0963
17.765
23.868
29.4316
1.93945
2.08155
2.20833
2.32448
2.4338
2.53103
2.63838
2.78761
2.97614
3.29731
3.88551
4.38052
4.56659
4.55351
4.48637
4.41261
4.34464
4.27866
4.2149
4.15362
4.09397
4.03572
3.9777
3.93048
4.15613
6.2592
11.201
17.4982
24.0193
29.84
1.93955
2.08159
2.20895
2.32505
2.43117
2.52757
2.637
2.75985
2.90833
3.09725
3.34563
3.53723
3.63971
3.66253
3.65296
3.63937
3.62539
3.60986
3.59298
3.57518
3.5563
3.53608
3.51544
3.50159
3.69606
5.54021
10.7535
17.2871
24.0183
30.0036
1.9395
2.08146
2.20862
2.32418
2.4293
2.52893
2.63339
2.73859
2.85481
2.99375
3.13768
3.25793
3.33169
3.36003
3.37268
3.38046
3.38579
3.38886
3.38979
3.38874
3.38568
3.38037
3.37475
3.37256
3.50969
4.99764
10.1627
16.7915
23.6889
29.842
1.93949
2.08133
2.20824
2.32336
2.4282
2.52725
2.62663
2.72267
2.82138
2.9263
3.03352
3.11986
3.17971
3.21087
3.23212
3.24938
3.26391
3.27625
3.28598
3.29312
3.2975
3.29901
3.29937
3.30125
3.39466
4.54785
9.38756
15.9928
23.0188
29.351
1.93947
2.08121
2.20797
2.32274
2.42718
2.52487
2.62066
2.71099
2.80044
2.88843
2.97348
3.04521
3.09733
3.131
3.15747
3.18024
3.19973
3.21714
3.23144
3.24278
3.25102
3.25608
3.2598
3.2636
3.31872
4.13873
8.34907
14.8985
22.0398
28.562
1.93946
2.08111
2.20779
2.32235
2.42677
2.52334
2.61654
2.70344
2.78755
2.86753
2.94264
3.00608
3.05513
3.09004
3.11912
3.14454
3.16624
3.18641
3.20308
3.21658
3.22679
3.23366
3.23906
3.24349
3.27201
3.80959
7.21094
13.6379
20.8554
27.5659
1.93945
2.0811
2.2077
2.3222
2.42669
2.52269
2.61444
2.69976
2.7814
2.85829
2.92919
2.9892
3.03678
3.07198
3.10217
3.12865
3.15149
3.17275
3.19039
3.20478
3.21579
3.22341
3.22955
3.23424
3.24766
3.5878
6.23886
12.4726
19.7226
26.5854
1.7777
1.77821
1.78101
1.78567
1.79197
1.79965
1.80869
1.81901
1.83057
1.84302
1.85585
1.86776
1.87913
1.88934
1.89908
1.90866
1.91809
1.92851
1.9386
1.94904
1.96018
1.9723
1.98594
2.0005
2.01678
2.03544
2.07815
2.34327
2.94583
4.01659
1.7777
1.77822
1.78102
1.78568
1.79203
1.79977
1.80894
1.81952
1.83149
1.84452
1.85801
1.87015
1.88219
1.89255
1.90243
1.91218
1.92183
1.93245
1.94286
1.95375
1.96546
1.9782
1.99255
2.00798
2.02528
2.04875
2.17953
2.823
3.76837
5.38549
1.7777
1.77822
1.78103
1.7857
1.79216
1.80005
1.80952
1.82066
1.83359
1.84803
1.86309
1.87642
1.88954
1.90031
1.91056
1.92074
1.93085
1.94198
1.9534
1.96561
1.97886
1.99333
2.00958
2.02709
2.04712
2.09371
2.40615
3.21183
4.7875
6.92079
1.7777
1.77823
1.78106
1.78576
1.79234
1.80046
1.81042
1.82254
1.83728
1.85439
1.87267
1.88804
1.90357
1.91544
1.92649
1.93748
1.94887
1.96149
1.97502
1.98987
2.00631
2.02458
2.0455
2.06872
2.09755
2.21221
2.78414
3.90134
6.03088
8.3254
1.7777
1.77824
1.7811
1.78584
1.79211
1.8011
1.81177
1.82547
1.84345
1.86506
1.88837
1.90683
1.92733
1.94159
1.95454
1.96736
1.98158
1.99794
2.01673
2.03881
2.06491
2.09615
2.13441
2.18114
2.24927
2.50796
3.30089
4.91349
7.38304
9.70375
1.7777
1.77825
1.78112
1.78594
1.79203
1.80182
1.81345
1.82973
1.85275
1.88353
1.92007
1.94664
1.9741
1.99372
2.0119
2.03106
2.05559
2.08729
2.1295
2.18634
2.26148
2.3586
2.48357
2.64217
2.8572
3.37275
4.51255
6.51757
8.98679
11.2709
1.7777
1.77826
1.78103
1.78585
1.79254
1.80215
1.81575
1.83612
1.86841
1.92142
1.99813
2.06299
2.1224
2.15841
2.23204
2.31892
2.46129
2.64281
2.87652
3.16784
3.51377
3.92033
4.38779
4.91844
5.4781
6.20668
7.56405
9.44423
11.4836
13.41
1.7777
1.77822
1.78104
1.78585
1.7924
1.80273
1.81876
1.84402
1.89766
2.03164
2.11174
2.36668
2.76798
3.26281
7.63772
8.68481
9.41976
10.0042
10.6029
11.2866
12.0185
12.7829
13.579
14.3675
14.7686
14.7283
14.7319
14.8412
15.3481
16.2278
1.7777
1.77821
1.78096
1.78617
1.79282
1.80365
1.82139
1.85365
1.90944
2.18811
2.96078
6.1022
26.6287
46.9742
78.766
68.8181
61.4632
55.8029
51.31
47.6149
44.4643
41.7015
39.1036
36.572
33.6963
30.1052
25.5448
21.3843
19.0984
18.5681
1.77771
1.77825
1.7809
1.78577
1.79286
1.80421
1.823
1.86408
1.95086
2.48472
11.0451
739.586
475.172
394.961
147.636
110.624
89.104
75.2085
65.4809
58.3206
52.7574
48.2568
44.4138
40.9399
37.2497
32.9016
26.9283
21.772
19.2732
18.8833
1.77771
1.77826
1.78091
1.78579
1.79291
1.80435
1.82356
1.86662
1.97522
2.85999
337.707
253.201
145.125
107.901
86.2628
72.1824
62.1955
54.6411
48.5939
43.5834
39.2372
35.2035
30.7141
25.4395
20.3322
17.5819
17.1733
18.0315
1.77771
1.77822
1.78098
1.78622
1.79297
1.80408
1.82285
1.859
1.93806
2.61564
8.4233
400.812
608.307
304.151
60.9615
51.7109
44.7797
39.3217
34.9484
31.3138
28.1715
25.3619
22.7806
20.1207
16.9853
13.8235
12.6114
13.2964
15.0899
17.1497
1.77771
1.77823
1.78107
1.78594
1.79263
1.80334
1.8206
1.84908
1.92758
2.19936
2.80947
4.94923
6.01728
6.16796
5.33951
5.80106
6.02999
6.10544
6.08361
5.99314
5.84611
5.6509
5.38066
5.0969
5.27443
6.40599
8.4254
11.0712
14.0199
16.73
1.77771
1.77827
1.78108
1.78597
1.79282
1.80284
1.81761
1.84084
1.88485
1.99156
2.2017
2.38374
2.4718
2.48565
2.49168
2.50729
2.52223
2.53363
2.54051
2.54288
2.54026
2.53242
2.51939
2.57413
3.10767
4.55181
7.20441
10.3295
13.6551
16.6267
1.77771
1.77827
1.78118
1.78608
1.79234
1.80251
1.81511
1.83396
1.86291
1.91251
1.9952
2.05839
2.09951
2.11389
2.12036
2.12464
2.12768
2.12981
2.13092
2.13127
2.13119
2.13102
2.13246
2.19323
2.67186
3.95767
6.69106
10.0069
13.4871
16.5888
1.77771
1.77827
1.78116
1.78599
1.79241
1.80175
1.81317
1.82864
1.85076
1.88014
1.91839
1.95001
1.97684
1.98979
1.99914
2.00596
2.01159
2.01674
2.02128
2.02536
2.02928
2.03371
2.03904
2.09055
2.53642
3.68637
6.30459
9.71743
13.2872
16.4823
1.77771
1.77826
1.78113
1.7859
1.79265
1.80105
1.8116
1.82492
1.84215
1.86399
1.88871
1.91046
1.92919
1.94059
1.94938
1.95689
1.96356
1.97012
1.97621
1.98192
1.98748
1.99354
2.00023
2.03967
2.42898
3.47772
5.90316
9.34911
12.9789
16.2563
1.77771
1.77825
1.7811
1.78585
1.79245
1.80059
1.81052
1.82252
1.83702
1.85411
1.87287
1.8893
1.90366
1.91366
1.92234
1.93035
1.93762
1.94499
1.95192
1.95855
1.9651
1.97223
1.97958
2.008
2.3098
3.26711
5.44248
8.86903
12.5485
15.9066
1.7777
1.77824
1.78109
1.78583
1.79231
1.80028
1.80984
1.82108
1.83414
1.84883
1.86439
1.87802
1.89028
1.89964
1.90827
1.91653
1.92426
1.93191
1.93931
1.94646
1.95359
1.96133
1.96897
1.98894
2.19713
3.12501
4.96629
8.27784
12.0371
15.471
1.77771
1.77825
1.78108
1.78583
1.79225
1.80015
1.80953
1.82041
1.83284
1.84652
1.86072
1.8734
1.88445
1.89347
1.90211
1.9105
1.91841
1.92626
1.9339
1.94132
1.94872
1.95674
1.96446
1.97915
2.11677
3.03064
4.56578
7.68965
11.5409
15.0301
1.77422
1.76858
1.76316
1.75801
1.75317
1.74872
1.74469
1.74121
1.73835
1.7361
1.73424
1.73235
1.73025
1.72808
1.72602
1.72416
1.72259
1.72143
1.72086
1.72096
1.72205
1.72447
1.7284
1.73386
1.74169
1.76596
2.1526
3.30611
4.43077
5.0426
1.77422
1.76858
1.76316
1.75801
1.75318
1.74873
1.74474
1.74133
1.73861
1.7366
1.73503
1.73326
1.73152
1.72943
1.72746
1.72568
1.72419
1.72312
1.72267
1.72292
1.72419
1.7268
1.73097
1.73674
1.74729
1.88898
2.78243
4.12483
4.9155
5.76869
1.77422
1.76858
1.76317
1.75802
1.7532
1.74878
1.74487
1.74163
1.73926
1.73783
1.73704
1.73575
1.73478
1.73297
1.7312
1.72963
1.72838
1.72772
1.72759
1.72826
1.73003
1.73319
1.73797
1.74471
1.7693
2.18349
3.44495
4.60767
5.4767
6.64707
1.77422
1.76858
1.76317
1.75803
1.75323
1.74886
1.74508
1.74216
1.74047
1.74027
1.74112
1.7415
1.74142
1.74028
1.73901
1.73789
1.73708
1.73705
1.73771
1.73937
1.74233
1.74689
1.75339
1.76346
1.8564
2.63742
4.03417
4.90607
6.20421
7.50631
1.77422
1.76858
1.76317
1.75804
1.75326
1.74898
1.74542
1.74305
1.74265
1.74482
1.74883
1.75171
1.75465
1.7551
1.755
1.75486
1.75509
1.75644
1.75905
1.76338
1.76981
1.77889
1.79153
1.8135
2.0586
3.14145
4.46797
5.51692
7.06384
8.42775
1.77422
1.76859
1.76319
1.75806
1.7533
1.74915
1.74593
1.74453
1.74644
1.75388
1.76645
1.77725
1.78483
1.7891
1.79208
1.79493
1.79882
1.80539
1.8154
1.83029
1.85141
1.88054
1.92046
1.98469
2.39391
3.62807
4.85415
6.43189
8.10386
9.51212
1.77422
1.76858
1.76319
1.75808
1.75335
1.74938
1.74667
1.7469
1.75366
1.77538
1.8163
1.85674
1.88163
1.89413
1.91084
1.93426
1.96536
2.0074
2.06539
2.14224
2.24041
2.3638
2.51518
2.70086
3.11974
4.2767
6.07051
7.97485
9.58461
10.8854
1.77422
1.76858
1.76318
1.7581
1.75341
1.74963
1.74765
1.75023
1.76835
1.82993
1.87933
2.05959
2.20983
2.31261
2.82063
3.0886
3.37086
3.66069
3.95321
4.25861
4.60949
4.99835
5.41412
5.78806
6.26533
7.47582
9.12537
10.4638
11.573
12.5029
1.77422
1.76859
1.7632
1.75812
1.75351
1.7499
1.74872
1.75496
1.79273
1.96924
2.19875
3.71711
6.4707
8.17711
16.2347
16.6937
17.0923
17.2655
17.2687
17.071
16.6753
16.2873
16.0398
15.6262
14.9391
14.3555
13.7142
13.3686
13.4733
13.8807
1.77423
1.7686
1.76322
1.75812
1.75354
1.74999
1.74967
1.75992
1.82514
1.9863
3.42782
167.315
459.63
167.111
80.1596
68.2082
59.4293
52.7954
47.6523
43.5992
40.2087
37.1418
34.2807
31.1189
26.1781
20.6558
16.3826
14.4643
14.063
14.3716
1.77423
1.7686
1.76322
1.75813
1.75355
1.75003
1.74982
1.76106
1.83197
2.06845
4.72083
432.63
460.841
328.12
67.3006
58.9557
52.3071
46.9376
42.5295
38.7097
35.2358
31.9888
28.8028
25.0408
20.3334
15.7082
13.3549
12.8127
13.2727
14.0872
1.77422
1.76859
1.7632
1.75813
1.75354
1.75001
1.74913
1.757
1.80556
2.06363
2.92426
82.7104
237.707
105.345
12.3319
12.2685
12.0365
11.6744
11.2595
10.7962
10.2859
9.73195
9.02722
8.20447
8.04517
8.64338
9.53145
10.7497
12.2299
13.6196
1.77422
1.76859
1.76319
1.75811
1.75345
1.74976
1.74815
1.75214
1.77854
1.8857
2.08212
2.92337
3.34827
3.40271
2.8677
2.93471
2.98827
3.01592
3.02517
3.02268
3.00827
2.98012
2.94727
3.17288
4.19779
5.75801
7.5939
9.55086
11.5824
13.3255
1.77422
1.76858
1.7632
1.75809
1.75339
1.7495
1.74711
1.74837
1.75948
1.79966
1.88222
1.96076
2.00184
2.01412
2.0175
2.02135
2.02389
2.02466
2.02323
2.0203
2.0163
2.01196
2.03129
2.52319
3.78904
4.95266
6.8849
9.04581
11.3004
13.2153
1.77422
1.76859
1.76319
1.75808
1.75333
1.74926
1.74625
1.74558
1.7495
1.76406
1.79229
1.81681
1.83134
1.83654
1.83776
1.83691
1.83507
1.83312
1.83079
1.82832
1.82618
1.82532
1.84744
2.34413
3.67786
4.71083
6.58237
8.82244
11.1755
13.1811
1.77422
1.76858
1.76318
1.75806
1.75329
1.74906
1.74563
1.7437
1.74451
1.74936
1.75897
1.76674
1.77283
1.7745
1.7746
1.7733
1.7715
1.76996
1.76849
1.76729
1.7668
1.76784
1.78598
2.21948
3.55184
4.64226
6.37591
8.65939
11.0697
13.1363
1.77422
1.76858
1.76318
1.75804
1.75326
1.74892
1.74522
1.74254
1.74148
1.74272
1.74582
1.74852
1.75006
1.74984
1.74898
1.74757
1.74598
1.74463
1.74357
1.7429
1.74305
1.74475
1.75767
2.09576
3.37561
4.63556
6.17392
8.46315
10.915
13.0342
1.77422
1.76858
1.76317
1.75803
1.75322
1.74882
1.74495
1.74184
1.73981
1.73909
1.73938
1.73905
1.73876
1.73737
1.73593
1.73441
1.73292
1.73164
1.73076
1.73039
1.73094
1.73308
1.74227
1.97939
3.15586
4.60919
5.93728
8.17749
10.6833
12.8594
1.77422
1.76858
1.76317
1.75802
1.75319
1.74876
1.7448
1.74146
1.73893
1.73728
1.73622
1.73478
1.73314
1.73114
1.72939
1.72778
1.72631
1.72508
1.72431
1.72412
1.72494
1.72733
1.73436
1.88175
2.89452
4.49944
5.6574
7.78916
10.3681
12.6229
1.77422
1.76859
1.76318
1.75803
1.75319
1.74875
1.74474
1.7413
1.73856
1.73655
1.73496
1.73314
1.7309
1.72862
1.72674
1.72511
1.72366
1.72248
1.72178
1.72169
1.72265
1.72517
1.73112
1.80878
2.62618
4.2965
5.3866
7.39726
10.0196
12.3547
1.77414
1.76828
1.76248
1.75672
1.75104
1.74548
1.74006
1.73487
1.72996
1.72534
1.72087
1.71632
1.71158
1.70677
1.702
1.69734
1.69287
1.68869
1.68499
1.68192
1.67979
1.67897
1.6798
1.68265
1.69024
1.81072
2.61488
4.03881
5.07635
5.78562
1.77414
1.76828
1.76247
1.75672
1.75104
1.74548
1.74009
1.73493
1.7301
1.72561
1.72131
1.71692
1.71229
1.70754
1.7028
1.69817
1.69374
1.68959
1.68592
1.68288
1.68079
1.68001
1.68088
1.68416
1.70862
2.13439
3.45985
4.84789
5.60366
6.33825
1.77414
1.76828
1.76248
1.75672
1.75105
1.74551
1.74015
1.73508
1.73044
1.72628
1.72244
1.71847
1.71414
1.70956
1.70493
1.7004
1.69608
1.69203
1.68848
1.68559
1.68366
1.68304
1.68413
1.68964
1.80907
2.65264
4.16997
5.23195
6.10031
6.95
1.77414
1.76828
1.76248
1.75673
1.75106
1.74554
1.74025
1.73536
1.73109
1.72763
1.72477
1.72174
1.71809
1.71393
1.70959
1.70529
1.70119
1.69741
1.69416
1.69164
1.69013
1.69
1.69189
1.70706
2.02717
3.25266
4.71281
5.5824
6.65641
7.5569
1.77414
1.76828
1.76248
1.75673
1.75108
1.7456
1.74043
1.73584
1.73229
1.73024
1.7295
1.72851
1.72635
1.72323
1.71959
1.71583
1.7122
1.70908
1.70658
1.70502
1.70471
1.70611
1.71065
1.76524
2.36625
3.82422
5.08279
6.09738
7.26907
8.2366
1.77414
1.76828
1.76248
1.75674
1.75111
1.74569
1.74069
1.73663
1.73444
1.73542
1.73984
1.74382
1.74504
1.74444
1.74268
1.74029
1.73795
1.73651
1.7362
1.73765
1.74143
1.74842
1.76187
1.89853
2.78015
4.345
5.47003
6.74085
8.00471
9.02916
1.77414
1.76828
1.76248
1.75675
1.75114
1.7458
1.74109
1.73793
1.73831
1.74697
1.76569
1.78161
1.792
1.79701
1.79939
1.8017
1.80504
1.81126
1.82128
1.83655
1.8583
1.88785
1.92991
2.15785
3.23263
4.8395
6.13409
7.63318
8.94647
9.96384
1.77415
1.76829
1.76248
1.75676
1.75118
1.74594
1.74162
1.73979
1.74573
1.7716
1.83873
1.91062
1.95107
1.97221
1.99361
2.02891
2.07001
2.11725
2.17775
2.25454
2.34682
2.4518
2.56413
2.78364
3.71942
5.38826
7.31102
8.83977
10.0618
10.9772
1.77415
1.76831
1.7625
1.75678
1.75122
1.74609
1.74219
1.74223
1.75705
1.82183
1.901
2.25208
2.50017
2.64523
3.01273
3.30416
3.56475
3.79079
3.99301
4.19517
4.38956
4.58741
4.7412
4.97623
5.86049
7.48702
9.01171
10.1314
11.0861
11.8464
1.77415
1.76831
1.76253
1.75682
1.75128
1.74619
1.74263
1.74455
1.76907
1.88378
2.12837
3.83945
5.11787
6.24188
9.86657
10.6237
11.0003
11.1692
11.2041
11.1203
10.9436
10.6844
10.2342
9.47187
9.16207
9.49836
10.0761
10.7796
11.5802
12.3072
1.77415
1.76831
1.76253
1.75682
1.75128
1.74621
1.74271
1.74497
1.77211
1.90127
2.26631
4.8281
7.06301
11.5609
7.71117
8.52982
8.99284
9.23024
9.30149
9.24705
9.07291
8.8095
8.26521
7.67694
7.8206
8.56045
9.43336
10.4048
11.4511
12.3575
1.77415
1.76831
1.7625
1.75679
1.75123
1.74613
1.74238
1.74314
1.76196
1.85183
2.04611
3.04186
3.43772
3.52443
2.97383
3.12143
3.25374
3.35511
3.42675
3.46718
3.47177
3.42019
3.37307
3.76919
5.07689
6.72151
8.24683
9.68582
11.0934
12.2386
1.77415
1.76829
1.76248
1.75676
1.75119
1.746
1.74184
1.74067
1.7498
1.78992
1.88872
1.99292
2.04625
2.06832
2.07572
2.08693
2.09965
2.11032
2.11759
2.12117
2.12039
2.11468
2.21312
3.02742
4.51856
5.84937
7.51329
9.18188
10.8279
12.147
1.77414
1.76828
1.76248
1.75676
1.75115
1.74585
1.74126
1.73859
1.74077
1.75634
1.78957
1.81789
1.83658
1.84467
1.84545
1.84408
1.84158
1.8387
1.83499
1.83073
1.82647
1.82533
1.95376
2.83172
4.39584
5.56026
7.19539
8.94086
10.7083
12.1293
1.77414
1.76828
1.76248
1.75675
1.75112
1.74571
1.7408
1.73704
1.73579
1.73965
1.75013
1.76005
1.76552
1.76726
1.76602
1.76273
1.75864
1.75464
1.75047
1.7464
1.743
1.74306
1.8564
2.70701
4.31703
5.48385
7.06176
8.83908
10.6699
12.1511
1.77414
1.76829
1.76248
1.75674
1.75108
1.74561
1.74047
1.73603
1.73297
1.73217
1.73386
1.73539
1.73526
1.73373
1.73094
1.72715
1.72304
1.7191
1.71538
1.71204
1.70968
1.7105
1.79773
2.57237
4.20815
5.47287
6.9641
8.76913
10.6429
12.1669
1.77414
1.76829
1.76248
1.75673
1.75106
1.74553
1.74025
1.73541
1.73136
1.72846
1.7266
1.72467
1.72204
1.7189
1.71534
1.71141
1.70739
1.70354
1.70008
1.69717
1.69537
1.69636
1.75327
2.41134
4.04112
5.46792
6.84737
8.66789
10.5795
12.1438
1.77414
1.76829
1.76248
1.75672
1.75104
1.74549
1.74011
1.73505
1.73048
1.72653
1.72307
1.7195
1.71558
1.71156
1.70756
1.7035
1.69949
1.69569
1.69235
1.68967
1.68822
1.68925
1.7179
2.23346
3.80878
5.41808
6.68223
8.47906
10.4486
12.065
1.77414
1.76829
1.76248
1.75672
1.75104
1.74546
1.74004
1.73486
1.73002
1.72559
1.7214
1.71706
1.7125
1.70801
1.70375
1.6996
1.69558
1.69182
1.68856
1.68605
1.68485
1.686
1.70139
2.06261
3.51284
5.30014
6.48508
8.21822
10.238
11.9263
1.77414
1.76829
1.76248
1.75673
1.75104
1.74546
1.74002
1.73478
1.72985
1.72522
1.72074
1.7161
1.71128
1.7066
1.70223
1.69806
1.69406
1.69034
1.68713
1.68471
1.68365
1.68486
1.6945
1.92489
3.18831
5.10912
6.30497
7.96438
9.9983
11.7351
1.77414
1.76827
1.76245
1.75666
1.75094
1.74529
1.73975
1.73436
1.72917
1.72416
1.71925
1.71426
1.70914
1.70393
1.69873
1.6936
1.68861
1.68386
1.67953
1.67579
1.67296
1.67143
1.67167
1.67429
1.69101
2.00818
3.21982
4.80874
5.81178
6.48985
1.77414
1.76827
1.76245
1.75666
1.75094
1.7453
1.73977
1.73441
1.72926
1.72434
1.71954
1.71467
1.70961
1.70444
1.69925
1.69413
1.68916
1.68441
1.68008
1.67634
1.6735
1.67197
1.67221
1.67654
1.77607
2.57754
4.19225
5.53787
6.24128
6.90737
1.77414
1.76827
1.76245
1.75666
1.75094
1.74531
1.73981
1.73451
1.72949
1.72479
1.72028
1.71568
1.71081
1.70574
1.70061
1.69553
1.69061
1.68591
1.68162
1.67793
1.67514
1.67364
1.67415
1.68792
1.99859
3.25518
4.88821
5.85891
6.67885
7.36975
1.77414
1.76828
1.76245
1.75666
1.75095
1.74534
1.73988
1.7347
1.72992
1.72565
1.72175
1.71775
1.71331
1.70849
1.70351
1.69856
1.69376
1.68918
1.68503
1.6815
1.67888
1.67759
1.67931
1.74182
2.38034
3.9296
5.3623
6.19611
7.12254
7.83939
1.77413
1.76828
1.76246
1.75667
1.75097
1.74538
1.74
1.73501
1.73068
1.72726
1.72462
1.72184
1.71831
1.71409
1.7095
1.70484
1.70027
1.69601
1.6922
1.68906
1.6869
1.68628
1.69161
1.85778
2.84384
4.49619
5.65856
6.61898
7.59625
8.37492
1.77413
1.76827
1.76246
1.75667
1.75098
1.74544
1.74018
1.73551
1.73198
1.73023
1.73032
1.73021
1.7286
1.72578
1.72213
1.71813
1.71413
1.7106
1.70757
1.70541
1.7045
1.70573
1.72166
2.04685
3.31885
4.9539
5.97411
7.09453
8.15582
8.98835
1.77414
1.76827
1.76245
1.75668
1.75101
1.74552
1.74043
1.73628
1.73417
1.73593
1.7426
1.74862
1.7512
1.75158
1.75021
1.74781
1.74534
1.7436
1.74279
1.74349
1.74632
1.75276
1.79595
2.30074
3.76467
5.32453
6.44808
7.68611
8.81712
9.67596
1.77415
1.76828
1.76245
1.75669
1.75103
1.74561
1.74074
1.73737
1.73767
1.74726
1.7699
1.78855
1.80085
1.80689
1.80919
1.81118
1.81469
1.81963
1.82708
1.83806
1.8537
1.8755
1.95655
2.6066
4.16739
5.6432
7.05528
8.38356
9.53624
10.3866
1.77415
1.7683
1.76248
1.7567
1.75106
1.74569
1.74108
1.7386
1.74279
1.76548
1.82344
1.88066
1.91502
1.93149
1.94853
1.97846
2.01212
2.04891
2.08919
2.13407
2.18333
2.23614
2.32015
2.9521
4.48642
6.07612
7.74712
9.06815
10.1879
11.0105
1.77415
1.7683
1.7625
1.75673
1.7511
1.74576
1.74133
1.73961
1.74779
1.78649
1.90149
2.0005
2.10568
2.14118
2.26627
2.43001
2.57708
2.7048
2.8144
2.90504
2.97492
3.00908
3.03547
3.46353
4.88049
6.66074
8.23587
9.49949
10.6039
11.4328
1.77415
1.7683
1.7625
1.75673
1.7511
1.74577
1.74137
1.73979
1.7488
1.79151
1.91702
2.02238
2.10797
2.14112
2.2096
2.33156
2.44668
2.5492
2.63733
2.70746
2.75654
2.75738
2.79996
3.37279
4.93255
6.6794
8.22602
9.54489
10.7372
11.6404
1.77415
1.7683
1.76248
1.7567
1.75107
1.74572
1.74118
1.73899
1.7447
1.77414
1.8466
1.91815
1.95621
1.97271
1.98227
1.99864
2.01785
2.03676
2.05397
2.06826
2.07815
2.08171
2.28352
3.36759
5.04606
6.43375
7.97098
9.39637
10.7224
11.7279
1.77415
1.76828
1.76245
1.75669
1.75104
1.74563
1.74085
1.73779
1.7393
1.75381
1.78691
1.81392
1.83149
1.84009
1.84151
1.84097
1.83985
1.83856
1.83653
1.83391
1.83118
1.83691
2.10898
3.31374
5.04384
6.27127
7.77643
9.26888
10.7009
11.7921
1.77414
1.76827
1.76245
1.75668
1.75101
1.74553
1.74051
1.73661
1.73528
1.73959
1.75152
1.76261
1.76938
1.77233
1.7714
1.76805
1.7637
1.75925
1.7545
1.74979
1.74589
1.75166
2.02298
3.25271
5.03066
6.22934
7.69843
9.22346
10.722
11.8712
1.77413
1.76827
1.76246
1.75668
1.75099
1.74544
1.74022
1.7357
1.73263
1.7321
1.73469
1.73726
1.73802
1.73691
1.73399
1.7298
1.72509
1.72057
1.7161
1.71197
1.70891
1.71402
1.9553
3.15652
4.98926
6.24017
7.67883
9.22688
10.7708
11.9584
1.77414
1.76828
1.76246
1.75667
1.75096
1.74537
1.74
1.73507
1.73097
1.72813
1.72661
1.72513
1.72291
1.71993
1.71613
1.7117
1.70706
1.70256
1.69836
1.69471
1.69233
1.69623
1.88943
3.01262
4.89885
6.26683
7.6573
9.23319
10.8134
12.0315
1.77414
1.76828
1.76246
1.75666
1.75095
1.74532
1.73985
1.73467
1.72998
1.72594
1.7225
1.71909
1.71536
1.71136
1.70709
1.70257
1.698
1.69362
1.68965
1.68638
1.68447
1.68734
1.82544
2.82068
4.74144
6.28295
7.60052
9.20144
10.8195
12.0692
1.77414
1.76828
1.76246
1.75666
1.75094
1.74529
1.73976
1.73443
1.72941
1.72475
1.72037
1.71596
1.7114
1.70682
1.70227
1.69768
1.69315
1.68885
1.68502
1.68198
1.6804
1.68265
1.76989
2.59375
4.50474
6.25567
7.49753
9.09397
10.7641
12.0579
1.77414
1.76828
1.76245
1.75666
1.75093
1.74527
1.73971
1.7343
1.72911
1.72415
1.71932
1.71441
1.70941
1.70451
1.69978
1.69514
1.69064
1.68639
1.68266
1.67979
1.67845
1.68042
1.72786
2.35276
4.18782
6.16261
7.38298
8.94519
10.6498
11.9854
1.77414
1.76828
1.76246
1.75667
1.75094
1.74527
1.7397
1.73426
1.729
1.72392
1.71891
1.71382
1.70864
1.70361
1.6988
1.69416
1.68968
1.68548
1.68182
1.67905
1.67786
1.67969
1.70147
2.1356
3.82295
5.99455
7.29322
8.79665
10.5023
11.8522
1.77414
1.76827
1.76245
1.75666
1.75093
1.74528
1.73971
1.73427
1.72898
1.72384
1.71878
1.71368
1.70849
1.70323
1.69798
1.69278
1.68773
1.68289
1.67846
1.67461
1.67168
1.67009
1.67036
1.67383
1.72951
2.31501
3.83839
5.47718
6.40165
7.08124
1.77414
1.76827
1.76245
1.75666
1.75093
1.74528
1.73972
1.7343
1.72905
1.72396
1.71897
1.71395
1.7088
1.70357
1.69832
1.69312
1.68807
1.68324
1.6788
1.67494
1.67199
1.67037
1.67076
1.68034
1.91681
3.08785
4.85305
6.11118
6.80518
7.42473
1.77414
1.76827
1.76245
1.75666
1.75094
1.74529
1.73975
1.73438
1.72921
1.72427
1.71946
1.71461
1.70959
1.70442
1.69919
1.69402
1.68899
1.68418
1.67975
1.67591
1.67297
1.67137
1.67257
1.72128
2.29473
3.86227
5.49697
6.38874
7.18348
7.79814
1.77414
1.76827
1.76245
1.75666
1.75094
1.74531
1.73981