/*--------------------------------*- C++ -*----------------------------------*\
| =========                 |                                                 |
| \\      /  F ield         | OpenFOAM: The Open Source CFD Toolbox           |
|  \\    /   O peration     | Version:  2512                                  |
|   \\  /    A nd           | Website:  www.openfoam.com                      |
|    \\/     M anipulation  |                                                 |
\*---------------------------------------------------------------------------*/
FoamFile
{
    version     2.0;
    format      ascii;
    arch        "LSB;label=32;scalar=64";
    class       volScalarField;
    location    "240";
    object      omega;
}
// * * * * * * * * * * * * * * * * * * * * * * * * * * * * * * * * * * * * * //

dimensions      [0 0 -1 0 0 0 0];

internalField   nonuniform List<scalar> 
84826
(
16.0846
15.8154
15.5584
15.3126
15.0773
14.8511
14.6337
14.4237
14.2239
14.0347
13.8552
13.6909
13.529
13.3688
13.218
13.0701
12.9254
12.7841
12.6457
12.5105
12.3789
12.2508
12.1263
12.0052
11.8875
11.7732
11.662
11.5539
11.4488
11.3465
16.0846
15.8155
15.5587
15.3131
15.0779
14.8523
14.6352
14.4257
14.2266
14.0381
13.8596
13.6962
13.5352
13.3755
13.2249
13.077
12.9319
12.7904
12.6516
12.5161
12.3841
12.2557
12.1309
12.0095
11.8915
11.7769
11.6655
11.5571
11.4518
11.3493
16.0847
15.8156
15.5588
15.3134
15.0786
14.8534
14.6374
14.4285
14.2301
14.0431
13.8665
13.7057
13.5468
13.388
13.2381
13.0902
12.945
12.8029
12.6631
12.5269
12.3945
12.2656
12.1405
12.0187
11.9005
11.7857
11.6741
11.5656
11.4602
11.3577
16.0847
15.8157
15.559
15.3137
15.0792
14.8544
14.6391
14.431
14.2341
14.0495
13.8762
13.7182
13.5627
13.4073
13.2587
13.1109
12.9649
12.822
12.6812
12.5441
12.4109
12.2814
12.1556
12.0334
11.9145
11.7991
11.6869
11.5779
11.472
11.3691
16.0847
15.8157
15.5591
15.314
15.0796
14.8554
14.6409
14.4337
14.2387
14.0574
13.8852
13.7022
13.5527
13.4281
13.2822
13.1351
12.9883
12.8443
12.7026
12.565
12.4318
12.303
12.1783
12.0574
11.9402
11.8264
11.7158
11.6082
11.5034
11.4011
16.0847
15.8157
15.5592
15.3142
15.08
14.8562
14.6424
14.4365
14.244
14.0623
13.8942
13.7417
13.6002
13.4598
13.3176
13.1705
13.0219
12.8794
12.7453
12.6235
12.5147
12.4171
12.3276
12.243
12.1605
12.0772
11.991
11.9001
11.8036
11.6997
16.0847
15.8157
15.5593
15.3143
15.0803
14.8569
14.6437
14.4408
14.2479
14.0681
13.9183
13.8126
13.7559
13.7325
13.6008
13.4598
13.4317
13.5463
13.7525
14.0199
14.309
14.582
14.8151
14.9965
15.1205
15.1855
15.1911
15.1402
15.0336
14.8725
16.0847
15.8158
15.5593
15.3144
15.0805
14.8574
14.645
14.4454
14.2513
14.0764
27.8253
27.2989
26.95
28.8602
22.3765
22.5447
23.3954
24.215
24.885
25.3963
25.7395
25.9191
25.9554
25.8732
25.6938
25.4351
25.1113
24.7329
24.3097
23.8364
16.0847
15.8158
15.5593
15.3145
15.0808
14.8578
14.6462
14.4475
14.2566
14.0958
27.8916
28.003
32.5476
78.3319
51.6911
48.9535
46.69
44.6599
42.8304
41.1885
39.6921
38.3228
37.0714
35.9259
34.8698
33.8885
32.97
32.1034
31.2886
30.4951
16.0848
15.8161
15.5598
15.3152
15.0818
14.8591
14.6479
14.4487
14.2624
14.1279
28.0493
57.6965
76.8339
194.393
57.3132
52.5473
49.7634
47.2993
45.1338
43.2381
41.5614
40.0665
38.7264
37.5177
36.4201
35.4154
34.4898
33.6308
32.8374
32.078
16.0849
15.8164
15.5604
15.3159
15.0826
14.8595
14.6479
14.4488
14.2625
14.128
28.1136
60.0282
240.517
54.6213
50.1276
47.5491
45.3351
43.4279
41.791
40.3649
39.1112
38.0012
37.0115
36.1204
35.3091
34.5639
33.8698
33.2283
32.6016
16.0849
15.8162
15.5598
15.3151
15.0817
14.8583
14.6464
14.4478
14.2569
14.0964
27.9314
56.0353
79.3954
176.58
48.2576
45.0596
42.6716
40.5608
38.6932
37.0478
35.5919
34.3023
33.1609
32.1545
31.268
30.4911
29.8133
29.2303
28.7143
28.3097
16.0848
15.8159
15.5593
15.3144
15.0807
14.8577
14.6454
14.446
14.2519
14.0775
27.8484
27.4988
28.7042
41.6624
18.5408
17.6947
17.3104
17.1757
17.1096
17.0751
17.0487
17.0245
17.0122
17.0239
17.0715
17.1593
17.2878
17.4666
17.6683
17.9466
16.0847
15.8158
15.5593
15.3144
15.0805
14.8572
14.6442
14.4415
14.2488
14.0694
13.9209
13.8195
13.7532
13.6488
13.5003
13.3486
13.1954
13.0451
12.8988
12.7581
12.6236
12.4952
12.3733
12.2596
12.1594
12.0841
12.0407
12.0346
12.0745
12.1552
16.0847
15.8158
15.5593
15.3144
15.0802
14.8566
14.6429
14.4372
14.2451
14.0638
13.8965
13.7453
13.6049
13.4634
13.3246
13.1827
13.0407
12.9013
12.7631
12.6279
12.4957
12.3665
12.2403
12.1168
11.996
11.8782
11.7641
11.6545
11.5506
11.4546
16.0847
15.8157
15.5592
15.3141
15.0798
14.8557
14.6414
14.4345
14.2398
14.0591
13.8876
13.7057
13.5576
13.4356
13.2928
13.1499
13.0088
12.8712
12.7352
12.6024
12.4725
12.3454
12.2211
12.0991
11.9794
11.8617
11.7459
11.6319
11.5201
11.4108
16.0847
15.8157
15.5591
15.3138
15.0793
14.8547
14.6396
14.4318
14.2353
14.0513
13.8789
13.7222
13.5684
13.4151
13.2688
13.1245
12.9828
12.8444
12.7077
12.5737
12.4424
12.3136
12.1876
12.064
11.9431
11.825
11.7096
11.5968
11.4866
11.3791
16.0847
15.8156
15.5589
15.3135
15.0787
14.8537
14.6379
14.4293
14.2314
14.0451
13.8695
13.7099
13.5525
13.3955
13.2475
13.1024
12.9604
12.8219
12.6852
12.5514
12.4207
12.2927
12.1677
12.0453
11.9257
11.8087
11.6942
11.5821
11.4726
11.3654
16.0846
15.8155
15.5587
15.3131
15.0781
14.8525
14.6357
14.4265
14.228
14.0404
13.8629
13.7008
13.5414
13.3833
13.2343
13.0888
12.9463
12.8076
12.6715
12.538
12.4074
12.2797
12.1548
12.0327
11.9132
11.7964
11.6822
11.5705
11.4614
11.355
16.0845
15.8154
15.5584
15.3126
15.0773
14.8513
14.6342
14.4247
14.2256
14.0372
13.8589
13.696
13.5356
13.3769
13.2276
13.082
12.9397
12.8009
12.6648
12.5314
12.4009
12.2732
12.1484
12.0263
11.9069
11.7902
11.6761
11.5646
11.4558
11.3496
1.93989
2.08194
2.20888
2.32362
2.4285
2.5254
2.61559
2.70082
2.78438
2.8653
2.9426
3.01323
3.07504
3.12572
3.16665
3.20035
3.23074
3.25788
3.28287
3.30611
3.32767
3.34737
3.36515
3.381
3.39487
3.40671
3.41644
3.42415
3.42992
3.43358
1.9399
2.08201
2.20901
2.32388
2.429
2.52633
2.61733
2.70359
2.78916
2.87311
2.9545
3.02973
3.09558
3.14917
3.19125
3.22523
3.25605
3.28367
3.30939
3.33349
3.35601
3.37679
3.39571
3.41267
3.42762
3.4404
3.45101
3.45946
3.46587
3.47001
1.93986
2.08212
2.20925
2.32436
2.42995
2.52822
2.62114
2.70958
2.79961
2.89047
2.9815
3.06733
3.14274
3.20305
3.24773
3.28219
3.31409
3.34276
3.3701
3.39589
3.42007
3.44241
3.46268
3.4807
3.49634
3.50935
3.51966
3.52725
3.53229
3.53432
1.9398
2.08222
2.20957
2.32502
2.43128
2.53084
2.62623
2.71868
2.81617
2.91953
3.03097
3.13732
3.23364
3.30709
3.35668
3.39189
3.42529
3.45653
3.48725
3.51681
3.54516
3.57172
3.59607
3.61791
3.6369
3.65279
3.6654
3.6746
3.68054
3.68275
1.93983
2.08223
2.20992
2.32584
2.43293
2.53418
2.63283
2.7313
2.84052
2.96731
3.10238
3.24057
3.37538
3.48107
3.54186
3.58081
3.62036
3.6595
3.69809
3.73525
3.77105
3.80448
3.83476
3.86129
3.88357
3.90122
3.91395
3.92144
3.92381
3.91969
1.93988
2.08227
2.21016
2.32672
2.43479
2.538
2.64075
2.74774
2.87592
3.02445
3.21965
3.43117
3.67073
3.84068
3.93257
3.98467
4.04208
4.1031
4.16491
4.22808
4.29263
4.35552
4.41433
4.4669
4.51187
4.54802
4.57452
4.59067
4.5967
4.58987
1.9399
2.0824
2.21039
2.3274
2.43665
2.54196
2.64951
2.76867
2.91301
3.11431
3.45887
3.95197
4.58443
5.04206
5.25816
5.40921
5.56479
5.72435
5.88292
6.03984
6.20954
6.38002
6.53808
6.67606
6.78838
6.87241
6.92747
6.95725
6.96526
6.94618
1.93993
2.08254
2.21071
2.32798
2.43815
2.54547
2.65813
2.79298
2.95643
3.27904
3.68549
5.26873
7.65056
13.0165
22.4153
22.1013
21.8631
21.6211
21.3811
21.1617
20.9502
20.7419
20.5339
20.3266
20.1211
19.8951
19.6317
19.317
18.9398
18.4972
1.93995
2.08265
2.21097
2.32857
2.4393
2.5483
2.66535
2.81059
3.00774
3.57795
4.63703
13.4783
36.4891
113.451
118.03
94.5802
80.4904
71.0929
64.4973
59.6695
55.8949
52.7023
49.8914
47.3616
45.0427
42.908
40.9397
39.1145
37.4293
35.8192
1.94006
2.08289
2.21139
2.32924
2.4404
2.5504
2.67006
2.81771
3.05459
3.91555
7.6639
534.027
1334.01
853.115
133.566
102.886
85.6502
73.7313
64.9374
58.2057
52.8951
48.6055
45.0738
42.1196
39.6151
37.4667
35.606
33.9744
32.5444
31.2321
1.94016
2.08307
2.21164
2.32952
2.44071
2.55015
2.66969
2.81716
3.05396
3.91806
8.21843
275.196
136.362
104.207
86.0478
73.6487
64.5966
57.7579
52.4304
48.1874
44.755
41.9401
39.6002
37.6275
35.9416
34.4743
33.1954
32.0097
1.94016
2.0828
2.2113
2.32874
2.43951
2.54793
2.66483
2.80978
3.00703
3.58211
5.83928
298.937
894.624
611.839
109.174
87.3176
73.0496
62.8554
55.2901
49.495
44.958
41.2958
38.3508
35.9583
34.0099
32.4185
31.113
30.0395
29.1382
28.3938
1.94018
2.08254
2.21078
2.32785
2.43799
2.54522
2.65773
2.79231
2.95564
3.28067
3.91208
8.24758
15.3087
28.636
17.4834
16.6628
16.0134
15.4192
14.8852
14.4162
14.0119
13.6714
13.393
13.1784
13.0366
12.9794
13.0188
13.1681
13.4367
13.8376
1.94006
2.08243
2.21035
2.32732
2.4365
2.54168
2.64899
2.76778
2.91163
3.11377
3.4668
3.99281
4.63307
5.01157
5.13315
5.16147
5.15931
5.14141
5.11207
5.07735
5.04146
5.00734
4.97638
4.95116
4.93587
4.93238
4.94571
4.97924
5.03732
5.13047
1.9399
2.08227
2.21012
2.32664
2.43461
2.53765
2.64013
2.7467
2.87431
3.0223
3.21896
3.43879
3.68299
3.83519
3.89634
3.90573
3.90621
3.90488
3.90288
3.90085
3.89985
3.89975
3.90062
3.90274
3.9069
3.91327
3.92281
3.93562
3.95255
3.97569
1.93984
2.08223
2.20989
2.32574
2.43272
2.53379
2.63215
2.73017
2.83875
2.96469
3.0987
3.23649
3.36797
3.46369
3.50795
3.52188
3.52955
3.53466
3.5387
3.542
3.54488
3.54747
3.54998
3.55239
3.55498
3.55797
3.56189
3.56716
3.57418
3.58412
1.93981
2.08222
2.20954
2.32492
2.43106
2.53043
2.62552
2.71751
2.81432
2.91671
3.02671
3.13099
3.22318
3.28796
3.32459
3.34359
3.35893
3.37254
3.38446
3.39517
3.40497
3.41405
3.42252
3.43049
3.4385
3.44687
3.45583
3.46532
3.47546
3.48663
1.93987
2.08212
2.20922
2.32425
2.42972
2.5278
2.62042
2.7084
2.79774
2.88756
2.97697
3.06029
3.13136
3.18467
3.21977
3.24362
3.26401
3.28283
3.29943
3.3144
3.32801
3.34042
3.35179
3.3622
3.37183
3.38066
3.38892
3.39679
3.40439
3.41214
1.93991
2.08201
2.20898
2.32378
2.42877
2.5259
2.61661
2.70241
2.7873
2.87021
2.94997
3.02266
3.08448
3.13214
3.16653
3.19272
3.21528
3.23686
3.25582
3.27289
3.28843
3.3026
3.31556
3.32744
3.33839
3.34842
3.35762
3.36619
3.37422
3.38203
1.9399
2.08194
2.20884
2.32351
2.42827
2.52496
2.61485
2.69962
2.78249
2.86234
2.93799
3.00607
3.06399
3.10918
3.14314
3.17028
3.19398
3.21667
3.23663
3.25463
3.27103
3.28603
3.29976
3.31237
3.32397
3.33467
3.34441
3.35339
3.36175
3.36965
1.77772
1.77828
1.78114
1.78593
1.79238
1.80029
1.80931
1.82092
1.83403
1.84891
1.86523
1.88147
1.89675
1.90993
1.92159
1.93204
1.94135
1.95184
1.96144
1.97072
1.97979
1.98861
1.99709
2.00516
2.01283
2.01997
2.02643
2.03225
2.03744
2.04193
1.77772
1.77828
1.78115
1.78595
1.79244
1.80043
1.80964
1.82159
1.83517
1.85099
1.86871
1.88634
1.90361
1.918
1.93035
1.94129
1.9509
1.96172
1.97172
1.98145
1.991
2.00031
2.0093
2.01792
2.02609
2.03364
2.04049
2.04666
2.05216
2.05687
1.77772
1.77829
1.78117
1.786
1.79256
1.80075
1.81048
1.82277
1.83752
1.85559
1.87679
1.89819
1.91933
1.93648
1.95037
1.96223
1.97285
1.98413
1.99496
2.00561
2.01608
2.02629
2.03618
2.0456
2.05444
2.06246
2.06965
2.07595
2.08139
2.0858
1.77772
1.7783
1.7812
1.78608
1.79273
1.80116
1.81153
1.82471
1.84164
1.86384
1.89022
1.91771
1.94646
1.96977
1.98702
2.00065
2.01312
2.02602
2.03882
2.05155
2.06413
2.07647
2.08854
2.09995
2.11059
2.12024
2.12883
2.13625
2.14251
2.14736
1.77773
1.7783
1.78123
1.78616
1.79295
1.80169
1.81283
1.82756
1.84806
1.87601
1.91565
1.95804
2.00473
2.03863
2.06243
2.07975
2.09568
2.11221
2.12899
2.14582
2.16256
2.17925
2.1954
2.21042
2.2241
2.2362
2.24654
2.25491
2.26131
2.26525
1.77773
1.77831
1.78126
1.78626
1.79321
1.80232
1.81441
1.83149
1.85655
1.89803
1.98042
2.06879
2.15985
2.21766
2.25255
2.27815
2.30423
2.33192
2.36045
2.38967
2.41965
2.45069
2.48182
2.51167
2.53946
2.56435
2.58564
2.60267
2.61534
2.62235
1.77773
1.77832
1.78128
1.78635
1.79347
1.80301
1.81628
1.83672
1.8697
1.94883
2.15487
2.45562
2.70013
2.85713
2.9488
3.02763
3.11807
3.21181
3.3048
3.39686
3.48733
3.57726
3.66899
3.75585
3.83338
3.89801
3.94734
3.98067
3.99793
3.99655
1.77773
1.77834
1.78132
1.78641
1.79369
1.80365
1.81827
1.84179
1.89133
2.07458
2.28925
3.65779
4.98523
5.97762
10.8411
11.5384
12.0758
12.4769
12.7636
12.9685
13.1032
13.1681
13.1686
13.1157
13.0174
12.8764
12.6973
12.4871
12.2493
11.9829
1.77774
1.77835
1.78135
1.7865
1.79387
1.80415
1.82
1.8471
1.92459
2.37205
3.40414
14.4205
46.2206
46.9434
84.9991
70.3106
60.524
53.3992
47.8367
43.3928
39.7159
36.6551
34.054
31.8037
29.8275
28.0692
26.487
25.0494
23.7323
22.5175
1.77774
1.77836
1.78138
1.78657
1.79401
1.8045
1.82106
1.85059
1.96325
2.79237
6.79131
551.311
402.94
324.957
133.72
100.19
81.4744
69.1482
60.1812
53.4375
48.1455
43.8777
40.3573
37.3981
34.8712
32.6842
30.7691
29.0737
27.5612
26.184
1.77774
1.77836
1.78138
1.78657
1.79403
1.80454
1.82107
1.85056
1.96318
2.7932
7.32974
348.636
130.687
97.1299
78.5022
66.3151
57.5341
50.9303
45.7634
41.6494
38.2883
35.4988
33.1557
31.168
29.4667
27.9972
26.7194
25.5892
1.77774
1.77835
1.78135
1.78649
1.79388
1.8042
1.82002
1.84706
1.92458
2.37324
4.57653
374.51
440.019
282.353
77.8918
63.5749
53.7671
46.6972
41.3559
37.222
33.9515
31.3201
29.1886
27.4422
26.028
24.8858
23.9738
23.261
22.7301
22.3247
1.77773
1.77833
1.78131
1.78641
1.79369
1.80364
1.81823
1.84169
1.89116
2.07482
2.57225
7.18667
11.5643
13.5312
9.62767
9.90378
10.0104
10.0092
9.95059
9.87297
9.79444
9.72725
9.6782
9.64897
9.64594
9.67503
9.74323
9.85175
10.0067
10.2012
1.77773
1.77832
1.78127
1.78634
1.79346
1.80297
1.81621
1.83656
1.8694
1.94864
2.15618
2.46026
2.70096
2.84283
2.90131
2.92298
2.95426
2.98243
3.00756
3.03169
3.05502
3.07784
3.10036
3.12391
3.14943
3.17794
3.21115
3.25009
3.29635
3.35131
1.77773
1.77831
1.78125
1.78626
1.79318
1.80227
1.81432
1.83132
1.85623
1.89753
1.98002
2.06961
2.15989
2.21208
2.23608
2.24516
2.25343
2.26046
2.26702
2.27375
2.28103
2.28895
2.29748
2.30657
2.31651
2.32757
2.34031
2.35465
2.37087
2.38949
1.77773
1.7783
1.78123
1.78615
1.79293
1.80164
1.81273
1.82738
1.84775
1.87546
1.91475
1.95668
2.00178
2.03166
2.0489
2.05949
2.06777
2.07502
2.08162
2.08785
2.09381
2.09964
2.10532
2.11093
2.11666
2.12254
2.12876
2.1355
2.14289
2.15121
1.77772
1.7783
1.7812
1.78607
1.79271
1.80111
1.81143
1.82454
1.84134
1.86326
1.88922
1.91599
1.9432
1.96386
1.9773
1.98676
1.99487
2.00256
2.00967
2.0164
2.02288
2.02915
2.03533
2.04132
2.04728
2.05331
2.05946
2.06599
2.07295
2.08048
1.77772
1.77829
1.78117
1.78599
1.79253
1.80069
1.81038
1.8226
1.83723
1.85507
1.87586
1.89652
1.91632
1.9314
1.94253
1.95147
1.95946
1.96737
1.97473
1.98176
1.98852
1.99508
2.00147
2.0077
2.01374
2.01973
2.02564
2.03152
2.03745
2.04351
1.77772
1.77828
1.78115
1.78594
1.79241
1.80038
1.80955
1.82142
1.83488
1.85049
1.86783
1.88475
1.90081
1.91345
1.92359
1.93238
1.94056
1.94851
1.95611
1.96337
1.97037
1.97714
1.98372
1.99014
1.99638
2.00249
2.00849
2.0144
2.02025
2.02614
1.77772
1.77827
1.78113
1.78591
1.79234
1.80023
1.8092
1.82074
1.83372
1.84838
1.86431
1.87984
1.89397
1.90552
1.91518
1.92392
1.93214
1.94019
1.94791
1.95528
1.96241
1.96931
1.97601
1.98254
1.98894
1.99515
2.00126
2.00727
2.01319
2.01908
1.77423
1.7686
1.7632
1.75807
1.75326
1.74881
1.74481
1.74153
1.73902
1.73752
1.73691
1.7365
1.73553
1.7341
1.73268
1.73136
1.7299
1.7287
1.7276
1.72656
1.72564
1.72484
1.72412
1.72346
1.72283
1.72219
1.72153
1.72081
1.72
1.71909
1.77423
1.7686
1.7632
1.75808
1.75327
1.74884
1.74488
1.74169
1.73939
1.73828
1.73832
1.73849
1.7384
1.73745
1.73635
1.73523
1.73393
1.73287
1.73193
1.73106
1.73033
1.72972
1.72921
1.72876
1.72832
1.7279
1.72742
1.72685
1.7262
1.7254
1.77423
1.7686
1.7632
1.75808
1.7533
1.7489
1.74501
1.74206
1.74023
1.74008
1.74174
1.74354
1.74542
1.74562
1.74525
1.74457
1.74351
1.74293
1.74231
1.7418
1.74143
1.7412
1.74107
1.74098
1.74089
1.74079
1.74056
1.7402
1.73969
1.73896
1.77423
1.7686
1.76321
1.7581
1.75333
1.749
1.74528
1.74267
1.74173
1.7435
1.74827
1.75395
1.75878
1.76146
1.76265
1.76287
1.76252
1.76258
1.76273
1.76306
1.76357
1.76423
1.76497
1.76571
1.76644
1.76706
1.76749
1.76769
1.76765
1.76727
1.77423
1.7686
1.76321
1.75811
1.75337
1.74913
1.74565
1.74363
1.74429
1.74949
1.76257
1.77712
1.7906
1.79754
1.8017
1.80367
1.80473
1.80628
1.80809
1.81026
1.81276
1.81548
1.81827
1.82098
1.82351
1.82569
1.82745
1.82871
1.82946
1.8295
1.77424
1.7686
1.76322
1.75813
1.75343
1.74929
1.74616
1.74513
1.74835
1.7623
1.7993
1.84152
1.87365
1.89241
1.90149
1.90731
1.91342
1.92048
1.92813
1.93642
1.94531
1.95462
1.96408
1.97333
1.98206
1.99002
1.99701
2.00284
2.00745
2.01039
1.77424
1.76861
1.76322
1.75815
1.75349
1.74949
1.74681
1.74728
1.75591
1.79205
1.8987
2.04325
2.13318
2.19007
2.21907
2.24183
2.27745
2.3185
2.36058
2.40344
2.4463
2.48822
2.52778
2.56374
2.5951
2.62287
2.64629
2.66479
2.67823
2.68546
1.77424
1.76862
1.76324
1.75817
1.75355
1.7497
1.74756
1.75001
1.76901
1.86645
1.99121
2.69734
3.24103
3.47862
4.68593
4.84022
5.03871
5.26357
5.48103
5.68352
5.8655
6.01915
6.1398
6.2235
6.27279
6.29542
6.291
6.26104
6.20784
6.12871
1.77424
1.76863
1.76325
1.7582
1.75363
1.74989
1.74828
1.7533
1.78921
2.02981
2.59442
7.82599
19.2412
20.4505
31.9557
28.7194
26.1985
24.1721
22.495
21.0912
19.8792
18.8256
17.8957
17.0742
16.3346
15.6585
15.0355
14.4572
13.9164
13.4125
1.77424
1.76864
1.76327
1.75823
1.75369
1.75003
1.7488
1.75582
1.81139
2.27137
4.22148
260.325
628.025
305.538
94.2117
74.5207
61.8836
53.2174
46.8426
42.05
38.254
35.172
32.6401
30.5049
28.6747
27.0828
25.6795
24.4256
23.2903
22.2483
1.77424
1.76863
1.76327
1.75822
1.75367
1.75002
1.7488
1.7558
1.81133
2.27122
4.5951
419.09
289.238
245.161
97.3371
77.0123
63.993
55.0647
48.5236
43.4942
39.4772
36.193
33.4336
31.0619
29.0105
27.207
25.6084
24.1838
22.9053
21.76
1.77423
1.76862
1.76324
1.75819
1.7536
1.74988
1.74828
1.7533
1.7892
2.02989
3.08605
150.091
490.495
331.083
30.2056
27.2195
24.8063
22.8602
21.2693
19.9471
18.8341
17.8867
17.0739
16.3708
15.7736
15.2609
14.8262
14.4529
14.1311
13.8464
1.77423
1.76861
1.76323
1.75817
1.75355
1.7497
1.74756
1.75001
1.76898
1.86638
2.14867
4.15743
5.71131
6.17903
4.45167
4.57826
4.70527
4.8031
4.87422
4.9299
4.97548
5.01346
5.04619
5.0772
5.11493
5.16522
5.23507
5.32874
5.4495
5.59401
1.77423
1.76861
1.76322
1.75815
1.75349
1.74949
1.74681
1.74729
1.75589
1.79204
1.89839
2.04315
2.1335
2.1865
2.21139
2.22559
2.2433
2.26336
2.28158
2.29894
2.31576
2.33217
2.34782
2.36307
2.3781
2.39367
2.41054
2.43002
2.45291
2.47956
1.77424
1.76861
1.76322
1.75813
1.75343
1.74929
1.74616
1.74514
1.74836
1.76229
1.79923
1.84143
1.87363
1.89162
1.89893
1.902
1.90366
1.90472
1.90537
1.90602
1.90682
1.90782
1.9091
1.91069
1.91278
1.91557
1.91912
1.92356
1.92893
1.93534
1.77423
1.7686
1.76321
1.75811
1.75337
1.74913
1.74566
1.74365
1.74432
1.74951
1.76258
1.77707
1.79039
1.79674
1.79948
1.80056
1.80029
1.79966
1.79877
1.79781
1.79683
1.79587
1.79496
1.79413
1.79341
1.7929
1.79266
1.79274
1.79322
1.79419
1.77423
1.7686
1.76321
1.7581
1.75333
1.749
1.74529
1.74269
1.74178
1.74355
1.74829
1.75385
1.75839
1.76065
1.76119
1.76085
1.75994
1.75881
1.75758
1.75629
1.75499
1.75371
1.75248
1.75133
1.75027
1.7493
1.74853
1.74796
1.74766
1.74771
1.77423
1.7686
1.7632
1.75809
1.7533
1.74891
1.74502
1.74209
1.74028
1.74014
1.74179
1.74347
1.74508
1.74488
1.74399
1.74285
1.74153
1.74007
1.73862
1.73716
1.73573
1.73435
1.73304
1.7318
1.73066
1.72958
1.72863
1.7278
1.72713
1.72664
1.77423
1.7686
1.7632
1.75808
1.75328
1.74885
1.7449
1.74172
1.73944
1.73835
1.73837
1.73843
1.73807
1.73674
1.73519
1.73366
1.73215
1.73056
1.72904
1.72753
1.72607
1.72467
1.72334
1.72209
1.72091
1.71983
1.71882
1.71794
1.71718
1.71657
1.77423
1.7686
1.7632
1.75807
1.75326
1.74882
1.74482
1.74155
1.73907
1.73759
1.73696
1.73642
1.73519
1.73339
1.73155
1.72986
1.72825
1.72661
1.72505
1.72351
1.72203
1.72061
1.71927
1.71801
1.71683
1.71576
1.71476
1.71389
1.71313
1.71251
1.77415
1.7683
1.76251
1.75677
1.75111
1.74554
1.74011
1.73495
1.73018
1.72589
1.72201
1.7181
1.71374
1.70911
1.7046
1.70021
1.69583
1.69141
1.68707
1.68277
1.67854
1.67438
1.67031
1.66631
1.66238
1.65851
1.65468
1.65091
1.64718
1.6435
1.77415
1.7683
1.76251
1.75677
1.75111
1.74555
1.74014
1.73504
1.73038
1.72633
1.72282
1.71936
1.71538
1.71103
1.70669
1.70241
1.6981
1.69372
1.68944
1.68519
1.68102
1.67692
1.6729
1.66897
1.6651
1.66129
1.65752
1.65381
1.65013
1.64651
1.77415
1.7683
1.76251
1.75678
1.75112
1.74558
1.74022
1.73524
1.73086
1.72737
1.72483
1.72249
1.71946
1.71578
1.71186
1.70783
1.70368
1.69943
1.69527
1.69114
1.68708
1.68311
1.67921
1.6754
1.67165
1.66795
1.66429
1.66067
1.65708
1.65351
1.77415
1.7683
1.76251
1.75678
1.75114
1.74563
1.74036
1.73559
1.73175
1.72942
1.72897
1.72907
1.72801
1.72574
1.72272
1.71921
1.71536
1.7114
1.7075
1.70362
1.69983
1.69612
1.69249
1.68894
1.68544
1.68197
1.67855
1.67515
1.67174
1.66833
1.77415
1.76831
1.76251
1.75679
1.75116
1.7457
1.74056
1.73617
1.7333
1.73328
1.73777
1.74377
1.74701
1.74762
1.74637
1.74387
1.74065
1.73736
1.73403
1.73078
1.72765
1.72466
1.72177
1.71895
1.71616
1.71337
1.71056
1.70769
1.70475
1.70171
1.77415
1.76831
1.76252
1.7568
1.75119
1.74579
1.74086
1.73707
1.73593
1.74103
1.7584
1.77952
1.79332
1.80087
1.80329
1.80306
1.80152
1.80021
1.79891
1.79773
1.79676
1.79603
1.79547
1.795
1.79454
1.79402
1.79335
1.79246
1.79134
1.78985
1.77415
1.76831
1.76252
1.75681
1.75123
1.74591
1.74125
1.73841
1.74053
1.7578
1.81226
1.87065
1.91062
1.93565
1.94591
1.95116
1.95563
1.96235
1.97051
1.97927
1.98861
1.99837
2.00831
2.01806
2.02725
2.0356
2.04281
2.04873
2.05331
2.05613
1.77415
1.76831
1.76253
1.75682
1.75126
1.74603
1.74173
1.74018
1.74837
1.79388
1.95587
2.21714
2.34104
2.4047
2.43828
2.46331
2.50114
2.54484
2.59047
2.64207
2.69928
2.75854
2.81587
2.86792
2.91342
2.95229
2.9837
3.00714
3.02271
3.02884
1.77416
1.76832
1.76255
1.75684
1.75131
1.74615
1.74217
1.74225
1.75913
1.86315
2.05663
3.34245
4.48217
4.65586
5.47092
5.57052
5.6744
5.73933
5.7786
5.80375
5.82118
5.83493
5.83919
5.83627
5.82699
5.81224
5.79103
5.76322
5.72809
5.6871
1.77416
1.76832
1.76256
1.75687
1.75136
1.74624
1.74248
1.74377
1.76995
1.95269
2.49964
10.3839
23.0096
22.3557
18.2441
17.6116
16.9
16.2631
15.6928
15.1901
14.7507
14.3624
14.0001
13.6688
13.3671
13.0848
12.8181
12.5633
12.3155
12.0735
1.77416
1.76832
1.76255
1.75686
1.75134
1.74624
1.74248
1.74376
1.76991
1.95225
2.56961
13.5083
31.1713
33.372
17.6018
17.4963
17.1531
16.7935
16.4276
16.0769
15.7317
15.3943
15.0457
14.697
14.3442
13.9923
13.6384
13.2809
12.9206
12.5585
1.77415
1.76831
1.76253
1.75683
1.75129
1.74615
1.74217
1.74226
1.7591
1.86294
2.20305
5.40019
8.09756
8.06697
5.18665
5.32564
5.46884
5.56814
5.64088
5.70122
5.75266
5.7968
5.83631
5.87083
5.89759
5.91778
5.93048
5.93898
5.94278
5.93985
1.77415
1.76831
1.76252
1.75682
1.75126
1.74604
1.74174
1.7402
1.74837
1.79381
1.95451
2.20956
2.32745
2.38816
2.41993
2.43967
2.4697
2.50339
2.53909
2.57427
2.60832
2.64116
2.67263
2.70259
2.73156
2.76039
2.79021
2.82309
2.86073
2.90539
1.77415
1.76831
1.76252
1.75681
1.75123
1.74591
1.74127
1.73843
1.74055
1.7578
1.81193
1.86964
1.91015
1.93495
1.94611
1.95082
1.95256
1.95463
1.95651
1.95823
1.95999
1.96192
1.96414
1.96665
1.96958
1.97306
1.97728
1.98244
1.98869
1.99625
1.77415
1.76831
1.76252
1.7568
1.75119
1.7458
1.74088
1.7371
1.73599
1.74109
1.75845
1.77945
1.79367
1.80176
1.80481
1.80454
1.80241
1.79978
1.79673
1.79354
1.79031
1.78709
1.78394
1.78088
1.77797
1.7753
1.77293
1.77095
1.76946
1.76855
1.77415
1.76831
1.76251
1.75679
1.75116
1.74571
1.74059
1.73621
1.73338
1.7334
1.73794
1.74397
1.7474
1.74825
1.74719
1.74486
1.74165
1.73806
1.73429
1.73038
1.7264
1.72238
1.71836
1.71438
1.71045
1.70662
1.70291
1.69937
1.69602
1.69293
1.77415
1.76831
1.76251
1.75678
1.75114
1.74564
1.74038
1.73564
1.73184
1.72957
1.72918
1.72933
1.72834
1.72615
1.72324
1.71987
1.71611
1.71209
1.708
1.70383
1.69962
1.69542
1.69124
1.6871
1.68302
1.67899
1.67507
1.67123
1.66753
1.664
1.77415
1.7683
1.76251
1.75678
1.75113
1.74559
1.74025
1.73529
1.73096
1.72753
1.72506
1.72276
1.71976
1.7161
1.71221
1.70824
1.70413
1.69987
1.6956
1.6913
1.68701
1.68274
1.67852
1.67434
1.67022
1.66617
1.66218
1.65828
1.6545
1.65083
1.77415
1.7683
1.76251
1.75677
1.75112
1.74557
1.74017
1.73509
1.73048
1.72649
1.72306
1.71963
1.71566
1.71129
1.70693
1.70266
1.69836
1.69399
1.68964
1.68529
1.68096
1.67666
1.67242
1.66823
1.6641
1.66003
1.65603
1.65212
1.6483
1.6446
1.77415
1.7683
1.7625
1.75677
1.75111
1.74555
1.74013
1.735
1.73027
1.72605
1.72223
1.71836
1.71399
1.70933
1.70478
1.70039
1.69602
1.69161
1.68722
1.68284
1.67848
1.67417
1.66991
1.66571
1.66157
1.6575
1.6535
1.64959
1.64577
1.64208
1.77415
1.76829
1.76248
1.75672
1.751
1.74536
1.73979
1.73442
1.72931
1.7245
1.71992
1.71528
1.71033
1.70521
1.70017
1.6952
1.69024
1.68522
1.68023
1.67524
1.67027
1.66533
1.66044
1.65559
1.65078
1.64602
1.6413
1.63662
1.63198
1.62742
1.77415
1.76829
1.76248
1.75672
1.75101
1.74537
1.73982
1.73449
1.72945
1.7248
1.72047
1.71613
1.71143
1.70649
1.70156
1.69667
1.69174
1.68675
1.68178
1.6768
1.67185
1.66693
1.66206
1.65723
1.65244
1.64769
1.64298
1.63832
1.63369
1.62914
1.77415
1.7683
1.76249
1.75672
1.75101
1.74539
1.73987
1.73463
1.72979
1.72552
1.72181
1.71819
1.71412
1.70963
1.70498
1.70024
1.6954
1.69046
1.68553
1.6806
1.67569
1.67081
1.66597
1.66118
1.65642
1.65171
1.64704
1.6424
1.63781
1.63328
1.77415
1.7683
1.76249
1.75672
1.75103
1.74542
1.73997
1.73488
1.7304
1.72688
1.72447
1.72238
1.71958
1.71598
1.7119
1.70749
1.70284
1.69802
1.6932
1.68836
1.68354
1.67875
1.674
1.66929
1.66462
1.65999
1.65539
1.65082
1.6463
1.64183
1.77415
1.7683
1.76249
1.75673
1.75104
1.74547
1.74013
1.73528
1.73145
1.72935
1.7297
1.7309
1.73065
1.72885
1.72587
1.72213
1.71787
1.71334
1.70876
1.70414
1.69955
1.69501
1.69051
1.68607
1.68166
1.67729
1.67292
1.66859
1.66427
1.65998
1.77415
1.7683
1.76249
1.75674
1.75106
1.74554
1.74034
1.73589
1.73315
1.73385
1.74051
1.74942
1.75469
1.75656
1.75562
1.75311
1.74963
1.74596
1.74201
1.73805
1.73416
1.73035
1.72665
1.72301
1.71941
1.71583
1.71226
1.70868
1.70509
1.70144
1.77415
1.7683
1.76249
1.75675
1.75109
1.74562
1.74061
1.73676
1.73586
1.74241
1.76475
1.79163
1.80903
1.81918
1.82296
1.82311
1.82156
1.81973
1.81758
1.81551
1.81372
1.81215
1.8108
1.8096
1.80849
1.80736
1.8062
1.80486
1.80337
1.80158
1.77415
1.76831
1.76251
1.75675
1.75112
1.74571
1.74092
1.7379
1.74002
1.7586
1.82098
1.88883
1.93313
1.95613
1.96689
1.97261
1.97628
1.98101
1.98667
1.99241
1.99852
2.00494
2.01251
2.02095
2.02974
2.03847
2.04674
2.05417
2.06065
2.0657
1.77416
1.76831
1.76253
1.75677
1.75114
1.74579
1.74122
1.73905
1.74541
1.78448
1.92383
2.14932
2.25206
2.29459
2.3285
2.36316
2.40583
2.44703
2.48786
2.52379
2.55553
2.58369
2.61071
2.63678
2.66156
2.68519
2.70745
2.72817
2.74689
2.76344
1.77416
1.76831
1.76254
1.7568
1.75117
1.74585
1.74142
1.73991
1.7497
1.81489
2.09436
2.67068
3.03164
3.09478
3.25108
3.39544
3.54216
3.66347
3.76706
3.85845
3.94023
4.01353
4.08083
4.14157
4.19576
4.2445
4.28782
4.32511
4.35586
4.37985
1.77416
1.76831
1.76252
1.75679
1.75117
1.74585
1.74142
1.73991
1.74969
1.81478
2.09273
2.62718
2.9469
3.01134
3.17995
3.3558
3.53521
3.68838
3.82347
3.94218
4.04813
4.14041
4.22214
4.29196
4.35052
4.39869
4.4365
4.46465
4.4829
4.49157
1.77415
1.76831
1.7625
1.75676
1.75114
1.74579
1.74123
1.73906
1.74539
1.7844
1.92305
2.13863
2.23881
2.28125
2.3121
2.34266
2.38389
2.42518
2.46865
2.51074
2.55165
2.59117
2.62899
2.66476
2.69851
2.72949
2.75767
2.78281
2.80496
2.82362
1.77415
1.7683
1.7625
1.75675
1.75112
1.74572
1.74093
1.73791
1.74002
1.75854
1.82037
1.88646
1.93033
1.95451
1.96717
1.97487
1.97955
1.98379
1.98873
1.99361
1.99837
2.00323
2.00821
2.01347
2.01899
2.02485
2.03117
2.03804
2.04559
2.05396
1.77415
1.7683
1.76249
1.75675
1.75109
1.74563
1.74062
1.73679
1.73589
1.7424
1.76461
1.79102
1.80887
1.81977
1.82472
1.82546
1.82367
1.82111
1.818
1.81471
1.81139
1.80815
1.80501
1.80204
1.79922
1.79666
1.79436
1.79239
1.79081
1.78967
1.77415
1.7683
1.76249
1.75674
1.75107
1.74555
1.74035
1.73592
1.7332
1.73392
1.74058
1.74944
1.75499
1.75729
1.75682
1.75459
1.75121
1.74748
1.74335
1.73904
1.73464
1.73019
1.72571
1.72124
1.7168
1.71242
1.70816
1.70402
1.70006
1.69632
1.77415
1.7683
1.76249
1.75673
1.75105
1.74548
1.74015
1.73532
1.73152
1.72947
1.72987
1.73112
1.73104
1.72947
1.72676
1.72327
1.71917
1.71474
1.71015
1.70543
1.70063
1.69579
1.69093
1.68608
1.68125
1.67645
1.67171
1.66705
1.66247
1.65802
1.77415
1.7683
1.76249
1.75673
1.75103
1.74543
1.73999
1.73492
1.73049
1.72702
1.72468
1.72268
1.71998
1.71653
1.7126
1.70835
1.70382
1.69907
1.69426
1.68938
1.68446
1.67952
1.6746
1.66968
1.6648
1.65994
1.65512
1.65035
1.64565
1.64104
1.77415
1.7683
1.76249
1.75672
1.75102
1.7454
1.7399
1.73468
1.72988
1.72567
1.72204
1.7185
1.71451
1.71011
1.70555
1.70091
1.69614
1.69125
1.68633
1.68138
1.67641
1.67144
1.66649
1.66157
1.65667
1.6518
1.64698
1.64219
1.63747
1.63283
1.77415
1.76829
1.76248
1.75672
1.75101
1.74538
1.73984
1.73454
1.72955
1.72496
1.72071
1.71643
1.7118
1.70691
1.70203
1.69719
1.69232
1.68736
1.68239
1.67741
1.67243
1.66745
1.6625
1.65758
1.65268
1.64782
1.643
1.63822
1.63349
1.62885
1.77415
1.76829
1.76248
1.75671
1.751
1.74536
1.73981
1.73447
1.7294
1.72465
1.72015
1.71558
1.71069
1.70561
1.7006
1.69567
1.69075
1.68576
1.68077
1.67578
1.67078
1.6658
1.66084
1.65591
1.65101
1.64615
1.64133
1.63656
1.63183
1.62719
1.77415
1.76829
1.76248
1.75671
1.751
1.74534
1.73975
1.73433
1.7291
1.72409
1.71923
1.71433
1.70925
1.70406
1.69892
1.69383
1.68875
1.68364
1.67853
1.67342
1.66833
1.66326
1.65822
1.65321
1.64823
1.64328
1.63837
1.63349
1.62864
1.62386
1.77415
1.76829
1.76248
1.75672
1.751
1.74535
1.73977
1.73438
1.72921
1.72431
1.71961
1.71491
1.70999
1.70493
1.69987
1.69483
1.68978
1.68467
1.67958
1.67449
1.6694
1.66434
1.6593
1.6543
1.64932
1.64438
1.63946
1.63458
1.62974
1.62496
1.77415
1.7683
1.76248
1.75672
1.75101
1.74537
1.73982
1.73449
1.72945
1.7248
1.7205
1.71627
1.71176
1.707
1.70213
1.6972
1.69221
1.68713
1.68206
1.67699
1.67192
1.66687
1.66185
1.65685
1.65189
1.64695
1.64205
1.63718
1.63235
1.62757
1.77415
1.7683