/*--------------------------------*- C++ -*----------------------------------*\
| =========                 |                                                 |
| \\      /  F ield         | OpenFOAM: The Open Source CFD Toolbox           |
|  \\    /   O peration     | Version:  2512                                  |
|   \\  /    A nd           | Website:  www.openfoam.com                      |
|    \\/     M anipulation  |                                                 |
\*---------------------------------------------------------------------------*/
FoamFile
{
    version     2.0;
    format      ascii;
    arch        "LSB;label=32;scalar=64";
    class       volScalarField;
    location    "240";
    object      p;
}
// * * * * * * * * * * * * * * * * * * * * * * * * * * * * * * * * * * * * * //

dimensions      [0 2 -2 0 0 0 0];

internalField   nonuniform List<scalar> 
84826
(
3.43432
3.44012
3.45105
3.45791
3.44132
3.36838
3.18564
2.8119
2.14215
1.07086
-0.432816
-2.22227
-3.81383
-4.56021
-4.24529
-3.27821
-2.25948
-1.54384
-1.13553
-0.893176
-0.72772
-0.609054
-0.510351
-0.407011
-0.296687
-0.193872
-0.111326
-0.053859
-0.0153026
-0.00516929
3.44479
3.45303
3.47036
3.48883
3.49084
3.44568
3.30072
2.97001
2.33273
1.24807
-0.355956
-2.36653
-4.17716
-4.95883
-4.50244
-3.34651
-2.20158
-1.45924
-1.07422
-0.852633
-0.695964
-0.580777
-0.483348
-0.382042
-0.277373
-0.183113
-0.108812
-0.0559438
-0.0159125
0.00217226
3.46473
3.47775
3.50756
3.54886
3.58804
3.59966
3.53437
3.29899
2.74193
1.64572
-0.160933
-2.6716
-4.97382
-5.81894
-5.04843
-3.47066
-2.05188
-1.27167
-0.954868
-0.788923
-0.658664
-0.551229
-0.447339
-0.336509
-0.232983
-0.155084
-0.10698
-0.0811497
-0.0585268
-0.0381563
3.49243
3.51229
3.56006
3.63469
3.72951
3.82917
3.89368
3.8258
3.43164
2.36289
0.245467
-3.18622
-6.34342
-7.25289
-5.95484
-3.62481
-1.72927
-0.921538
-0.739908
-0.671871
-0.595481
-0.510419
-0.392311
-0.24545
-0.11193
-0.0278203
0.0019958
-0.00362081
-0.0161668
-0.0228028
3.52536
3.55367
3.62375
3.74065
3.90848
4.12929
4.38451
4.58738
4.50269
3.58878
1.05173
-4.06519
-8.5845
-9.44093
-7.34328
-3.74748
-1.13141
-0.389161
-0.447913
-0.514297
-0.51905
-0.494465
-0.396161
-0.230414
-0.0643995
0.0422199
0.074889
0.0552572
0.0226076
-0.00699616
3.5604
3.59806
3.69314
3.85857
4.1137
4.48825
5.00578
5.62465
6.09683
5.64494
2.65177
-5.47453
-12.1814
-12.8021
-9.44791
-3.56857
-0.0181995
0.376495
-0.0800979
-0.283212
-0.337037
-0.356529
-0.28924
-0.137607
0.0244762
0.130451
0.161079
0.13799
0.0961162
0.0527526
3.59406
3.64109
3.76147
3.97743
4.3277
4.88176
5.73714
6.96572
8.40699
9.03151
5.56898
-7.60094
-17.1279
-18.2659
-12.8553
-2.35252
2.00679
1.36123
0.220205
-0.17044
-0.260037
-0.277139
-0.194946
-0.0460371
0.0889166
0.159477
0.163876
0.133504
0.0875085
0.084266
3.62283
3.67821
3.82135
4.08382
4.52593
5.26579
6.51193
8.55961
11.641
14.8644
10.8974
-5.86214
-20.6922
-24.9196
-19.1454
1.14724
5.90957
3.29998
1.18883
0.491681
0.223551
0.118267
0.184387
0.308399
0.367229
0.330494
0.235076
0.145108
0.0160928
0.10227
3.64359
3.70526
3.86562
4.16393
4.67945
5.5759
7.19085
10.1439
15.6145
24.1687
24.36
-12.8691
-22.5384
-47.7414
-28.5297
3.3825
7.2847
2.2012
-0.657689
-1.3386
-1.46295
-1.27592
-0.808857
-0.325044
-0.035086
0.0460966
0.0151911
-0.0189036
-0.160442
0.116492
3.65399
3.71897
3.8884
4.20582
4.76134
5.74574
7.57926
11.1383
18.5674
33.559
48.3872
-3.64836
-55.1994
-52.5085
-19.5786
11.6188
14.6533
7.36778
3.19112
1.68957
0.921463
0.719612
1.01976
1.41317
1.58312
1.50136
1.29808
1.10776
0.802654
0.779983
3.65281
3.71771
3.88673
4.20332
4.75741
5.74035
7.57196
11.1241
18.535
33.4819
55.6038
18.42
-40.5904
-21.0909
10.1472
13.4032
6.64279
2.72232
1.19313
0.256334
-0.0726155
0.205955
0.662786
0.923235
0.921649
0.780604
0.648322
0.38793
0.436033
3.64007
3.70156
3.86106
4.15766
4.67041
5.56283
7.17031
10.1044
15.5299
23.9939
35.7192
-2.72173
-25.2508
-46.067
-28.3498
0.892094
4.81629
1.13891
-0.717648
-1.10791
-1.35814
-1.29601
-0.806137
-0.18254
0.254979
0.420177
0.4147
0.341012
0.343342
0.0863358
3.6171
3.67227
3.8142
4.0744
4.51295
5.24679
6.48152
8.50569
11.5434
14.6999
16.838
-7.53983
-21.1669
-32.2594
-17.7029
-0.370699
3.52372
1.93485
0.91217
0.653857
0.334597
0.104574
0.174424
0.427931
0.642227
0.707413
0.663477
0.546373
0.625287
0.0896676
3.58633
3.63312
3.75198
3.96499
4.31073
4.85774
5.70137
6.90982
8.3224
8.92161
5.54046
-7.51483
-17.1888
-18.1138
-12.2561
-2.97293
0.571908
0.246362
-0.230954
-0.238428
-0.291563
-0.397436
-0.355264
-0.165109
0.0405681
0.164228
0.191896
0.151335
0.140001
-0.0811433
3.55094
3.58834
3.68166
3.84379
4.0941
4.46172
4.96886
5.57279
6.028
5.56768
2.6003
-5.46967
-12.1802
-12.6924
-9.03015
-3.54509
-0.574188
-0.223173
-0.344398
-0.209941
-0.103574
-0.114048
-0.0937451
0.017248
0.160516
0.260839
0.285816
0.251296
0.199728
0.0825739
3.51448
3.54254
3.61074
3.72413
3.88712
4.10152
4.34819
4.54043
4.44564
3.52675
0.996338
-4.10012
-8.61628
-9.41901
-7.17274
-3.73344
-1.48756
-0.887271
-0.790631
-0.593248
-0.413702
-0.35053
-0.314664
-0.234408
-0.12464
-0.0345904
0.0061769
0.0043646
-0.00839508
-0.0350938
3.48045
3.5001
3.54592
3.61695
3.70706
3.80098
3.85861
3.78301
3.38198
2.30961
0.193635
-3.23201
-6.38705
-7.26799
-5.89699
-3.61989
-1.91463
-1.20435
-0.932356
-0.675679
-0.451694
-0.331251
-0.265433
-0.190191
-0.0970468
-0.0123456
0.0413995
0.0639401
0.0690061
0.0455837
3.45201
3.46483
3.49266
3.53033
3.56494
3.5714
3.50048
3.25921
2.69694
1.59786
-0.208848
-2.71811
-5.02031
-5.84987
-5.04091
-3.47829
-2.15554
-1.44173
-1.08972
-0.819601
-0.594893
-0.452834
-0.36757
-0.289787
-0.202476
-0.118369
-0.0550076
-0.0177442
-0.000227164
-0.00515669
3.43165
3.43971
3.45502
3.46982
3.46736
3.41742
3.26763
2.93212
2.29045
1.20298
-0.401887
-2.41283
-4.22465
-4.99732
-4.51905
-3.36628
-2.27475
-1.58184
-1.18812
-0.901735
-0.665631
-0.496167
-0.381601
-0.286903
-0.19403
-0.108531
-0.0434934
-0.00417611
0.0138231
0.00868763
3.42114
3.42674
3.43562
3.43881
3.4178
3.34028
3.15314
2.77518
2.10146
1.02718
-0.477717
-2.26815
-3.86111
-4.60101
-4.27032
-3.30277
-2.32061
-1.6452
-1.23477
-0.938887
-0.696508
-0.515358
-0.3898
-0.291932
-0.203417
-0.125723
-0.0682084
-0.0342106
-0.0174616
-0.0141585
3.42521
3.43028
3.43944
3.44329
3.42248
3.34438
3.15634
2.77907
2.11057
1.04836
-0.435315
-2.19272
-3.75014
-4.47654
-4.16423
-3.22251
-2.23859
-1.54658
-1.14504
-0.90145
-0.733575
-0.612632
-0.512056
-0.407891
-0.297633
-0.19522
-0.112893
-0.055379
-0.0156622
-0.00558591
3.43551
3.44296
3.45838
3.47351
3.47072
3.41941
3.26754
2.93103
2.29269
1.2167
-0.364344
-2.3342
-4.10219
-4.85759
-4.40276
-3.2798
-2.18099
-1.46698
-1.08766
-0.863566
-0.704401
-0.587128
-0.487767
-0.385145
-0.279854
-0.185266
-0.110822
-0.0580319
-0.0176993
-0.000711085
3.45511
3.46719
3.49477
3.53205
3.56516
3.56846
3.49283
3.24659
2.68296
1.59353
-0.184198
-2.63368
-4.87657
-5.68013
-4.90408
-3.3789
-2.03567
-1.29402
-0.977953
-0.803761
-0.668792
-0.559323
-0.454379
-0.342802
-0.237825
-0.157725
-0.107132
-0.0791856
-0.0552977
-0.0371773
3.48237
3.50107
3.54615
3.61575
3.70255
3.79039
3.83866
3.7507
3.33878
2.27165
0.192952
-3.14529
-6.22097
-7.05062
-5.72122
-3.48664
-1.72719
-0.973892
-0.783718
-0.699556
-0.615786
-0.529023
-0.412009
-0.266467
-0.131533
-0.0424311
-0.00498157
-0.00216805
-0.00661278
-0.010759
3.51479
3.54162
3.6084
3.71899
3.87616
4.08002
4.30972
4.47692
4.35398
3.42773
0.948573
-4.04166
-8.46313
-9.1243
-6.9288
-3.55131
-1.19699
-0.510137
-0.520694
-0.549896
-0.542984
-0.520091
-0.431267
-0.277837
-0.121066
-0.0174914
0.0188877
0.00748095
-0.0132478
-0.0300691
3.54927
3.58511
3.67604
3.83361
4.07491
4.42568
4.90404
5.46242
5.86114
5.3696
2.45867
-5.57281
-12.2365
-12.2586
-8.62149
-3.24222
-0.23126
0.0835332
-0.263828
-0.383022
-0.39021
-0.381008
-0.298259
-0.143967
0.013485
0.113288
0.140811
0.117774
0.0805645
0.0404964
3.58239
3.62729
3.74268
3.94868
4.28137
4.8036
5.60164
6.73611
8.04607
8.61101
5.22867
-8.24202
-17.9101
-17.3141
-11.6131
-2.07798
1.65822
1.02252
-0.015657
-0.401197
-0.504742
-0.508886
-0.396381
-0.217602
-0.0596245
0.0272032
0.0458006
0.0258288
0.000954018
0.00770482
3.6107
3.66366
3.80115
4.05176
4.47158
5.16928
6.33596
8.25121
11.1459
14.3541
11.4177
-7.06436
-22.489
-22.6082
-17.1524
-0.376886
4.11417
2.37715
0.718815
0.0651929
-0.235162
-0.32791
-0.225907
-0.0607446
0.0348912
0.027449
-0.0419191
-0.117072
-0.188677
-0.13026
3.63113
3.69015
3.84432
4.12955
4.61898
5.46228
6.97294
9.74474
15.0252
24.2572
26.9198
-9.57249
-28.1216
-36.5608
-20.6959
2.74972
5.15672
1.16349
-1.25617
-1.98489
-2.16856
-1.96498
-1.45191
-0.905095
-0.546802
-0.402733
-0.377434
-0.377607
-0.414206
-0.198706
3.64136
3.70359
3.86659
4.1703
4.69809
5.62472
7.33512
10.6657
17.9216
35.133
62.4099
-50.6685
-82.1413
-73.3215
-16.1067
11.9102
12.0553
5.53647
1.88428
0.48491
-0.20525
-0.304128
0.0800319
0.553222
0.807167
0.806381
0.675868
0.540711
0.336713
0.335467
3.64018
3.70236
3.86502
4.16798
4.69441
5.61947
7.32786
10.6523
17.8911
35.0436
73.6593
-54.2382
-15.7905
11.7475
11.877
5.40509
1.78035
0.34344
-0.45513
-0.638215
-0.2969
0.190051
0.47695
0.503815
0.392747
0.27926
0.103394
0.103316
3.62763
3.68649
3.84012
4.12401
4.61013
5.4492
6.95281
9.70705
14.9423
24.0443
42.2675
-35.3009
-53.3902
-74.5305
-18.2036
2.9477
4.84782
1.25351
-0.636715
-1.09527
-1.31248
-1.18073
-0.740948
-0.186246
0.192434
0.322551
0.297402
0.234198
0.202157
-0.0403222
3.60502
3.65781
3.79425
4.04283
4.45875
5.15045
6.30628
8.19923
11.0489
14.1641
17.6158
-11.9532
-27.2635
-28.8746
-15.5831
-0.76082
2.7663
1.37035
0.444312
0.287153
0.138188
0.0580128
0.169749
0.412649
0.598443
0.644803
0.589811
0.48423
0.499519
0.099632
3.57471
3.61943
3.73329
3.93638
4.26462
4.78006
5.56689
6.68213
7.96246
8.48914
5.12193
-8.38368
-18.1549
-17.3132
-11.0442
-2.38139
0.713826
0.296905
-0.196737
-0.218693
-0.257046
-0.35094
-0.328672
-0.181378
-0.0170372
0.085093
0.103554
0.0686112
0.0450938
-0.104366
3.53986
3.57548
3.66468
3.819
4.05561
4.39968
4.86803
5.41213
5.79358
5.28833
2.38126
-5.64521
-12.3195
-12.2335
-8.30443
-3.21775
-0.612366
-0.299164
-0.380135
-0.249852
-0.157423
-0.172583
-0.152851
-0.0466022
0.0949909
0.202721
0.237613
0.217153
0.176999
0.0804811
3.50396
3.53059
3.59549
3.70263
3.85507
4.05272
4.27414
4.4311
4.29798
3.36457
0.884253
-4.10157
-8.5232
-9.13391
-6.80358
-3.54518
-1.4743
-0.892465
-0.779775
-0.601799
-0.448006
-0.391768
-0.347781
-0.256953
-0.13782
-0.0400047
0.00507012
0.00694481
-0.00741064
-0.033631
3.47045
3.48896
3.53211
3.59816
3.68035
3.7626
3.80414
3.70865
3.28979
2.21805
0.137951
-3.19943
-6.27418
-7.07754
-5.68397
-3.4964
-1.89688
-1.22213
-0.951767
-0.703449
-0.487896
-0.363705
-0.285517
-0.198685
-0.0990752
-0.0127878
0.0388053
0.0584762
0.0589223
0.0362743
3.44245
3.45436
3.47996
3.51364
3.54226
3.54049
3.45929
3.20725
2.63833
1.54543
-0.233691
-2.68388
-4.92726
-5.71667
-4.90693
-3.39713
-2.13852
-1.45221
-1.10034
-0.829153
-0.60573
-0.46165
-0.371483
-0.290039
-0.202208
-0.120257
-0.0601842
-0.0253793
-0.00938614
-0.0105108
3.42244
3.42973
3.44312
3.45461
3.44739
3.39136
3.23468
2.89341
2.25061
1.1714
-0.41129
-2.3825
-4.15186
-4.89896
-4.42444
-3.30588
-2.25616
-1.58556
-1.19532
-0.909207
-0.675397
-0.507442
-0.392436
-0.296779
-0.20358
-0.118402
-0.0537154
-0.0138012
0.00546448
0.00518361
3.41207
3.41697
3.42409
3.42426
3.39906
3.31642
3.12395
2.74249
2.0699
1.00442
-0.481128
-2.2401
-3.79895
-4.51904
-4.19222
-3.25125
-2.302
-1.64652
-1.24093
-0.945607
-0.704942
-0.525242
-0.399368
-0.300168
-0.210255
-0.131448
-0.0729628
-0.0375736
-0.019824
-0.013793
3.40651
3.40985
3.41479
3.41171
3.38138
3.29153
3.09072
2.7029
2.03241
0.984759
-0.459533
-2.15117
-3.63918
-4.32912
-4.0302
-3.14148
-2.21867
-1.56226
-1.16706
-0.917437
-0.742618
-0.61584
-0.51113
-0.405477
-0.295741
-0.194241
-0.112232
-0.0543761
-0.0131002
-0.00316086
3.4165
3.42208
3.43295
3.44052
3.42706
3.36207
3.19445
2.84316
2.19812
1.13399
-0.404851
-2.29408
-3.97674
-4.68531
-4.24521
-3.18833
-2.16645
-1.49228
-1.11496
-0.881116
-0.714046
-0.590796
-0.486915
-0.38187
-0.275662
-0.180874
-0.106397
-0.0537934
-0.0136751
0.00071673
3.43545
3.4454
3.46778
3.4962
3.51627
3.50176
3.40366
3.13327
2.55179
1.46576
-0.263039
-2.59537
-4.71587
-5.45247
-4.68922
-3.26328
-2.03583
-1.34072
-1.01213
-0.817291
-0.671714
-0.557918
-0.451384
-0.338902
-0.231752
-0.147848
-0.0928375
-0.0609737
-0.03556
-0.0224909
3.46179
3.47799
3.51693
3.57575
3.64586
3.7093
3.72387
3.59435
3.14141
2.06021
0.0410152
-3.11495
-6.01064
-6.72995
-5.39296
-3.32847
-1.76676
-1.06503
-0.830856
-0.704566
-0.60285
-0.513405
-0.40297
-0.266167
-0.136211
-0.045161
-0.000605418
0.011556
0.0148673
0.00924136
3.49311
3.51698
3.57644
3.6737
3.8092
3.97913
4.15778
4.25379
4.04788
3.06914
0.652248
-4.01932
-8.18889
-8.6392
-6.36297
-3.31303
-1.31496
-0.668609
-0.575344
-0.530485
-0.491338
-0.457637
-0.375703
-0.239149
-0.0992638
-0.00492437
0.0316233
0.0270825
0.0138744
-0.00281654
3.5264
3.55873
3.64108
3.78232
3.99564
4.29969
4.70168
5.14159
5.38421
4.75182
1.87466
-5.63851
-11.9459
-11.5137
-7.56608
-2.86156
-0.465343
-0.145082
-0.316079
-0.35376
-0.338402
-0.315867
-0.23183
-0.0890998
0.0506809
0.135676
0.156836
0.134809
0.100319
0.057122
3.55838
3.59917
3.70454
3.89123
4.18889
4.64849
5.33457
6.28009
7.30684
7.54404
4.11659
-8.50173
-17.9636
-15.9348
-9.535
-1.7085
1.22961
0.889814
0.177499
-0.13696
-0.262885
-0.281301
-0.182979
-0.0236106
0.11004
0.170913
0.167141
0.128294
0.0863819
0.0493731
3.5857
3.63399
3.75985
3.98818
4.36663
4.98528
5.99726
7.62538
10.0145
12.5112
9.73389
-8.0664
-24.8674
-21.2252
-11.516
-0.349143
2.8323
1.91734
0.826632
0.290089
0.00569532
-0.0411546
0.100238
0.300727
0.423753
0.43075
0.362952
0.275805
0.190835
0.127605
3.6054
3.65939
3.80073
4.06052
4.50186
5.25229
6.56838
8.94224
13.4113
21.1255
24.1517
-11.7681
-41.8103
-32.6295
-7.28038
4.72286
5.36737
2.71796
0.831782
-0.0778038
-0.558752
-0.603579
-0.324924
0.0357658
0.260373
0.305795
0.248341
0.171518
0.0981746
0.0790032
3.61525
3.67226
3.82195
4.09851
4.57324
5.39573
6.88501
9.74271
15.9726
30.8023
59.7462
-59.5967
-80.9239
-67.4628
-1.80055
11.9155
10.0968
5.5259
2.63797
1.23908
0.409241
0.165919
0.378645
0.717247
0.900748
0.874723
0.735706
0.593504
0.419902
0.330079
3.61409
3.67105
3.82039
4.09694
4.57293
5.39465
6.87903
9.73065
15.943
30.7072
70.8781
-85.8127
-1.15623
12.4065
10.3057
5.55283
2.65854
1.31024
0.503673
0.243985
0.392687
0.682647
0.831418
0.777671
0.621727
0.473418
0.317661
0.215273
3.60197
3.65593
3.79702
4.0563
4.49621
5.24272
6.54993
8.90723
13.3321
20.9067
39.2542
-45.5341
-76.4351
-61.2573
-6.8796
4.96003
5.2646
2.4585
0.756927
0.14297
-0.1804
-0.201306
0.00934238
0.326891
0.527156
0.544893
0.464286
0.372873
0.309552
0.109312
3.58011
3.62836
3.75343
3.97991
4.35438
4.96706
5.96899
7.57683
9.92184
12.3146
15.2707
-14.4291
-33.2694
-26.1586
-10.4824
0.104213
2.52481
1.37586
0.528334
0.343363
0.24901
0.208778
0.292331
0.455475
0.569333
0.573629
0.509053
0.421928
0.371718
0.153823
3.5508
3.59146
3.69532
3.87918
4.17265
4.62609
5.30194
6.22955
7.22663
7.41506
3.95368
-8.76591
-18.1814
-15.9354
-9.06515
-1.81831
0.551805
0.194718
-0.184312
-0.164133
-0.140891
-0.178117
-0.150243
-0.0416528
0.0759929
0.142654
0.146999
0.111552
0.0719598
-0.0336814
3.51711
3.54924
3.6299
3.76803
3.97691
4.2747
4.66734
5.09379
5.31897
4.66748
1.7751
-5.76893
-12.051
-11.5037
-7.33799
-2.86073
-0.746668
-0.431904
-0.41423
-0.261219
-0.161571
-0.159153
-0.134677
-0.0399633
0.0852866
0.182341
0.21687
0.204396
0.166677
0.0867067
3.48241
3.5061
3.56373
3.65764
3.78861
3.95266
4.1235
4.20975
3.99352
3.00518
0.579869
-4.10137
-8.26072
-8.65711
-6.27697
-3.31213
-1.50346
-0.930473
-0.76277
-0.584827
-0.446414
-0.386713
-0.331338
-0.232075
-0.110546
-0.0128976
0.0317714
0.0338873
0.0141469
-0.0160954
3.45001
3.46605
3.50308
3.55844
3.6241
3.68218
3.69032
3.55349
3.09349
2.00655
-0.0168102
-3.17716
-6.06967
-6.7623
-5.3731
-3.3421
-1.898
-1.25912
-0.974682
-0.7317
-0.526818
-0.397194
-0.30368
-0.203365
-0.0975543
-0.0109368
0.0372574
0.0529766
0.0481424
0.0269115
3.42293
3.43273
3.45316
3.47805
3.49375
3.47433
3.37081
3.09475
2.50786
1.41766
-0.313799
-2.64897
-4.76936
-5.49287
-4.70078
-3.28728
-2.12655
-1.47516
-1.11792
-0.843217
-0.620188
-0.469985
-0.369202
-0.279794
-0.18973
-0.110258
-0.0548692
-0.0239314
-0.0105455
-0.0091061
3.40357
3.409
3.41786
3.42183
3.40403
3.33442
3.16201
2.80598
2.15641
1.08857
-0.452814
-2.3444
-4.02835
-4.72934
-4.27233
-3.21963
-2.23803
-1.59801
-1.20865
-0.919849
-0.687039
-0.5185
-0.400249
-0.301918
-0.208401
-0.124528
-0.0613086
-0.0215056
-0.0010656
0.00355516
3.39352
3.3967
3.39959
3.39286
3.3582
3.26387
3.05862
2.66657
1.99195
0.940715
-0.506144
-2.20001
-3.68937
-4.37344
-4.06204
-3.17463
-2.28119
-1.65412
-1.25246
-0.955731
-0.716311
-0.537302
-0.409468
-0.307424
-0.215481
-0.135251
-0.0752629
-0.0377822
-0.0183067
-0.00969784
3.37923
3.37995
3.37842
3.36491
3.32039
3.2131
2.9933
2.58916
1.9143
0.887222
-0.499046
-2.09355
-3.48084
-4.12258
-3.85265
-3.04272
-2.20024
-1.58742
-1.20022
-0.944299
-0.76192
-0.628654
-0.519571
-0.412816
-0.304339
-0.204298
-0.122446
-0.063461
-0.0195319
-0.00713362
3.38872
3.39151
3.39545
3.3917
3.36246
3.27737
3.08659
2.71337
2.05774
1.01068
-0.465066
-2.23399
-3.7899
-4.4429
-4.0409
-3.0824
-2.15842
-1.53114
-1.15644
-0.912527
-0.737459
-0.60813
-0.499783
-0.392695
-0.286042
-0.191166
-0.116018
-0.0624947
-0.0212191
-0.00628167
3.40672
3.41353
3.42808
3.44338
3.44443
3.40425
3.27404
2.96901
2.36182
1.28331
-0.373645
-2.53252
-4.46571
-5.1281
-4.42237
-3.14354
-2.05581
-1.41023
-1.06789
-0.852771
-0.697936
-0.58086
-0.473625
-0.360898
-0.251679
-0.162927
-0.101574
-0.0636716
-0.0343983
-0.0216613
3.43172
3.44429
3.47408
3.51711
3.56323
3.59209
3.5595
3.37222
2.86385
1.76451
-0.171533
-3.04347
-5.64618
-6.26327
-5.00643
-3.19047
-1.85512
-1.20261
-0.919299
-0.750742
-0.631973
-0.540259
-0.437431
-0.311447
-0.187324
-0.093556
-0.0393351
-0.0150373
-0.000841353
4.65058e-05
3.46144
3.48109
3.52971
3.60771
3.71246
3.83505
3.9431
3.94246
3.62386
2.56936
0.240465
-3.899
-7.59282
-7.94106
-5.75575
-3.14329
-1.52009
-0.914444
-0.725471
-0.614816
-0.541784
-0.489161
-0.406459
-0.282942
-0.156902
-0.0681319
-0.0267528
-0.0202051
-0.0214129
-0.025995
3.49302
3.52047
3.59015
3.70804
3.88215
4.12181
4.41979
4.70006
4.7255
3.88451
1.05843
-5.39817
-10.8915
-10.3815
-6.59869
-2.78429
-0.919383
-0.52352
-0.521008
-0.495733
-0.458651
-0.411273
-0.312126
-0.168408
-0.0339016
0.0483423
0.074905
0.062979
0.0408995
0.0147548
3.52332
3.55856
3.64944
3.80867
4.05766
4.43173
4.968
5.65315
6.27569
5.98505
2.50283
-7.87885
-16.1566
-13.7557
-7.57999
-2.03658
0.107937
0.18114
-0.139968
-0.337242
-0.44057
-0.444371
-0.337663
-0.176279
-0.0418419
0.0208775
0.0236106
-0.00833467
-0.040839
-0.0580177
3.54919
3.59131
3.70105
3.89815
4.21904
4.73107
5.53685
6.75968
8.36945
9.55957
6.91559
-7.7224
-23.3717
-19.1245
-7.69276
-1.21402
0.853766
0.726295
0.248459
-0.0761911
-0.266965
-0.268013
-0.107606
0.109425
0.256927
0.291338
0.247524
0.173473
0.10291
0.0439592
3.56781
3.61505
3.73893
3.96491
4.34126
4.968
6.02821
7.83766
10.9003
15.1467
16.3589
-10.4769
-40.8222
-28.4749
-3.93214
1.70523
2.27177
1.24436
0.247668
-0.421799
-0.815198
-0.868637
-0.654171
-0.342991
-0.123606
-0.0521266
-0.0767403
-0.128937
-0.167627
-0.151362
3.57712
3.62705
3.75822
3.99877
4.40376
5.09055
6.29891
8.50442
12.7973
20.8329
35.041
-34.8179
-83.6565
-53.2997
-1.58123
4.66678
4.42554
2.762
1.34904
0.469788
-0.102103
-0.264272
-0.0863355
0.20993
0.406699
0.43546
0.360428
0.265569
0.171055
0.108201
3.576
3.62601
3.75694
3.99713
4.40402
5.09159
6.29419
8.49372
12.7706
20.7475
40.5034
-25.196
-95.7308
-67.9411
-1.02034
5.09164
4.61698
2.79937
1.37421
0.545327
0.00117263
-0.194215
-0.0904656
0.137394
0.286465
0.286686
0.203513
0.117755
0.035822
0.00845567
3.56446
3.61182
3.73519
3.95993
4.3359
4.96029
6.0116
7.80629
10.8308
14.9626
24.4542
-24.21
-73.2827
-54.425
-4.62489
1.4731
2.11819
1.05764
0.210512
-0.171418
-0.383661
-0.414204
-0.268018
-0.0373602
0.122106
0.159793
0.126026
0.0803327
0.0495932
-0.0164689
3.5437
3.58577
3.69451
3.88956
4.20699
4.71366
5.51065
6.7161
8.28809
9.38636
10.4889
-12.3862
-30.6121
-22.3347
-7.27891
-0.761225
0.938825
0.524526
0.0773135
-0.0240827
-0.0509828
-0.0461785
0.0369445
0.172424
0.272086
0.295711
0.267634
0.223867
0.184256
0.0921836
3.51589
3.55098
3.64041
3.79694
4.04209
4.41066
4.9379
5.60726
6.20299
5.86561
2.33981
-8.1178
-16.2633
-13.7613
-7.28316
-2.00345
-0.275995
-0.343143
-0.492454
-0.404204
-0.31438
-0.281719
-0.225928
-0.125491
-0.0229906
0.0403614
0.0580227
0.04551
0.0224083
-0.0278601
3.48391
3.51118
3.57923
3.69416
3.86414
4.09805
4.38756
4.65558
4.66462
3.80319
0.95554
-5.53397
-10.9758
-10.3802
-6.47044
-2.80881
-1.15322
-0.775431
-0.622754
-0.416137
-0.275626
-0.227227
-0.182974
-0.0944067
0.0142758
0.100201
0.137768
0.136822
0.109999
0.0569547
3.45095
3.47042
3.51729
3.59209
3.69257
3.80969
3.91053
3.90081
3.57208
2.50705
0.166711
-3.98778
-7.66144
-7.96317
-5.71585
-3.15988
-1.65463
-1.09062
-0.847882
-0.644093
-0.498259
-0.422535
-0.355155
-0.254781
-0.138051
-0.0432391
0.0049048
0.013721
-0.000725419
-0.0210562
3.42017
3.43258
3.46052
3.50022
3.54211
3.56591
3.52723
3.33302
2.81753
1.71176
-0.22983
-3.10846
-5.70492
-6.29974
-5.00732
-3.21206
-1.95537
-1.35058
-1.04089
-0.794166
-0.59399
-0.456064
-0.347702
-0.23649
-0.125894
-0.0377222
0.011779
0.0289074
0.0256231
0.0122478
3.39443
3.4011
3.41374
3.42563
3.42247
3.37758
3.24212
2.93157
2.31893
1.23561
-0.425047
-2.58806
-4.52083
-5.17189
-4.44455
-3.17398
-2.13463
-1.52317
-1.16125
-0.883376
-0.659874
-0.500986
-0.386691
-0.287314
-0.194012
-0.115803
-0.0631785
-0.0341331
-0.0208366
-0.0146333
3.37604
3.37867
3.38064
3.37338
3.33994
3.25036
3.05488
2.67698
2.01675
0.965576
-0.513458
-2.28565
-3.84279
-4.48909
-4.07399
-3.11871
-2.22513
-1.62325
-1.23717
-0.946564
-0.714176
-0.542832
-0.418681
-0.315991
-0.221802
-0.139606
-0.0778103
-0.0376096
-0.014722
-0.0036825
3.36647
3.36703
3.36348
3.34639
3.29766
3.18598
2.96176
2.55334
1.87424
0.843182
-0.546262
-2.14363
-3.53221
-4.16905
-3.88945
-3.08074
-2.26074
-1.66935
-1.27429
-0.977546
-0.739796
-0.56059
-0.429362
-0.323495
-0.229313
-0.147907
-0.0862987
-0.0460085
-0.0232814
-0.0105237
3.34485
3.3424
3.33288
3.30656
3.24488
3.1169
2.87535
2.45461
1.77904
0.781938
-0.530759
-2.00786
-3.27586
-3.86687
-3.63935
-2.92362
-2.16948
-1.60449
-1.22855
-0.968974
-0.780241
-0.640569
-0.526731
-0.418455
-0.310806
-0.211834
-0.12972
-0.0690819
-0.0225053
-0.00773033
3.35373
3.35313
3.34853
3.33088
3.28256
3.17364
2.95632
2.56031
1.89768
0.878624
-0.514058
-2.13716
-3.54098
-4.1382
-3.79635
-2.95627
-2.13702
-1.55948
-1.19098
-0.94013
-0.758175
-0.622661
-0.509469
-0.399997
-0.292635
-0.197095
-0.120509
-0.0651213
-0.0222687
-0.0068637
3.37054
3.37355
3.37846
3.37771
3.35584
3.28533
3.11826
2.77621
2.14684
1.08997
-0.466498
-2.41182
-4.11695
-4.71183
-4.10989
-3.00713
-2.06029
-1.4638
-1.11312
-0.882004
-0.717709
-0.595172
-0.485487
-0.3721
-0.261302
-0.168433
-0.101017
-0.0572153
-0.0244674
-0.0128629
3.39388
3.40207
3.42059
3.44437
3.46168
3.44987
3.36332
3.11368
2.55282
1.45464
-0.355513
-2.86893
-5.10303
-5.64773
-4.57376
-3.04591
-1.91815
-1.30771
-0.987561
-0.785007
-0.647567
-0.547275
-0.445991
-0.327443
-0.208133
-0.112421
-0.0502502
-0.0163436
0.00524191
0.00757716
3.4216
3.43613
3.47146
3.52604
3.59401
3.66124
3.68969
3.58454
3.15387
2.04639
-0.117181
-3.59644
-6.68078
-7.02047
-5.14815
-3.0034
-1.67248
-1.08573
-0.824409
-0.662695
-0.5565
-0.480587
-0.391976
-0.277174
-0.161276
-0.0753934
-0.0284898
-0.0121461
-0.00532123
-0.00825303
3.45103
3.47257
3.5266
3.61612
3.74361
3.90845
4.08915
4.19625
4.00113
2.97696
0.353336
-4.77195
-9.20102
-8.94815
-5.79147
-2.8095
-1.2678
-0.762502
-0.618762
-0.537272
-0.472938
-0.403017
-0.296352
-0.160365
-0.0364891
0.040871
0.0703469
0.0662142
0.0518094
0.0289768
3.47926
3.50778
3.58064
3.7062
3.89739
4.17286
4.54162
4.94589
5.15009
4.38783
1.19002
-6.68293
-13.1862
-11.4201
-6.26288
-2.40831
-0.677611
-0.246527
-0.257071
-0.331059
-0.384909
-0.367145
-0.259978
-0.107722
0.0190216
0.0799318
0.0853537
0.0571168
0.0262418
0.000455884
3.50333
3.53807
3.62764
3.78603
4.03817
4.42577
5.00185
5.78912
6.62017
6.53625
2.65859
-9.94788
-19.6212
-14.7549
-6.21401
-1.79478
-0.130967
0.210858
0.103491
-0.0713762
-0.209654
-0.218178
-0.0912434
0.0963536
0.238483
0.28699
0.262866
0.204888
0.146316
0.0865643
3.52065
3.55998
3.66204
3.84531
4.14523
4.62723
5.3939
6.58739
8.23223
9.59946
8.22252
-9.91435
-29.3651
-20.9143
-5.54117
-0.514653
0.885924
0.836988
0.407618
0.00534745
-0.285382
-0.368398
-0.250517
-0.0350163
0.133785
0.190838
0.160385
0.0992626
0.0474957
0.0145833
3.52926
3.571
3.67961
3.87557
4.19962
4.73243
5.61463
7.08178
9.3882
12.2274
14.6772
-14.6712
-44.2822
-27.722
-5.95004
0.423562
2.02952
1.75816
1.07057
0.493813
0.070084
-0.106553
-0.0347174
0.163862
0.323887
0.365964
0.318107
0.244314
0.175066
0.107127
3.52816
3.56994
3.67858
3.87463
4.19893
4.73056
5.60975
7.07233
9.36663
12.1691
16.1958
-15.983
-47.7394
-30.2337
-5.61047
0.578468
2.10061
1.797
1.10361
0.53698
0.122031
-0.0736762
-0.0388652
0.120864
0.254749
0.286793
0.240393
0.175887
0.116174
0.0647958
3.51737
3.55669
3.65845
3.8411
4.13931
4.61787
5.3786
6.56065
8.17774
9.46975
10.9353
-13.7654
-36.2325
-24.2767
-5.93135
-0.774078
0.719492
0.692008
0.307197
0.0136391
-0.18516
-0.256334
-0.177626
-0.0134242
0.124606
0.178208
0.165253
0.132941
0.101006
0.0526352
3.49798
3.53259
3.62127
3.77787
4.02678
4.40988
4.97871
5.7521
6.55464
6.40689
2.44435
-10.2679
-19.6404
-14.9173
-6.1349
-1.57494
-0.0175414
0.160986
0.0166971
-0.0550293
-0.0857996
-0.0852779
-0.0198661
0.0928506
0.189014
0.228354
0.220039
0.194305
0.160848
0.101756
3.47203
3.5004
3.57194
3.69506
3.88284
4.15345
4.51447
4.90578
5.08862
4.29188
1.05659
-6.8642
-13.2487
-11.443
-6.13449
-2.35983
-0.874735
-0.586913
-0.532566
-0.418266
-0.317381
-0.261293
-0.199696
-0.110749
-0.0213455
0.0372262
0.0585737
0.0543334
0.0363813
0.00289304
3.44217
3.46354
3.51606
3.60285
3.72659
3.88633
4.05967
4.15634
3.94754
2.9059
0.263845
-4.88454
-9.26399
-8.95984
-5.73966
-2.83931
-1.44113
-0.964216
-0.716537
-0.489574
-0.332891
-0.258303
-0.202856
-0.12288
-0.0291385
0.0477708
0.0885984
0.0970977
0.0811801
0.0461581
3.41138
3.42576
3.45944
3.51103
3.5751
3.6374
3.65943
3.54626
3.10664
1.98958
-0.183848
-3.67487
-6.7389
-7.04662
-5.14138
-3.02934
-1.77315
-1.2101
-0.906236
-0.6755
-0.516035
-0.42412
-0.349114
-0.254081
-0.147311
-0.0581346
-0.00701489
0.00895145
0.00196667
-0.0109512
3.38262
3.39067
3.40744
3.42809
3.44146
3.42503
3.3329
3.07695
2.50959
1.40516
-0.410604
-2.93012
-5.15751
-5.68546
-4.58948
-3.07304
-1.99555
-1.41824
-1.08321
-0.827988
-0.628893
-0.486027
-0.370948
-0.257601
-0.148246
-0.0610865
-0.00948821
0.0114856
0.012768
0.006276
3.35856
3.36144
3.36452
3.36054
3.33472
3.25983
3.08788
2.74066
2.10617
1.04443
-0.516225
-2.4658
-4.17036
-4.75602
-4.13929
-3.04098
-2.12715
-1.55599
-1.19228
-0.912763
-0.689461
-0.524118
-0.399611
-0.292989
-0.197445
-0.119987
-0.0681572
-0.0388108
-0.0238898
-0.0142565
3.34135
3.3406
3.3341
3.31311
3.26081
3.14764
2.92588
2.52539
1.85829
0.834951
-0.561466
-2.18812
-3.59294
-4.18468
-3.83319
-2.99486
-2.19701
-1.6375
-1.25873
-0.968678
-0.736813
-0.562094
-0.431784
-0.32476
-0.229964
-0.1494
-0.0888976
-0.0482726
-0.0229265
-0.00711612
3.33241
3.3298
3.31833
3.28858
3.22287
3.09072
2.84495
2.42004
1.74031
0.739064
-0.577205
-2.05747
-3.32669
-3.91388
-3.67915
-2.96393
-2.22559
-1.67515
-1.29074
-0.996367
-0.760466
-0.580283
-0.445148
-0.335612
-0.239676
-0.157692
-0.0949587
-0.0522037
-0.0260291
-0.00956518
3.30508
3.29907
3.28056
3.23992
3.15928
3.00894
2.74477
2.30816
1.63501
0.674786
-0.553932
-1.90293
-3.04518
-3.58825
-3.41374
-2.80144
-2.13793
-1.62153
-1.25972
-0.999233
-0.805323
-0.659243
-0.540154
-0.429738
-0.322428
-0.224114
-0.141489
-0.07917
-0.0300179
-0.0118764
3.31325
3.30886
3.29466
3.26153
3.19226
3.05774
2.81303
2.39513
1.72939
0.747042
-0.550173
-2.01553
-3.26349
-3.81093
-3.54421
-2.83157
-2.11558
-1.5872
-1.22887
-0.974431
-0.786489
-0.644639
-0.526513
-0.414821
-0.30691
-0.210595
-0.132297
-0.0746943
-0.0296402
-0.0117965
3.32871
3.3275
3.32161
3.30309
3.25622
3.15345
2.94887
2.57158
1.92586
0.903245
-0.534011
-2.25178
-3.72956
-4.27521
-3.8025
-2.88115
-2.06321
-1.51456
-1.16432
-0.922877
-0.749254
-0.619602
-0.506657
-0.39342
-0.282794
-0.187664
-0.115572
-0.0666747
-0.0299258
-0.0156126
3.35018
3.3535
3.35949
3.36207
3.34825
3.29365
3.15253
2.84388
2.24091
1.16721
-0.488713
-2.64097
-4.51379
-5.02143
-4.17928
-2.92741
-1.96794
-1.39951
-1.06405
-0.840728
-0.686805
-0.575315
-0.472047
-0.358799
-0.244504
-0.148687
-0.0811976
-0.0403545
-0.0123859
-0.00434404
3.37564
3.38452
3.40512
3.43409
3.4627
3.47235
3.42096
3.21762
2.69633
1.57964
-0.375701
-3.22609
-5.72455
-6.09784
-4.64025
-2.91713
-1.7962
-1.23195
-0.934497
-0.743025
-0.613846
-0.520388
-0.426797
-0.317638
-0.20798
-0.121623
-0.0676765
-0.0418138
-0.0258774
-0.0206684
3.40266
3.41765
3.45444
3.51319
3.59125
3.67922
3.74426
3.69247
3.3166
2.20159
-0.136384
-4.09062
-7.53523
-7.56203
-5.1584
-2.81486
-1.50553
-0.970746
-0.754059
-0.632217
-0.546358
-0.466088
-0.363334
-0.239531
-0.124362
-0.0455315
-0.00725087
0.00136364
0.00147637
-0.00418771
3.42853
3.4496
3.50266
3.59191
3.72238
3.89783
4.1037
4.25624
4.12018
3.10154
0.291598
-5.40586
-10.2011
-9.36376
-5.57912
-2.60615
-1.12686
-0.606893
-0.48278
-0.472468
-0.480187
-0.448092
-0.350228
-0.212987
-0.0921352
-0.0244241
-0.00704762
-0.0200993
-0.0343893
-0.0398195
3.45055
3.47699
3.54445
3.66154
3.84148
4.10409
4.46172
4.86504
5.0895
4.34465
1.03665
-7.33895
-14.175
-11.57
-5.63757
-2.09587
-0.677814
-0.264048
-0.22655
-0.300268
-0.385187
-0.393461
-0.290807
-0.123703
0.0209988
0.0905411
0.0932909
0.0616626
0.0300724
0.00516832
3.46636
3.49677
3.57491
3.71296
3.93218
4.26733
4.76009
5.41865
6.07984
5.89773
2.24421
-9.64376
-19.2728
-14.2825
-5.56613
-1.08971
0.139066