/*--------------------------------*- C++ -*----------------------------------*\
| =========                 |                                                 |
| \\      /  F ield         | OpenFOAM: The Open Source CFD Toolbox           |
|  \\    /   O peration     | Version:  2512                                  |
|   \\  /    A nd           | Website:  www.openfoam.com                      |
|    \\/     M anipulation  |                                                 |
\*---------------------------------------------------------------------------*/
FoamFile
{
    version     2.0;
    format      ascii;
    arch        "LSB;label=32;scalar=64";
    class       volScalarField;
    location    "240";
    object      p;
}
// * * * * * * * * * * * * * * * * * * * * * * * * * * * * * * * * * * * * * //

dimensions      [0 2 -2 0 0 0 0];

internalField   nonuniform List<scalar> 
90398
(
42.0765
42.0602
42.0284
41.9725
41.871
41.6896
41.3781
40.8712
40.1015
39.0401
37.7595
36.5152
35.6928
35.5323
35.8472
36.1232
35.992
35.4747
34.7246
33.7425
32.4213
30.6942
28.5437
25.9574
22.8932
19.4508
15.5156
11.9472
6.81646
6.48108
42.0911
42.0772
42.0517
42.0069
41.9219
41.7626
41.4762
40.9879
40.212
39.0933
37.6866
36.3012
35.4315
35.3687
35.8483
36.2233
36.0963
35.5635
34.828
33.8708
32.5625
30.8421
28.6994
26.1172
23.0462
19.5738
15.5936
11.9385
6.76699
6.36083
42.1191
42.11
42.0972
42.0745
42.0232
41.9102
41.6783
41.2348
40.4539
39.2181
37.5302
35.8245
34.8543
35.0166
35.8637
36.4476
36.314
35.7374
35.027
34.1181
32.8401
31.1443
29.0286
26.4611
23.3779
19.8516
15.7879
12.002
6.76953
6.18723
42.1589
42.1569
42.1627
42.1733
42.1742
42.1363
42.0001
41.6462
40.8813
39.4607
37.2631
34.9851
33.8701
34.4447
35.9217
36.8307
36.6536
36.0009
35.3251
34.4654
33.2104
31.5498
29.4886
26.96
23.8744
20.2877
16.1222
12.1741
6.89443
5.98962
42.2079
42.215
42.2447
42.2992
42.3723
42.445
42.4628
42.2791
41.5991
39.9062
36.7908
33.5583
32.3198
33.6732
36.1626
37.4746
37.1234
36.3717
35.7907
34.9889
33.7214
32.0707
30.06
27.5733
24.4854
20.8309
16.5375
12.3765
7.03723
5.72141
42.2627
42.2805
42.3383
42.446
42.6114
42.8373
43.0928
43.2144
42.7981
40.7756
35.9538
31.0912
29.7492
32.5363
36.7627
38.587
37.7756
36.883
36.5248
35.8578
34.5868
32.9263
30.9326
28.4516
25.3307
21.5796
17.097
12.6359
7.24627
5.48884
42.3195
42.3485
42.4365
42.6037
42.8788
43.3047
43.9131
44.5844
44.7461
42.3786
34.6821
27.4627
25.9037
30.6271
37.6168
39.9759
38.132
36.8898
36.7455
36.2734
35.1581
33.6999
31.9159
29.5771
26.4764
22.5377
17.6282
12.6382
7.07095
5.27873
42.3741
42.4139
42.5311
42.7576
43.15
43.8149
44.9124
46.5683
48.2785
45.3085
34.3034
25.3776
21.8367
26.6049
40.2401
43.2067
40.1352
38.721
38.6591
38.0197
36.7402
35.2125
33.3268
30.7715
27.3259
22.8704
17.3105
11.7358
5.9336
4.73488
42.4225
42.4714
42.6133
42.8908
43.3889
44.2925
45.9723
49.0651
51.3256
53.3913
25.4141
15.4046
15.1286
18.798
42.7634
43.9633
39.5064
38.8163
39.0507
38.0827
36.5651
35.0567
33.2991
30.8841
27.5701
23.18
17.6131
12.028
6.15761
4.57766
42.4614
42.5166
42.6754
42.9877
43.5597
44.6273
46.8056
51.3843
58.382
70.9869
-26.1389
8.86412
9.07201
13.219
53.7767
46.3906
38.9883
39.0901
39.9083
38.8833
37.3102
35.9321
34.3851
32.1543
28.9198
24.5152
19.0297
13.4376
7.38828
4.36084
42.4885
42.5463
42.7116
43.0363
43.6326
44.7488
47.0606
52.0164
62.048
99.9562
112.104
-8.14867
5.65875
53.6398
45.3088
38.0584
38.9108
40.2026
39.3168
37.8116
36.5936
35.3053
33.3914
30.5834
26.8518
21.9385
15.9793
9.16105
3.97312
42.5029
42.5595
42.7202
43.0334
43.5998
44.6402
46.6614
50.656
58.4917
76.5728
60.492
-15.2828
-19.9862
9.66585
45.8562
42.562
37.875
38.8058
40.1887
39.7551
38.6879
37.8375
36.9553
35.5776
33.5384
30.6162
25.7754
18.7008
10.7532
3.68063
42.5052
42.5571
42.7037
42.9853
43.4786
44.3386
45.8535
48.4912
52.5794
58.7304
48.6427
13.9233
8.68612
21.2204
39.9499
41.6629
39.3819
39.4168
40.2562
40.15
39.5188
38.9568
38.3407
37.3148
35.7783
33.4492
28.8174
21.0135
12.147
3.57045
42.4971
42.5418
42.6676
42.9036
43.2989
43.9389
44.9535
46.3922
48.0204
47.7834
40.0588
25.6514
22.2243
29.7023
38.1538
41.1276
39.9185
39.3828
39.9286
40.2356
40.107
39.8636
39.4944
38.7746
37.6272
35.7537
31.4812
23.1148
13.356
3.42698
42.4816
42.5178
42.619
42.8037
43.0965
43.5321
44.1365
44.8295
45.2745
44.2965
39.4532
31.1835
28.2767
32.4115
37.7937
40.2353
39.8603
39.5866
40.1781
40.76
40.9419
40.8846
40.6511
40.0987
39.0975
37.3348
33.2813
24.5987
14.1866
3.2065
42.4619
42.4893
42.566
42.7014
42.9016
43.1689
43.479
43.7169
43.5812
42.4125
39.1921
34.3275
32.0933
34.1083
37.5262
39.5401
39.8455
39.94
40.5022
41.1053
41.4193
41.5005
41.4017
40.9975
40.116
38.4196
34.5395
25.7711
14.8866
3.00743
42.4412
42.4607
42.5155
42.6081
42.7327
42.8726
42.9823
42.9484
42.5462
41.413
39.1472
36.1101
34.4687
35.4317
37.6611
39.3158
39.9356
40.2485
40.7809
41.3878
41.8284
42.0734
42.1237
41.8454
41.0359
39.3274
35.4946
26.6962
15.4346
2.78177
42.4227
42.4358
42.4731
42.5323
42.6004
42.6508
42.6311
42.4421
41.9249
40.8797
39.1729
37.1216
35.9124
36.3686
37.8601
39.2101
39.9557
40.4242
40.9833
41.6151
42.1516
42.516
42.6641
42.4473
41.6421
39.8649
36.0268
27.2886
15.8063
2.53756
42.4087
42.4177
42.4428
42.4794
42.5102
42.5043
42.4083
42.1369
41.5734
40.606
39.2166
37.6834
36.74
36.9596
38.0368
39.1871
39.9846
40.5523
41.1428
41.7908
42.3799
42.8143
43.02
42.8336
42.0121
40.1536
36.2651
27.5977
16.0509
2.33303
42.4009
42.4079
42.427
42.4521
42.4645
42.4315
42.3002
41.9931
41.4145
40.4903
39.2462
37.9365
37.1169
37.2448
38.1387
39.1901
40.0018
40.6135
41.2219
41.8792
42.4938
42.9636
43.199
43.0246
42.1822
40.2642
36.3183
27.6507
16.1322
2.11679
42.0688
42.0521
42.0193
41.9615
41.8575
41.6733
41.3606
40.8556
40.0938
39.0484
37.7922
36.5706
35.7568
35.5844
35.8741
36.1268
35.9861
35.4704
34.722
33.7385
32.4152
30.6865
28.5315
25.9346
22.849
19.3841
15.4548
12.0076
6.75719
8.42298
42.0832
42.0688
42.0422
41.9952
41.9072
41.7443
41.4555
40.9684
40.2002
39.1004
37.7267
36.3715
35.5108
35.4292
35.8753
36.2226
36.0873
35.5589
34.8252
33.8658
32.5561
30.8354
28.6899
26.0951
23.0012
19.5052
15.53
11.9874
6.71606
8.06698
42.1108
42.1011
42.0867
42.0612
42.0058
41.8875
41.651
41.2064
40.4336
39.2229
37.5887
35.9306
34.9681
35.0955
35.8899
36.4355
36.2961
35.7291
35.0209
34.1075
32.8269
31.1311
29.0112
26.4291
23.3287
19.7824
15.7263
12.068
6.72628
7.66912
42.1501
42.1473
42.1509
42.1577
42.1526
42.1067
41.9612
41.602
40.844
39.4615
37.3602
35.1587
34.0352
34.5494
35.9456
36.8039
36.6296
35.9958
35.3236
34.4584
33.1994
31.5362
29.4655
26.9221
23.8285
20.2275
16.0738
12.2721
6.88446
7.2642
42.1984
42.2044
42.2313
42.2805
42.3449
42.4047
42.4052
42.2061
41.5277
39.9057
36.9877
33.8494
32.5428
33.7837
36.1422
37.3938
37.0705
36.361
35.7936
34.9957
33.7343
32.082
30.0591
27.5636
24.4763
20.8182
16.5457
12.509
7.00768
6.78947
42.2525
42.2688
42.323
42.4235
42.5759
42.7811
43.0062
43.0921
42.6561
40.7589
36.3872
31.6119
30.0672
32.6672
36.6748
38.416
37.5976
36.7087
36.3441
35.6947
34.4655
32.842
30.8775
28.4249
25.3441
21.635
17.2111
12.8517
7.3748
6.33007
42.3086
42.3358
42.4194
42.577
42.8337
43.2276
43.7815
44.3716
44.4754
42.3794
35.5586
28.1592
26.2739
30.8237
37.5703
40.1787
38.4822
37.1498
36.8152
36.2012
35.0114
33.5157
31.7169
29.3872
26.3391
22.4791
17.6321
12.7665
7.37436
5.73907
42.3625
42.4001
42.5124
42.7281
43.0962
43.7116
44.7117
46.1885
47.6566
45.5029
36.109
25.738
21.8836
26.5036
39.1673
41.9904
39.6888
38.6889
38.6126
37.8627
36.4799
34.8616
32.9098
30.3407
26.9413
22.4786
16.807
11.3403
5.93039
4.57249
42.4104
42.4568
42.5929
42.8592
43.3311
44.1685
45.6892
48.4275
50.7391
52.6796
32.0985
19.2131
16.7081
18.2737
46.7903
43.5971
38.3618
37.8721
38.1698
37.219
35.7196
34.2567
32.5985
30.3507
27.1888
22.7125
16.7403
10.7468
5.09116
3.69402
42.449
42.5014
42.6536
42.9522
43.4947
44.4865
46.4455
50.4173
56.7754
68.6425
-0.789699
-42.6084
20.6257
3.38859
61.1715
48.7006
39.2528
38.8933
39.6035
38.5897
37.0512
35.727
34.2508
32.0753
28.7242
23.6909
17.1238
10.9916
5.64297
3.10663
42.4759
42.531
42.6895
43.0001
43.5658
44.6036
46.6837
50.9715
59.8415
92.8641
-16.7931
62.4737
49.9568
39.8853
39.5844
40.4136
39.3652
37.7899
36.5237
35.2
33.2299
30.2234
26.0225
20.3902
14.0516
7.51554
2.38319
42.4904
42.5443
42.6988
42.9999
43.5381
44.5051
46.3356
49.8388
56.8908
71.5027
52.7636
-42.2695
-16.7526
-0.9315
48.8515
43.7802
38.1247
38.6853
39.94
39.5435
38.5597
37.7665
36.9191
35.5981
33.7506
30.8893
25.1907
16.9014
8.67899
1.52543
42.493
42.5425
42.6835
42.9531
43.4186
44.2174
45.6022
47.9331
51.3352
56.6582
46.3189
13.5727
10.0936
22.3894
40.1186
41.9494
39.6825
39.5895
40.3353
40.243
39.6549
39.1073
38.4938
37.4776
35.9834
33.3345
27.5903
18.5547
9.67367
1.00083
42.4854
42.528
42.6486
42.8732
43.2457
43.843
44.7743
46.0517
47.3908
46.8683
39.6273
26.4791
23.247
30.2747
38.2783
41.2276
39.9891
39.4108
39.9379
40.2592
40.1517
39.9186
39.5623
38.838
37.6401
35.3205
29.944
20.3471
10.7057
0.559467
42.4704
42.5048
42.6016
42.7772
43.0529
43.4588
44.013
44.6211
44.9424
43.8763
39.3292
31.6814
28.9101
32.8143
37.8999
40.2307
39.878
39.6545
40.2521
40.8197
41.0034
40.9653
40.7623
40.213
39.1192
36.8795
31.6013
21.6141
11.3556
0.0357259
42.4513
42.4772
42.5503
42.6786
42.8667
43.1145
43.3936
43.5876
43.4029
42.2225
39.1635
34.6123
32.4949
34.3926
37.6226
39.5496
39.868
39.9902
40.5485
41.1451
41.4801
41.6039
41.5518
41.1548
40.1867
38.0463
32.8186
22.6554
11.8949
-0.452083
42.4312
42.4495
42.5014
42.5886
42.7045
42.8315
42.9227
42.8668
42.4468
41.3211
39.1451
36.2714
34.712
35.622
37.7427
39.3337
39.9487
40.2787
40.8236
41.4455
41.9166
42.2036
42.2976
42.0293
41.1473
39.0597
33.8554
23.5458
12.3535
-0.908589
42.4132
42.4253
42.4603
42.5153
42.577
42.6186
42.5877
42.388
41.8661
40.834
39.1823
37.2172
36.0635
36.4997
37.9307
39.2375
39.9751
40.4575
41.034
41.6848
42.2497
42.6535
42.8494
42.6567
41.8042
39.7407
34.6087
24.2322
12.7501
-1.29812
42.3996
42.4077
42.4309
42.4641
42.4899
42.4777
42.3747
42.0981
41.5357
40.5822
39.2298
37.7479
36.8414
37.0552
38.0977
39.2184
40.0078
40.5857
41.1937
41.8629
42.4823
42.959
43.2186
43.0696
42.2172
40.1469
35.0697
24.7107
13.1622
-1.51388
42.3919
42.3981
42.4155
42.4376
42.4457
42.4074
42.271
41.9611
41.3857
40.4756
39.2606
37.9887
37.197
37.3237
38.1942
39.2231
40.0277
40.6483
41.2744
41.9544
42.6006
43.1133
43.4036
43.2716
42.4057
40.3324
35.2797
24.9611
13.5515
-1.72442
42.0532
42.0355
41.9998
41.9375
41.8278
41.6379
41.3213
40.8183
40.0697
39.0532
37.8422
36.6655
35.8693
35.6746
35.9179
36.132
35.9796
35.469
34.7243
33.7399
32.4158
30.6863
28.5248
25.9102
22.7964
19.2916
15.3421
12.1079
6.78079
11.2822
42.0673
42.0517
42.0219
41.9696
41.8748
41.7046
41.4097
40.9224
40.1671
39.1005
37.7851
36.4868
35.6432
35.529
35.9161
36.2199
36.0765
35.5573
34.8277
33.8664
32.5568
30.8378
28.6878
26.0762
22.9488
19.4071
15.409
12.043
6.6301
10.3732
42.0942
42.083
42.0647
42.0326
41.9681
41.8388
41.5914
41.1419
40.3803
39.2125
37.6681
36.094
35.1461
35.216
35.9239
36.4147
36.2755
35.7284
35.0259
34.1084
32.8273
31.1342
29.012
26.4165
23.2836
19.6933
15.6356
12.1692
6.43163
9.58471
42.1323
42.1276
42.1264
42.1246
42.1067
42.0436
41.8783
41.5038
40.7514
39.4299
37.4845
35.4099
34.2801
34.6974
35.9647
36.7514
36.5939
35.9985
35.3381
34.4721
33.2158
31.5553
29.4818
26.9239
23.8047
20.1846
16.0964
12.4661
6.35674
9.08711
42.1793
42.1829
42.2036
42.2415
42.2876
42.3207
42.2849
42.0491
41.3583
39.8424
37.2266
34.271
32.8909
33.9598
36.1244
37.2893
37.0122
36.357
35.7999
35.0097
33.7686
32.1317
30.1077
27.6004
24.5079
20.8742
16.7324
12.6644
6.42643
8.41075
42.2319
42.2451
42.2914
42.377
42.504
42.6677
42.8279
42.8356
42.332
40.626
36.9243
32.364
30.5684
32.8744
36.5774
38.2405
37.5359
36.7053
36.3102
35.6515
34.4572
32.8755
30.934
28.4992
25.4699
21.8769
17.6247
13.0927
7.18959
7.5659
42.2864
42.3099
42.3835
42.522
42.7437
43.0743
43.5156
43.9418
43.8825
42.0746
36.5614
29.3214
26.9231
31.1406
37.3064
39.8443
38.507
37.3499
36.9721
36.3083
35.1122
33.6218
31.8273
29.5452
26.6919
23.2472
18.7952
13.8739
8.04611
6.6691
42.3389
42.3722
42.4728
42.6649
42.9876
43.5117
44.3235
45.4626
46.3767
45.1268
37.9212
26.7283
22.4718
26.8611
38.8855
40.8738
38.9798
38.2663
38.2013
37.4838
36.2021
34.7404
33.0005
30.7482
27.927
24.3854
19.3575
13.8651
7.7844
5.41846
42.3857
42.4272
42.5502
42.7889
43.2053
43.923
45.1547
47.2441
49.0234
50.6396
41.2264
17.82
17.6231
18.4677
48.0013
43.5584
38.6539
38.4426
38.8091
37.9592
36.5647
35.2085
33.6531
31.5099
28.5893
24.6324
18.9131
12.9103
6.75921
3.97539
42.4234
42.4706
42.6087
42.877
43.3557
44.2071
45.7798
48.7606
53.2669
60.4566
41.4205
-71.5635
28.8567
-2.10383
59.5112
47.9407
39.1219
38.8739
39.5855
38.7423
37.3503
36.1208
34.7288
32.5645
29.2183
24.4845
18.0845
11.8807
5.98841
2.38726
42.4501
42.4997
42.6439
42.9236
43.4235
44.3157
45.9854
49.1973
55.3224
72.0977
6.94563
6.3567
59.875
48.6461
39.3723
39.0859
39.9281
39.1589
37.859
36.7643
35.5571
33.54
30.5001
26.3323
20.1576
13.0043
6.23828
0.789207
42.4648
42.5135
42.6542
42.9257
43.4031
44.2363
45.7215
48.3691
53.4595
61.3659
54.2134
-34.983
-19.5007
7.75978
47.4293
43.0787
38.0087
38.4525
39.6219
39.4306
38.6785
38.0228
37.2685
36.0228
34.3411
30.9908
23.6376
14.2482
6.49245
-0.717836
42.468
42.5127
42.6408
42.8839
43.2968
43.9841
45.1202
46.9077
49.1392
49.7435
45.4805
17.3323
12.9578
24.5835
40.1044
41.8237
39.7831
39.6162
40.2855
40.2959
39.8439
39.3748
38.826
37.9092
36.5255
33.1646
25.5449
15.1421
6.96612
-1.89858
42.4614
42.4996
42.6087
42.8108
43.1403
43.6545
44.4194
45.3999
46.2178
45.3397
39.2502
28.2359
25.007
31.2246
38.3255
41.0026
39.9311
39.4574
39.9958
40.362
40.3278
40.1605
39.873
39.213
38.0314
35.1075
27.7855
16.4358
7.59968
-2.92932
42.4476
42.4782
42.5655
42.7228
42.9654
43.3132
43.7634
44.209
44.293
43.1312
39.1546
32.534
29.9265
33.336
37.9131
40.0687
39.8539
39.7608
40.3723
40.9404
41.1698
41.2114
41.1039
40.6312
39.5571
36.7816
29.4903
17.4652
8.0116
-3.94591
42.4297
42.4525
42.5179
42.6316
42.7949
43.0028
43.219
43.3253
43.0414
41.8491
39.0749
35.0492
33.1109
34.7792
37.7138
39.5152
39.8939
40.0931
40.6653
41.2737
41.6669
41.8886
41.9538
41.6504
40.7446
38.1091
30.8199
18.4243
8.39492
-4.86249
42.4108
42.4265
42.4721
42.5478
42.6454
42.7452
42.7984
42.6971
42.2378
41.1253
39.1093
36.5104
35.0784
35.8885
37.8367
39.3348
39.9676
40.3494
40.9271
41.5842
42.1217
42.5079
42.7281
42.5709
41.7921
39.288
32.1229
19.3826
8.80037
-5.66766
42.3938
42.4038
42.4335
42.4794
42.5273
42.5501
42.4961
42.2731
41.7392
40.7294
39.1743
37.3633
36.3018
36.6972
38.0269
39.2679
40.0082
40.5292
41.1452
41.8397
42.4712
42.9735
43.3043
43.2401
42.5367
40.1735
33.224
20.2796
9.28638
-6.29548
42.3809
42.3871
42.4059
42.4314
42.4464
42.4204
42.3024
42.0137
41.4511
40.5223
39.2363
37.851
37.0093
37.209
38.1892
39.2621
40.048
40.6555
41.3033
42.0204
42.7089
43.2864
43.6889
43.6784
43.01
40.7498
33.8988
20.9367
9.89463
-6.58103
42.3736
42.3781
42.3913
42.4065
42.4052
42.3555
42.2077
41.8905
41.3195
40.4341
39.2733
38.0746
37.3353
37.4569
38.2826
39.2727
40.0727
40.7193
41.3853
42.1156
42.8328
43.4473
43.8848
43.8916
43.24
41.067
34.2055
21.1737
10.4864
-6.92964
42.0308
42.0113
41.9711
41.902
41.7841
41.586
41.264
40.7637
40.0331
39.0562
37.9065
36.7929
36.0241
35.8019
35.9831
36.1461
35.9786
35.4734
34.7322
33.7471
32.4237
30.6948
28.5232
25.8817
22.733
19.1933
15.2387
12.3031
6.96787
14.5164
42.0442
42.0267
41.992
41.932
41.8275
41.6468
41.3437
40.8562
40.1188
39.0974
37.8575
36.6382
35.8238
35.6698
35.9788
36.2247
36.0696
35.5598
34.8333
33.8704
32.5628
30.8468
28.6892
26.0552
22.8967
19.3179
15.3115
12.1741
6.51008
13.0815
42.07
42.0565
42.0323
41.9907
41.9132
41.7687
41.5065
41.0502
40.3045
39.194
37.7586
36.3005
35.3858
35.3884
35.9802
36.3962
36.2541
35.7279
35.0295
34.1084
32.8303
31.1427
29.0194
26.4122
23.2562
19.6342
15.6006
12.2736
5.72657
11.7742
42.1065
42.099
42.0905
42.0762
42.0403
41.9537
41.7611
41.3659
40.6229
39.3776
37.6075
35.7122
34.6214
34.9238
36.0093
36.6881
36.5397
35.983
35.3325
34.4676
33.2226
31.5733
29.5061
26.9481
23.8188
20.2124
16.2053
12.4346
5.19855
11.1369
42.1515
42.1515
42.1631
42.1846
42.2054
42.2018
42.1178
41.8334
41.1304
39.7202
37.413
34.7563
33.3995
34.2591
36.1382
37.1506
36.9099
36.3049
35.7469
34.9639
33.756
32.1539
30.1561
27.6675
24.5915
21.0624
16.9626
12.2991
5.45728
10.256
42.2019
42.2107
42.2455
42.3099
42.4017
42.5096
42.5855
42.4917
41.9177
40.3606
37.2375
33.1935
31.4015
33.3178
36.4888
37.9123
37.3745
36.6445
36.2091
35.5337
34.3842
32.8641
30.9777
28.5992
25.6516
22.2618
17.8414
12.5583
6.7053
8.97307
42.2542
42.2724
42.332
42.4435
42.6174
42.8649
43.1645
43.3857
43.1226
41.4838
37.1264
30.8045
28.349
32.0072
37.1022
39.0123
38.0495
37.1902
36.8382
36.1886
35.0575
33.6316
31.8999
29.6995
27.0225
23.8527
18.9953
13.6408
7.92828
7.53662
42.3047
42.3318
42.4156
42.5744
42.835
43.2417
43.8271
44.5496
44.9422
43.6704
38.6334
28.8548
24.0117
28.4039
38.5052
39.7568
38.2197
37.6891
37.6611
37.064
35.954
34.6442
33.0692
31.0417
28.6347
25.4502
19.9205
14.2867
8.14304
5.81592
42.3497
42.3844
42.4885
42.6876
43.0265
43.5893
44.4904
45.8828
47.4982
47.7262
42.1287
22.6919
17.2899
22.3611
43.3156
41.4991
38.1744
37.9312
38.2134
37.5519
36.4083
35.2199
33.8339
31.9677
29.659
26.1778
19.9477
13.6835
7.26841
3.78863
42.3864
42.4262
42.544
42.7697
43.1608
43.8317
44.984
46.9628
50.0338
53.1024
52.6607
-23.3997
1.72702
9.74339
47.5209
43.3851
38.3145
38.2774
38.8869
38.3032
37.2303
36.2405
35.1156
33.52
31.4802
27.5793
20.0341
12.4697
6.0299
1.53144
42.4127
42.4547
42.5782
42.8143
43.2241
43.9293
45.1532
47.2906
50.7253
56.4411
57.4764
-19.1675
10.9381
4.53451
48.5496
44.2346
38.9283
38.898
39.6277
39.1649
38.2109
37.3571
36.4255
35.1346
33.4062
29.0885
20.5925
11.9593
5.45531
-0.655
42.4276
42.469
42.5896
42.8188
43.2111
43.8713
44.962
46.7423
49.1391
50.5901
50.0167
-12.0075
-1.15807
15.4301
42.5959
41.4734
38.3536
38.5573
39.4323
39.3969
38.8839
38.388
37.7715
36.7669
35.3391
30.9955
22.0599
12.2515
5.47605
-2.63392
42.4317
42.4696
42.5792
42.7849
43.1258
43.6714
44.5068
45.6854
46.8163
46.3566
42.65
22.9433
17.6316
27.3132
39.2609
40.9787
39.5865
39.4808
40.104
40.2665
40.0183
39.7077
39.3001
38.5409
37.2011
33.1095
24.1867
13.1505
5.94657
-4.3362
42.4266
42.4587
42.5516
42.722
42.993
43.3992
43.9587
44.5922
44.8964
43.7274
38.8737
30.3598
27.3698
32.3504
38.1413
40.3479
39.7172
39.5086
40.067
40.4889
40.5743
40.5446
40.397
39.8859
38.7948
35.3364
26.7587
14.4605
6.56707
-5.87576
42.4145
42.4398
42.5133
42.6445
42.8418
43.112
43.4309
43.6815
43.5256
42.2909
38.9107
33.5586
31.2597
33.9626
37.8192
39.7389
39.7773
39.8629
40.4793
41.068
41.3927
41.5796
41.6411
41.3575
40.4149
37.0541
28.6938
15.5933
7.07323
-7.30752
42.3984
42.4167
42.4706
42.5635
42.6925
42.846
42.9806
42.98
42.5903
41.4015
38.9568
35.5828
33.8867
35.2348
37.7789
39.4182
39.8894
40.1953
40.7969
41.4434
41.9358
42.3132
42.5663
42.4849
41.7755
38.4986
30.1739
16.7265
7.58808
-8.57683
42.3813
42.3932
42.4293
42.4885
42.5603
42.6228
42.6256
42.4671
41.9674
40.8853
39.0617
36.8086
35.5513
36.226
37.9409
39.3179
39.9835
40.4416
41.0682
41.7806
42.4204
42.9668
43.3872
43.4671
42.9401
39.8226
31.6077
17.9814
8.23277
-9.65272
42.3657
42.3725
42.3943
42.4269
42.4553
42.4521
42.3668
42.114
41.5688
40.597
39.1664
37.5581
36.6143
36.9522
38.1446
39.3015
40.0518
40.6283
41.2997
42.0602
42.7967
43.4615
44.0035
44.1869
43.7976
40.9321
32.7849
19.1233
9.04532
-10.435
42.3538
42.3573
42.3692
42.3835
42.3831
42.3379
42.1993
41.895
41.3343
40.4428
39.2467
37.9921
37.2355
37.413
38.3089
39.3203
40.1067
40.7578
41.4629
42.2524
43.0488
43.7918
44.4167
44.6571
44.35
41.6653
33.3723
19.5355
9.5324
-10.8125
42.3471
42.349
42.3558
42.3609
42.346
42.2804
42.1168
41.7898
41.2256
40.3761
39.2897
38.1922
37.5237
37.6373
38.4009
39.3405
40.1384
40.8236
41.547
42.3524
43.179
43.9606
44.6269
44.8851
44.6481
42.0655
33.571
19.3439
9.72669
-11.4056
42.0025
41.981
41.9355
41.8582
41.7302
41.5223
41.1941
40.6974
39.989
39.0602
37.983
36.9443
36.211
35.9599
36.0691
36.1705
35.981
35.478
34.7382
33.75
32.4246
30.691
28.5019
25.8236
22.6218
19.0373
15.098
12.4932
7.26903
18.0508
42.0153
41.9955
41.9549
41.8856
41.7693
41.5762
41.2638
40.7771
40.0617
39.0947
37.943
36.8167
36.045
35.8499
36.0671
36.241
36.0661
35.563
34.838
33.8718
32.5641
30.8463
28.6739
26.0049
22.8002
19.1789
15.1909
12.246
6.22147
16.1444
42.0396
42.0235
41.9922
41.9392
41.8464
41.684
41.4053
40.9428
40.2175
39.1743
37.8635
36.5428
35.686
35.6182
36.07
36.3906
36.2366
35.7294
35.0342
34.11
32.8355
31.1511
29.0174
26.3818
23.1904
19.553
15.5777
12.1462
4.55053
14.161
42.0742
42.0633
42.046
42.017
41.9601
41.8464
41.6244
41.2087
40.48
39.322
37.743
36.0747
35.0728
35.2449
36.0996
36.6398
36.4935
35.9754
35.3322
34.4695
33.2394
31.6037
29.5346
26.9646
23.8232
20.2756
16.2865
11.9243
3.7695
13.1364
42.1167
42.1126
42.113
42.1153
42.1068
42.0621
41.9267
41.5944
40.8868
39.5845
37.5932
35.3324
34.1017
34.7064
36.2042
37.0265
36.8322
36.2875
35.7283
34.9515
33.7791
32.2108
30.2372
27.7636
24.7258
21.3539
16.9718
11.3695
4.55053
11.9787
42.1644
42.1681
42.1891
42.2285
42.2801
42.3261
42.3155
42.1227
41.4931
40.0514
37.4588
34.1896
32.6068
33.9672
36.4434
37.5933
37.2535
36.6518
36.1936
35.516
34.4181
32.9524
31.1221
28.7961
25.9747
22.7579
17.5377
11.5935
6.1084
10.2053
42.2139
42.2259
42.2689
42.349
42.4691
42.6264
42.7849
42.8125
42.3758
40.8462
37.4063
32.4345
30.3527
33.0581
36.963
38.3653
37.786
37.1644
36.8147
36.1932
35.1436
33.7978
32.1528
30.0461
27.5854
24.4389
18.339
12.8271
7.34039
8.16662
42.2619
42.2817
42.3459
42.4666
42.658
42.9393
43.3061
43.6619
43.6214
42.1711
37.5702
29.6975
26.9508
31.7601
37.8792
39.1399
38.1089
37.6331
37.5433
37.0278
36.0517
34.8629
33.4359
31.613
29.5771
26.1373
19.2402
13.6866
7.68174
5.86957
42.3049
42.3314
42.4131
42.5685
42.8241
43.2246
43.8126
44.5778
45.1868
44.411
40.2235
27.4421
22.177
28.1065
39.5574
40.3949
38.4783
37.9864
38.1058
37.6647
36.7765
35.7784
34.5958
33.1026
31.4848
27.562
19.7753
13.3229
7.03229
3.30827
42.3402
42.3714
42.4651
42.6432
42.9412
43.4253
44.1864
45.296
46.6102
46.8792
43.5044
20.5824
17.4181
24.9149
40.7381
41.796
39.2151
38.6142
38.8426
38.4735
37.6897
36.8892
35.9736
34.8624
33.5178
28.8666
19.9155
12.1336
5.93094
0.584399
42.366
42.3992
42.4981
42.6855
42.9994
43.5109
44.3241
45.5283
47.0194
47.5034
45.2098
17.5845
15.4942
23.4613
40.5042
41.8023
39.3724
38.9034
39.2926
39.097
38.4897
37.8853
37.1987
36.2551
34.7475
29.4509
19.9489
11.252
5.27298
-2.04151
42.3813
42.414
42.5107
42.693
42.9946
43.4734
44.1987
45.2078
46.2049
45.8633
42.6216
22.0682
18.0108
26.9839
39.4166
40.8043
39.1398
38.9193
39.4644
39.5607
39.2723
38.9473
38.5005
37.7265
36.3246
31.1294
21.4204
11.5097
5.33826
-4.42663
42.3865
42.4162
42.5041
42.6672
42.928
43.3229
43.8769
44.5349
44.9097
43.7882
38.5537
28.9308
26.1006
31.998
38.5764
40.3583
39.6172
39.5347
40.0637
40.3407
40.2937
40.1768
39.9482
39.4021
38.1957
33.6398
24.0619
12.6634
5.91948
-6.54479
42.3831
42.408
42.4818
42.6154
42.8207
43.1107
43.4724
43.7946
43.7153
42.4291
38.655
32.4829
30.0891
33.5905
38.0487
39.8877
39.7329
39.7326
40.2538
40.7178
40.9454
41.0924
41.132
40.8775
39.9312
35.8958
26.8122
14.1417
6.66967
-8.47024
42.3731
42.3922
42.4492
42.5498
42.6956
42.8808
43.0686
43.1391
42.8015
41.555
38.7819
34.7541
32.887
34.7876
37.8486
39.5352
39.8222
40.0478
40.6491
41.2747
41.734
42.1149
42.3939
42.3948
41.6201
37.6294
29.0329
15.5288
7.37682
-10.2155
42.3593
42.3723
42.4123
42.4805
42.5701
42.6636
42.7139
42.6116
42.1426
40.996
38.9171
36.2284
34.8273
35.8387
37.9315
39.3895
39.9513
40.3577
40.9939
41.7016
42.3297
42.9113
43.4067
43.6432
43.1319
39.1961
30.8075
17.0233
8.12925
-11.7475
42.3443
42.3517
42.3764
42.4159
42.458
42.4784
42.4278
42.2137
41.6857
40.661
39.0608
37.1869
36.1373
36.6675
38.1135
39.3543
40.0538
40.5921
41.2769
42.0637
42.8397
43.5986
44.2829
44.706
44.4218
40.6721
32.3512
18.632
9.08171
-12.9942
42.3305
42.3334
42.3457
42.3623
42.3679
42.335
42.2157
41.9336
41.3841
40.4673
39.186
37.8015
36.9946
37.2737
38.3116
39.3762
40.1395
40.7781
41.5163
42.3633
43.2415
44.1264
44.9494
45.5002
45.436
42.0114
33.438
19.6906
9.85763
-13.8932
42.3199
42.32
42.3235
42.3244
42.3056
42.2381
42.0767
41.7569
41.2031
40.3612
39.2731
38.1664
37.5087
37.6649
38.4678
39.4137
40.2048
40.9073
41.6826
42.5668
43.5086
44.4762
45.3933
46.0144
46.1106
42.9054
33.8487
19.4982
9.47856
-14.4646
42.3138
42.3126
42.3118
42.3046
42.2735
42.1891
42.0078
41.6714
41.1183
40.3152
39.3186
38.338
37.7509
37.857
38.5535
39.4407
40.2411
40.9737
41.7688
42.6729
43.6471
44.657
45.622
46.2771
46.5168
43.3877
33.9135
18.816
8.85062
-15.5358
41.97
41.9462
41.8948
41.8082
41.6694
41.4512
41.1172
40.6259
39.9428
39.0667
38.0669
37.1074
36.4137
36.1337
36.1666
36.2011
35.9864
35.4846
34.7469
33.7562
32.4288
30.6892
28.4797
25.7581
22.4976
18.8636
14.9591
12.6769
7.67918
21.7676
41.982
41.9597
41.9124
41.8329
41.704
41.4981
41.1767
40.6927
40.0028
39.0948
38.0354
37.0072
36.2828
36.0465
36.1662
36.2623
36.0647
35.5674
34.8453
33.8769
32.5693
30.8485
28.6579
25.9491
22.6879
19.022
15.0671
12.1729
5.8293
19.4298
42.0047
41.9856
41.9466
41.881
41.7719
41.5913
41.2967
40.8304
40.1298
39.1585
37.9735
36.7948
36.0032
35.8639
36.1692
36.3892
36.2201
35.7296
35.0393
34.1144
32.8453
31.1638
29.0176
26.3512
23.1121
19.4816
15.5261
11.6095
3.08038
16.684
42.037
42.0225
41.9956
41.9506
41.8717
41.7307
41.4805
41.0482
40.3394
39.2734
37.8812
36.4402
35.5356
35.5743
36.1914
36.595
36.4517
35.968
35.3299
34.47
33.2567
31.6353
29.5668
26.976
23.821
20.3806
16.1872
10.8878
2.29944
15.0008
42.0768
42.0682
42.0566
42.0382
41.9995
41.9139
41.7303
41.3572
40.655
39.4676
37.7661
35.8944
34.8129
35.161
36.2645
36.9063
36.7594
36.2711
35.7093
34.9377
33.7989
32.2639
30.312
27.8317
24.8617
21.6509
16.523
10.149
3.69438
13.4656
42.1215
42.1196
42.1257
42.1388
42.1493
42.1352
42.0451
41.7687
41.1068
39.7899
37.6584
35.1025
33.754
34.6038
36.4158
37.3392
37.1454
36.6377
36.1639
35.4938
34.4478
33.0358
31.2474
28.9387
26.2827
23.1111
16.6275
10.653
5.39378
11.1955
42.168
42.1733
42.1982
42.2452
42.3112
42.3829
42.4155
42.2863
41.7289
40.3109
37.5987
33.9625
32.2746
33.9539
36.7301
37.8932
37.5905
37.0881
36.7258
36.1485
35.191
33.928
32.345
30.2934
28.0584
24.6261
17.0605
11.9355
6.53602
8.59146
42.2131
42.2252
42.2682
42.349
42.4717
42.6366
42.8156
42.891
42.5472
41.1148
37.6849
32.3514
30.1775
33.1873
37.3196
38.5964
37.9742
37.4991
37.3392
36.9029
36.0599
34.9751
33.6254
31.8987
30.0724
25.9942
17.9065
12.7707
6.93299
5.75654
42.2538
42.2717
42.3296
42.4395
42.613
42.8658
43.1935
43.5105
43.5004
42.2389
38.0459
30.4322
27.6739
32.2696
38.0646
39.6382
38.4649
37.855
37.8746
37.5906
36.88
36.0006
34.9096
33.5585
32.0977
27.2696
18.808
12.6796
6.59119
2.73246
42.2876
42.3096
42.378
42.5069
42.715
43.0303
43.4703
43.9864
44.309
43.3728
38.684
28.7946
25.7206
31.4132
38.5515
40.6486
39.091
38.3176
38.465
38.3461
37.8141
37.1748
36.3951
35.4787
34.1711
28.5493
19.4623
11.9143
5.88322
-0.37306
42.3128
42.3366
42.4097
42.5468
42.7681
43.1055
43.5816
44.1562
44.5617
43.6988
38.8376
28.4794
25.3908
31.3981
38.5293
40.8501
39.4536
38.8001
39.0881
39.1377
38.8002
38.3826
37.8562
37.1596
35.8177
29.8109
20.1024
11.3485
5.45005
-3.36269
42.3284
42.3519
42.4235
42.5571
42.7695
43.0841
43.5101
43.9807
44.1701
43.0713
38.5061
29.9757
27.1839
32.4072
38.2949
40.2049
39.3023
38.9797
39.4127
39.6637
39.5962
39.4643
39.2129
38.7613
37.5607
31.8993
21.9224
11.7483
5.59994
-6.1077
42.3349
42.356
42.4206
42.539
42.7208
42.9772
43.2951
43.5718
43.468
42.198
38.4703
32.2662
29.9555
33.5807
38.0786
39.7943
39.5571
39.5411
40.0282
40.4263
40.5925
40.6997
40.698
40.4877
39.4203
34.4031
24.5944
12.9551
6.21685
-8.58523
42.3334
42.3506
42.4036
42.4987
42.6384
42.8197
43.0096
43.0907
42.7649
41.4902
38.5899
34.3203
32.4559
34.6271
37.8843
39.5189
39.7121
39.8573
40.3747
40.9228
41.3352
41.7113
42.0101
42.1213
41.2622
36.6609
27.3912
14.4938
7.02933
-10.8173
42.3258
42.3381
42.3773
42.4458
42.5392
42.6433
42.7137
42.6387
42.1848
40.9976
38.7672
35.8065
34.3278
35.5732
37.9088
39.387
39.8507
40.1881
40.8039
41.5046
42.138
42.7602
43.3263
43.7126
43.0951
38.6452
29.9829
16.114
7.86529
-12.7997
42.3144
42.3217
42.3468
42.3887
42.4379
42.4727
42.4454
42.2585
41.7422
40.6755
38.9385
36.8452
35.7196
36.4242
38.0781
39.3632
40.0014
40.5023
41.1914
41.9899
42.7915
43.6253
44.4356
45.0887
44.7585
40.4667
32.2898
18.0279
8.84607
-14.5034
42.3017
42.3043
42.3165
42.3348
42.3459
42.3245
42.2237
41.9627
41.4222
40.4748
39.0987
37.5734
36.7144
37.1039
38.2881
39.3992
40.1314
40.7494
41.5048
42.3902
43.3382
44.3579
45.3784
46.2487
46.227
42.2182
34.1076
19.9129
9.85718
-15.8612
42.2899
42.2888
42.2905
42.2898
42.2713
42.2081
42.0562
41.7495
41.2051
40.3546
39.2275
38.0607
37.3861
37.6056
38.4896
39.4628
40.2405
40.9447
41.7597
42.7145
43.7694
44.9252
46.1034
47.1337
47.423
43.7894
35.1996
20.6694
10.1267
-16.8643
42.2807
42.2772
42.2716
42.2577
42.2193
42.1288
41.9452
41.613
41.0722
40.2885
39.315
38.3579
37.7986
37.9331
38.6416
39.5217
40.3196
41.0791
41.9356
42.9357
44.0587
45.3044
46.5884
47.7147
48.2446
44.8004
35.4146
19.9556
8.98246
-17.6389
42.2754
42.2708
42.2615
42.2409
42.1924
42.0884
41.8896
41.5461
41.0091
40.2596
39.3598
38.4997
37.9955
38.0948
38.7229
39.557
40.3621
41.148
42.0258
43.0492
44.206
45.498
46.8371
48.0286
48.7601
45.3167
35.2278
18.8771
7.97863
-19.0816
41.9347
41.9086
41.8509
41.755
41.6053
41.3771
41.0382
40.5537
39.8981
39.0761
38.1537
37.2726
36.619
36.3126
36.2718
36.2399
35.9986
35.4959
34.7592
33.7654
32.4344
30.6861
28.4512
25.6791
22.3521
18.6675
14.8088
12.8024
8.12652
25.4153
41.9458
41.9209
41.8669
41.7769
41.6354
41.4171
41.0879
40.6087
39.9466
39.0989
38.1302
37.1971
36.5204
36.2472
36.2741
36.2939
36.0715
35.5774
34.8575
33.8865
32.5778
30.8512
28.6376
25.8825
22.5556
18.8525
14.8958
11.8659
5.40714
22.6102
41.9669
41.9447
41.8977
41.8194
41.6943
41.4963
41.1878
40.7209
40.048
39.1493
38.0846
37.0394
36.3123
36.1109
36.2808
36.4042
36.2157
35.737
35.0509