/*--------------------------------*- C++ -*----------------------------------*\
| =========                 |                                                 |
| \\      /  F ield         | OpenFOAM: The Open Source CFD Toolbox           |
|  \\    /   O peration     | Version:  2512                                  |
|   \\  /    A nd           | Website:  www.openfoam.com                      |
|    \\/     M anipulation  |                                                 |
\*---------------------------------------------------------------------------*/
FoamFile
{
    version     2.0;
    format      ascii;
    arch        "LSB;label=32;scalar=64";
    class       surfaceScalarField;
    location    "240";
    object      phi;
}
// * * * * * * * * * * * * * * * * * * * * * * * * * * * * * * * * * * * * * //

dimensions      [0 3 -1 0 0 0 0];

oriented        oriented;

internalField   nonuniform List<scalar> 
260615
(
1.59993
-6.04669e-05
0.000125279
1.59984
-0.000182659
0.000261812
1.59976
-0.000352859
0.000426263
1.59974
-0.000619875
0.000634734
1.59989
-0.00104979
0.000900706
1.60035
-0.00168091
0.00121646
1.60096
-0.00217192
0.00156398
1.60394
-0.00498873
0.00200178
1.60743
-0.0062921
0.00280036
1.61249
-0.00843257
0.00336762
1.61882
-0.0100776
0.00375212
1.6171
-0.00198595
0.00370495
1.62836
-0.0145591
0.00330013
1.62843
-0.00247438
0.00242216
1.6259
0.00108486
0.00146714
1.62245
0.00271291
0.000758367
1.61854
0.00324878
0.000688093
1.61685
0.00109908
0.000611468
1.61528
0.000900905
0.000689553
1.6141
0.000360204
0.00082435
1.61329
-0.000141349
0.000956915
1.61278
-0.000533724
0.00104301
1.61247
-0.000800735
0.00110592
1.61228
-0.000970929
0.00114865
1.61217
-0.00107499
0.00116782
1.61212
-0.00112682
0.00116332
1.61213
-0.00113202
0.00112153
1.61216
-0.00109387
0.00106494
1.61222
-0.00104621
0.000992753
-0.000850579
0.000840851
1.59992
-0.000115706
0.000128814
1.59981
-0.00034939
0.000268031
1.59969
-0.000676406
0.000436552
1.59961
-0.00119313
0.000652414
1.59966
-0.00203336
0.000932212
1.60003
-0.00333466
0.00127605
1.60111
-0.00491876
0.00167085
1.60328
-0.0093078
0.00214239
1.60675
-0.0128432
0.00307785
1.61209
-0.0175454
0.00377982
1.61914
-0.0214334
0.00430492
1.61817
-0.00537123
0.00435172
1.6297
-0.0299257
0.0038469
1.62948
-0.00512811
0.00288544
1.62642
0.00243964
0.00174441
1.6225
0.00575054
0.000909974
1.61905
0.00583832
0.000874946
1.61669
0.00266471
0.00082014
1.61506
0.00159968
0.000951491
1.6139
0.00041594
0.00112223
1.61311
-0.000641161
0.0012868
1.61264
-0.0014688
0.00141166
1.61236
-0.00203227
0.00150129
1.6122
-0.00239083
0.00156627
1.61212
-0.00260697
0.00160402
1.61209
-0.00271077
0.00160288
1.6121
-0.00272046
0.0015758
1.61212
-0.00264369
0.00152878
1.61217
-0.00256749
0.00147417
-0.0023418
0.00133394
1.59991
-0.000161575
0.000134214
1.59976
-0.000486474
0.000279142
1.59956
-0.000944746
0.000453647
1.59936
-0.00167734
0.000685701
1.59921
-0.00288733
0.000998342
1.59929
-0.00482553
0.0014082
1.5999
-0.00746778
0.00193732
1.60187
-0.0137057
0.00243691
1.60525
-0.0199059
0.00368517
1.61111
-0.0280917
0.00469403
1.61979
-0.0356585
0.00554096
1.62041
-0.0117916
0.00579759
1.63253
-0.0471087
0.0050812
1.63172
-0.00824601
0.00395291
1.62742
0.00440787
0.0023627
1.62247
0.00948827
0.00123903
1.61854
0.00846812
0.00132751
1.61626
0.0036855
0.00129508
1.61465
0.00166554
0.00156573
1.61353
-0.000235933
0.00178017
1.61283
-0.00190334
0.00196842
1.61244
-0.00318406
0.00210829
1.61224
-0.0040426
0.00220459
1.61215
-0.00458022
0.00226483
1.61213
-0.00488321
0.00228279
1.61216
-0.00499462
0.00224196
1.61222
-0.00494398
0.00216191
1.61228
-0.00475361
0.00204734
1.6123
-0.00451353
0.00192929
-0.00399541
0.00166684
1.59989
-0.000193666
0.000137353
1.59968
-0.000580426
0.000293208
1.59938
-0.00113158
0.000480237
1.59899
-0.0020264
0.000732364
1.59855
-0.00353612
0.00109176
1.59817
-0.00603914
0.00158923
1.59815
-0.00972663
0.00228029
1.59949
-0.0180214
0.00298218
1.60255
-0.0276313
0.00467627
1.60916
-0.0409377
0.00624907
1.62085
-0.0549967
0.00765643
1.62449
-0.0233686
0.00796362
1.63717
-0.0674547
0.00768936
1.63544
-0.0125109
0.00600614
1.62887
0.00748897
0.00353575
1.62219
0.0143234
0.00187695
1.61776
0.0107806
0.00214204
1.61545
0.00368221
0.00233864
1.61387
0.000469867
0.00280539
1.61285
-0.00235983
0.00314829
1.61229
-0.00479399
0.00345605
1.61201
-0.00659433
0.00368022
1.61189
-0.00777766
0.00384477
1.61185
-0.00852047
0.0039556
1.61188
-0.00893599
0.00400465
1.61195
-0.00906999
0.0039892
1.61205
-0.00896104
0.00391128
1.61213
-0.00861981
0.00377546
1.61219
-0.00819831
0.00362388
-0.00719998
0.0033217
1.59986
-0.000208628
0.00014402
1.59959
-0.000620457
0.000303351
1.59916
-0.0012145
0.00051171
1.59853
-0.00219702
0.00079277
1.59768
-0.00389812
0.00120561
1.59665
-0.00683029
0.00182504
1.59563
-0.0114338
0.00272857
1.59583
-0.0219941
0.0037813
1.59797
-0.035906
0.00615589
1.60547
-0.057057
0.00863844
1.62268
-0.0831145
0.0109394
1.6513
-0.0639281
0.01197
1.64415
-0.0725597
0.0122754
1.64132
-0.0194655
0.00982578
1.63065
0.0126019
0.00556601
1.62147
0.0203655
0.00316336
1.61661
0.0116563
0.00401247
1.61429
0.00138502
0.00464456
1.61273
-0.00318443
0.00523018
1.61194
-0.00715724
0.00559491
1.61167
-0.0104776
0.00595825
1.61164
-0.0127914
0.00620836
1.61173
-0.0142446
0.006369
1.61186
-0.0151295
0.00645373
1.61203
-0.0155978
0.00646848
1.61222
-0.0157003
0.00641803
1.6124
-0.0154632
0.00629846
1.61258
-0.0148958
0.00608187
1.61271
-0.0141752
0.0058392
-0.0123656
0.00524191
1.59984
-0.00020454
0.000150966
1.59949
-0.000600139
0.000317719
1.59891
-0.00117774
0.000542636
1.598
-0.00215297
0.000859086
1.59665
-0.00389118
0.00133494
1.59475
-0.00702183
0.00209307
1.59248
-0.0124403
0.00327778
1.59046
-0.0248266
0.00486838
1.59034
-0.0439691
0.00820455
1.59858
-0.0773236
0.0120513
1.62564
-0.126049
0.0159367
1.64751
-0.10481
0.0190859
1.65419
-0.10065
0.0214738
1.64979
-0.0331491
0.0180811
1.63138
0.0209622
0.0100162
1.61928
0.0264237
0.00602091
1.61442
0.00846518
0.00804884
1.61178
-0.00576739
0.0097999
1.61044
-0.0128498
0.0110063
1.61032
-0.0188589
0.0118072
1.61092
-0.0235821
0.0124957
1.61178
-0.026596
0.0129246
1.61269
-0.0283165
0.0131391
1.61358
-0.0292134
0.0131779
1.61436
-0.0295158
0.0131061
1.61502
-0.0293107
0.0129209
1.61551
-0.0286223
0.0126393
1.61589
-0.027513
0.0122186
1.61606
-0.0261088
0.0117546
-0.0233421
0.0106561
1.59982
-0.000181238
0.000154759
1.59939
-0.000518524
0.000334595
1.59865
-0.00101676
0.000573387
1.59744
-0.00187444
0.000922021
1.59553
-0.00345185
0.00147075
1.59259
-0.00645991
0.00237171
1.58855
-0.012288
0.00389451
1.58075
-0.0234005
0.00639387
1.57795
-0.0518059
0.0106434
1.58599
-0.101892
0.0165741
1.62833
-0.0381646
0.0228677
-0.0471955
-0.0474622
-0.0583603
1.66179
-0.0415591
0.0322557
-0.0360157
-0.0472854
-0.0455927
1.66992
-0.0278807
0.0431903
-0.0363364
-0.0375318
-0.0501132
1.66243
-0.0186659
0.0389146
-0.00193147
-0.0292568
-0.0147745
1.62867
0.0283904
0.0263231
1.61388
0.0205672
0.0205886
1.61279
-0.012525
0.0220429
1.6119
-0.0287943
0.0239112
1.61273
-0.0393091
0.0256142
1.614
-0.0478447
0.0276984
1.61442
-0.0538648
0.0298354
1.61358
-0.0572865
0.0315145
1.61165
-0.0590302
0.0326385
1.60895
-0.0598023
0.0332627
1.60585
-0.0598727
0.0334365
1.60265
-0.0593346
0.0331993
1.59958
-0.0581711
0.0325831
1.597
-0.056568
0.0316114
1.59457
-0.0541607
0.0304643
-0.0507962
0.0278058
1.59979
-0.000140651
0.000158078
1.5993
-0.000381703
0.000349558
1.59842
-0.000741602
0.000600192
1.59693
-0.00137223
0.000979116
1.59445
-0.00256861
0.00159469
1.59028
-0.00492786
0.00263187
1.58345
-0.00995936
0.00450862
1.57279
-0.020752
0.00802252
1.55852
-0.0507127
0.0131893
0.391998
-0.119018
0.0217911
0.388519
0.388474
0.384896
0.396333
-0.0437718
0.00131511
-0.406583
0.420347
-0.0591783
0.00392307
-0.423265
0.425327
-0.0388305
0.00896155
-0.426587
0.429769
-0.0301193
0.00830627
1.6489
0.0136095
0.0840107
-0.425383
-0.433546
-0.424313
-0.435008
1.61859
-0.0312782
0.0820664
1.58641
-0.0683591
0.087946
1.55205
-0.0843549
0.0898918
1.51749
-0.0936629
0.0889014
1.4839
-0.100967
0.0866811
1.45239
-0.105331
0.0829502
1.42436
-0.10698
0.0777088
1.40065
-0.107169
0.0718368
1.38144
-0.106539
0.0659301
1.3666
-0.105247
0.0601986
1.35581
-0.103351
0.0547803
1.34884
-0.100862
0.0496299
1.34517
-0.0978862
0.0449542
1.34489
-0.0941482
0.0402563
-0.0887617
0.0346427
1.59978
-8.68191e-05
0.000160534
1.59923
-0.000203057
0.000361415
1.59824
-0.000378056
0.000619763
1.59653
-0.000694288
0.00102442
1.59358
-0.0013169
0.00169218
1.58839
-0.00258062
0.0028451
1.57884
-0.0054456
0.00503572
1.56101
-0.0122171
0.00929763
1.52646
-0.0317212
0.0155692
0.377977
-0.0993112
0.0220571
0.372263
0.371324
0.363163
0.384774
-0.0552135
-0.000548363
0.04903
0.4236
-0.408436
0.0760328
-0.0240376
-0.0231897
-0.028912
-0.0197487
0.00322275
-0.000342712
0.00311715
-0.00107615
-0.417935
0.41981
0.0571169
-0.0305335
-0.0173346
-0.0215833
-0.0200875
0.00847208
0.00639067
0.00595198
0.0102401
-0.436019
0.429251
0.0551671
-0.0228049
-0.0305586
-0.0265619
-0.0217283
0.00914645
0.0130713
0.0199242
0.0108072
0.963691
-0.0841177
0.136473
-0.374212
-0.250886
-0.319725
-0.0577697
0.908988
-0.0606694
0.0839391
0.868389
-0.0935836
0.0656884
0.852155
-0.109996
0.0418289
0.85361
-0.11726
0.0221192
0.865807
-0.121152
0.0079537
0.885371
-0.121386
-0.00354182
0.909742
-0.118419
-0.0129493
0.936278
-0.1137
-0.0200121
0.96312
-0.108274
-0.0251153
0.989296
-0.102626
-0.0288135
1.01436
-0.0970022
-0.0314443
1.03838
-0.0914578
-0.0334538
1.06093
-0.0860017
-0.03446
1.08443
-0.081121
-0.0365547
-0.07095
-0.0358358
1.59976
-2.54753e-05
0.000176837
1.59916
-1.96839e-06
0.000380965
1.5981
3.29208e-05
0.00064779
1.59625
7.9942e-05
0.00106369
1.59303
0.00014047
0.00175781
1.58725
0.000218476
0.00298121
1.57611
0.000326041
0.00536569
1.55323
0.000479111
0.0101847
1.50381
0.000680409
0.0170213
0.35283
0.000825375
0.0154687
0.348608
0.343264
0.343524
-0.0307115
-0.0150972
0.0496082
0.0844912
0.0900165
0.0857886
0.0887758
0.0269747
-0.100868
0.106163
-0.0237808
-0.00278665
-0.00225233
-0.0019679
-0.00146429
-0.107147
0.0237633
0.099961
-0.00700678
-0.00653136
-0.0093567
-0.00543298
0.00416314
0.0020781
0.00387717
0.00200399
-0.0843595
0.0184217
-0.0139163
0.00237583
0.077447
0.0699836
0.0460464
-0.420739
0.00199808
0.0446476
0.106118
0.0674644
0.399268
0.0118816
-0.402111
0.598557
0.00756193
-0.300652
0.734096
0.0028845
-0.248487
0.832848
-0.00161037
-0.214416
0.904797
-0.00530318
-0.187814
0.958241
-0.00769867
-0.16715
0.999809
-0.00895963
-0.15104
1.03337
-0.00935603
-0.137916
1.0612
-0.00925696
-0.126855
1.08487
-0.00889054
-0.117419
1.1055
-0.00836728
-0.109293
1.12415
-0.00773744
-0.102405
1.14093
-0.00675729
-0.0960522
1.15928
-0.0071915
-0.0922951
-0.00456833
-0.0848221
1.59974
3.63555e-05
0.000191922
1.59913
0.000198697
0.000395677
1.59806
0.000441947
0.000659
1.5962
0.000848649
0.00107821
1.59298
0.00158997
0.0017712
1.58726
0.00302298
0.00290411
1.57614
0.00609886
0.00534803
1.55328
0.0131693
0.0101628
1.5039
0.0330522
0.0170134
0.348692
0.100841
0.0156944
0.352665
0.343685
0.343157
-0.000248109
0.0313107
-0.0209335
0.0823306
0.0869467
0.0821668
0.087143
0.000465795
-0.0981071
0.0910968
0.00901472
-0.000323345
-0.000904639
-0.000246212
-0.00100997
-0.00771666
-0.00554836
0.0129252
-0.00277911
0.00283909
0.107143
0.0603672
-0.410499
0.0478083
0.0403389
0.0891094
0.111643
0.428919
0.0541507
-0.364268
0.618592
0.0794497
-0.261768
0.745723
0.0853121
-0.209645
0.835835
0.0833898
-0.175137
0.89865
0.079356
-0.147492
0.942722
0.0743149
-0.126106
0.975165
0.0686115
-0.110036
0.999996
0.0632206
-0.0974276
1.0196
0.0583602
-0.0872414
1.03572
0.0538431
-0.0788807
1.04958
0.049702
-0.0719572
1.06258
0.0455894
-0.0663636
1.07443
0.0429912
-0.0616166
1.09017
0.036072
-0.059017
0.0360091
-0.0549614
1.59975
9.21439e-05
0.000190846
1.5992
0.000377634
0.000357946
1.59821
0.000802965
0.000618176
1.59649
0.0015199
0.00104597
1.59353
0.00283104
0.00170824
1.58844
0.0053437
0.00276692
1.57894
0.0105754
0.00501813
1.5612
0.0216244
0.00927308
1.52676
0.0518824
0.0155984
0.37217
0.120492
0.0225642
0.37784
0.36321
0.371323
-0.0501774
0.055833
-0.00393149
0.093322
0.090488
0.0919795
0.0946621
-0.0276511
-0.100827
0.106605
-0.00452813
0.0264128
-0.00925692
-0.102928
0.105827
0.0085197
0.0345882
-0.00821448
-0.013592
-0.0148384
-0.0293825
-0.0896147
0.0123521
0.070948
0.0356039
1.0494
-0.0333235
0.0774456
-0.190449
-0.373482
-0.109721
-0.359468
1.05698
-0.00360126
0.0500646
1.07213
0.0234393
0.0407194
1.09637
0.0339195
0.0270796
1.12487
0.0381961
0.0166686
1.15251
0.0409485
0.0107489
1.17707
0.0417878
0.00793877
1.19844
0.0410799
0.00614307
1.21608
0.0397004
0.00585605
1.2303
0.0380041
0.00611158
1.24082
0.0364453
0.00685202
1.24782
0.035091
0.00758602
1.25113
0.033793
0.00846056
1.25224
0.0333705
0.00850056
1.24737
0.0314324
0.00951446
0.0328777
0.0111007
1.59977
0.000136075
0.000176629
1.5993
0.000514119
0.000331256
1.59844
0.00107263
0.000581048
1.59695
0.00201013
0.000988127
1.59449
0.00369183
0.00159503
1.59036
0.00683365
0.00262424
1.5836
0.0128331
0.00449848
1.57306
0.0241433
0.00800228
1.55888
0.0528252
0.0132243
0.388452
0.103118
0.0221859
0.391985
0.384978
0.388635
-0.0496701
0.391949
0.0443688
0.00179907
-0.0799537
-0.406632
0.418824
0.0620735
0.00574575
-0.0767436
-0.420072
0.425306
0.0485268
0.02321
-0.0708612
-0.438231
0.445263
0.0363237
0.0269701
1.66465
-0.0375246
0.0728936
-0.437495
-0.428537
-0.439027
-0.428245
1.63978
-0.043864
0.0650518
1.62368
-0.023466
0.0629062
1.6127
-0.014749
0.0595867
1.60516
-0.00969588
0.0554034
1.59964
-0.00553686
0.051981
1.59506
-0.00270599
0.0490603
1.59127
-0.00123627
0.0460772
1.58811
-0.00056198
0.043405
1.58557
-0.000139688
0.0406508
1.58296
0.000447598
0.0385825
1.58012
0.0012528
0.0366583
1.57603
0.00239852
0.0354575
1.57144
0.00370271
0.0342487
1.56204
0.00623515
0.0346032
0.00881007
0.0352063
1.59981
0.000163655
0.000158637
1.59938
0.000595418
0.000334312
1.59866
0.00122677
0.000562473
1.59746
0.00227253
0.000924055
1.59558
0.00410118
0.00146422
1.5927
0.00734688
0.00235954
1.58873
0.0129095
0.00387356
1.58103
0.0254711
0.00636195
1.57834
0.0448578
0.0106369
1.58608
0.0785682
0.0167708
1.62851
0.128443
0.0239497
-0.0385168
-0.0485664
-0.047945
-0.0598462
1.66522
0.110835
0.036339
-0.0436095
-0.0409401
-0.049256
-0.0501731
1.67715
0.107392
0.0484773
-0.033264
-0.0397196
-0.0421584
-0.0529294
1.67116
0.0331493
0.041502
-0.0213395
-0.00196815
-0.0310904
-0.0143854
1.63868
-0.0277149
0.0226261
1.6216
-0.0387122
0.0118521
1.617
-0.0276043
0.00865982
1.61298
-0.0175786
0.00680203
1.61122
-0.0131019
0.00514196
1.6107
-0.00902399
0.0039982
1.61051
-0.00579476
0.00326112
1.61035
-0.00378275
0.00268832
1.61013
-0.00259667
0.00223101
1.60983
-0.00175436
0.00188395
1.60939
-0.00102108
0.00187968
1.60919
-0.000370918
0.00180427
1.6091
0.000322903
0.00214835
1.60935
0.00084163
0.00260198
1.61037
0.00194462
0.00327693
0.00389482
0.00578112
1.59983
0.000172968
0.000151953
1.59948
0.000615502
0.000317388
1.59891
0.00125558
0.000537461
1.59802
0.00229832
0.000857188
1.59671
0.00407605
0.00132557
1.59486
0.00710405
0.00207702
1.59268
0.0118256
0.00325235
1.59077
0.0225343
0.00483142
1.59078
0.0366478
0.0081704
1.59912
0.0580981
0.0120946
1.6265
0.0847448
0.016276
1.65002
0.0668518
0.0203823
1.65881
0.0753101
0.0231783
1.65504
0.018303
0.0185276
1.63694
-0.0178283
0.00815753
1.62436
-0.0286371
0.00245276
1.61821
-0.024012
0.00250597
1.61463
-0.0167606
0.00272571
1.61258
-0.0139902
0.00293509
1.6116
-0.0111377
0.00308112
1.61113
-0.00862739
0.00329914
1.61081
-0.00689903
0.00341478
1.61057
-0.00580499
0.00342968
1.61039
-0.00500311
0.00341114
1.6102
-0.00430362
0.00345318
1.61003
-0.00365477
0.00343219
1.60984
-0.00301031
0.00350865
1.60962
-0.00241331
0.00346987
1.60993
-0.00180215
0.00344567
-0.000442818
0.00371441
1.59986
0.000163932
0.0001452
1.59958
0.00057541
0.000303026
1.59916
0.00116409
0.000509303
1.59855
0.00210797
0.000787281
1.59774
0.00367957
0.00119548
1.59677
0.00625907
0.00180807
1.59584
0.0100397
0.00270171
1.59616
0.0184527
0.00374178
1.59846
0.0282157
0.00610616
1.6062
0.0417315
0.00859981
1.62383
0.05609
0.0109827
1.6535
0.0248765
0.0122625
1.64768
0.068537
0.0125205
1.64532
0.0112554
0.0093548
1.63476
-0.0113155
0.00400917
1.62547
-0.0199822
0.000594229
1.61991
-0.018681
0.000198367
1.61687
-0.0134483
-0.000288548
1.6148
-0.0113884
-0.000532784
1.61359
-0.00917737
-0.000744615
1.61287
-0.00711141
-0.000802748
1.61238
-0.00555125
-0.00086506
1.61199
-0.00448998
-0.000937909
1.61167
-0.0037043
-0.000992058
1.61139
-0.00303847
-0.00100874
1.61116
-0.00244025
-0.00099162
1.61094
-0.00189165
-0.000912802
1.61074
-0.00140139
-0.000815346
1.61052
-0.000909528
-0.000666743
8.1267e-05
-0.000212638
1.59988
0.000138302
0.000138693
1.59967
0.000481605
0.000292963
1.59938
0.00096839
0.000477719
1.59901
0.00173829
0.000726616
1.59861
0.00299505
0.00108122
1.59829
0.00499047
0.0015717
1.59837
0.00770151
0.00225276
1.59983
0.0140257
0.00294103
1.60307
0.0203333
0.00461938
1.60995
0.0286576
0.00617569
1.62207
0.036372
0.00757435
1.62645
0.0125881
0.00789142
1.63998
0.0475107
0.00746104
1.63863
0.00725016
0.00533402
1.63207
-0.00702007
0.00224403
1.62529
-0.0132634
3.75628e-05
1.62041
-0.0135132
-0.000306938
1.61751
-0.00987537
-0.000679968
1.61541
-0.00864085
-0.000646799
1.61399
-0.00718307
-0.000569213
1.61305
-0.00577306
-0.000408134
1.61241
-0.00465353
-0.000262035
1.61193
-0.00387389
-0.000138642
1.61154
-0.00330423
-2.86355e-05
1.61124
-0.00282829
8.07056e-05
1.61101
-0.00240001
0.000186376
1.61081
-0.00201059
0.000312335
1.61065
-0.00165028
0.000410174
1.61059
-0.00137226
0.000523603
-0.000902672
0.000697382
1.5999
9.93676e-05
0.000135707
1.59975
0.000345029
0.000279009
1.59956
0.000691225
0.000451172
1.59938
0.00123313
0.000679972
1.59927
0.00210477
0.000987862
1.59942
0.00344411
0.00139084
1.60012
0.00507322
0.00191024
1.60222
0.00951767
0.00239593
1.60579
0.0131204
0.00362515
1.61191
0.0179063
0.00460816
1.62099
0.0218654
0.00541734
1.62217
0.00578798
0.00561706
1.63488
0.0300557
0.00474053
1.63437
0.00445356
0.00330775
1.63007
-0.00405849
0.00132711
1.62502
-0.00807811
-0.0001486
1.62079
-0.0088708
-0.000421253
1.61806
-0.0063534
-0.00080295
1.61603
-0.00577552
-0.000833122
1.61455
-0.0048744
-0.000836535
1.61354
-0.00395938
-0.000798005
1.61283
-0.00318803
-0.000762167
1.61231
-0.0026188
-0.000736051
1.61189
-0.00218934
-0.000708987
1.61156
-0.00182769
-0.000670789
1.61129
-0.00150349
-0.00063448
1.61107
-0.00121337
-0.000573919
1.61089
-0.000958495
-0.000509278
1.61073
-0.000760681
-0.000445952
-0.000435431
-0.000302555
1.59991
5.09239e-05
0.000130378
1.5998
0.000178887
0.000267962
1.59969
0.000358678
0.000434176
1.59963
0.000638309
0.000646854
1.59972
0.00108385
0.000922011
1.60016
0.00173366
0.00125913
1.60133
0.00224622
0.0016444
1.60364
0.0050892
0.00210198
1.6073
0.00642323
0.00301667
1.61289
0.00860274
0.00368774
1.62031
0.0102755
0.00416617
1.61979
0.00215882
0.00413768
1.63178
0.0145833
0.00348688
1.63181
0.00212358
0.00229232
1.62876
-0.00187634
0.000868189
1.62474
-0.00384512
-0.000225513
1.62107
-0.00470293
-0.000511261
1.61837
-0.00285356
-0.000803791
1.61636
-0.0028866
-0.000890687
1.61486
-0.00247695
-0.000888319
1.61376
-0.00202826
-0.000835877
1.61298
-0.00163897
-0.000771912
1.6124
-0.00134511
-0.000700342
1.61194
-0.0011231
-0.00061697
1.61157
-0.000938653
-0.000525314
1.61128
-0.000775415
-0.000440424
1.61105
-0.000631444
-0.000352952
1.61086
-0.000506645
-0.000262814
1.61071
-0.000426911
-0.000188916
-0.000317397
-7.12011e-05
1.59992
0.00012696
1.59983
0.000261813
1.59976
0.000423904
1.59977
0.000629123
1.59995
0.000890347
1.60048
0.00119921
1.60118
0.00153697
1.6043
0.0019597
1.60798
0.00273595
1.6133
0.00326758
1.61997
0.00359943
1.61866
0.00346699
1.63033
0.0029201
1.63062
0.00183112
1.62811
0.000629999
1.62457
-0.000307491
1.62045
-0.000589996
1.61845
-0.000858691
1.61652
-0.000955107
1.61499
-0.000949717
1.61385
-0.000891043
1.61303
-0.000826404
1.61243
-0.000744724
1.61196
-0.000654518
1.61158
-0.000564245
1.61128
-0.000475833
1.61105
-0.000400864
1.61086
-0.000321684
1.61069
-0.000252398
-0.000138052
1.60004
-5.88359e-05
0.000128975
1.60008
-0.000178614
0.000401594
1.60012
-0.000344798
0.000721967
1.60023
-0.000604852
0.00112702
1.6005
-0.00102263
0.00164796
1.601
-0.0014464
0.00216344
1.60146
-0.00107503
0.00218011
1.6015
-0.00320231
0.0051553
1.60497
-0.00635168
0.0056789
1.61025
-0.00841527
0.00650326
1.61341
-0.00652956
0.00712117
1.61352
-0.00316454
0.00676132
1.62285
-0.0126049
0.00658052
1.62604
-0.00538566
0.0046282
1.62335
0.00142849
0.00276228
1.62002
0.00289821
0.00121565
1.61919
0.00145541
8.61192e-05
1.61772
-1.13719e-05
0.00210935
1.61625
0.000680938
0.00149963
1.61514
0.000372171
0.00158007
1.61438
-8.69621e-05
0.00180315
1.61387
-0.000440827
0.00199543
1.61352
-0.000677819
0.00212879
1.61328
-0.000825181
0.00219913
1.61308
-0.000911617
0.00226754
1.61289
-0.000943089
0.00227966
1.61285
-0.00093136
0.00209028
1.61285
-0.000878442
0.00194303
1.61287
-0.000813921
0.00178677
-0.000621879
0.00149725
1.60004
-0.000113777
0.000131139
1.60006
-0.000342996
0.000409054
1.60007
-0.000662713
0.000737675
1.60012
-0.00116657
0.00115746
1.6003
-0.00198378
0.00170553
1.60104
-0.00319184
0.00228774
1.60333
-0.00414897
0.002454
1.60343
-0.00671142
0.00554308
1.60647
-0.0124051
0.00609023
1.61129
-0.0167355
0.00728467
1.61378
-0.0128335
0.00812684
1.61509
-0.00765283
0.00752231
1.62419
-0.0258795
0.00803046
1.6285
-0.0122275
0.00543522
1.62602
0.00246732
0.00321622
1.62267
0.00559345
0.00158389
1.62147
0.00328105
0.000282283
1.61796
0.00196237
0.00237883
1.61611
0.00159203
0.00190484
1.615
0.00056755
0.00205272
1.61426
-0.000381076
0.00232687
1.61377
-0.00110688
0.00256911
1.61343
-0.00158875
0.00274243
1.61319
-0.00188928
0.00286171
1.61295
-0.00204869
0.00296632
1.61281
-0.00211068
0.00290015
1.61277
-0.00208237
0.00276267
1.61277
-0.00197126
0.00262497
1.61279
-0.00185544
0.00249873
-0.00158536
0.00221993
1.60003
-0.000158736
0.000135426
1.60001
-0.000477877
0.000424552
1.59995
-0.000925455
0.000769973
1.59989
-0.0016392
0.00122022
1.59988
-0.00281502
0.00183035
1.60015
-0.00466503
0.00261552
1.60144
-0.00682853
0.00332276
1.60181
-0.0104055
0.00576191
1.60489
-0.0189043
0.00711807
1.61019
-0.0263521
0.00901301
1.61544
-0.0230253
0.010487
1.61764
-0.0139271
0.00986
1.62796
-0.0416753
0.0105674
1.63046
-0.0178738
0.00711909
1.62684
0.00435992
0.004133
1.62244
0.0091161
0.00214161
1.62032
0.0054882
0.00127286
1.61744
0.00351676
0.00264449
1.61583
0.00213321
0.0026639
1.61477
0.000455245
0.00296626
1.61409
-0.00102363
0.00328753
1.61367
-0.00213715
0.00356066
1.61339
-0.00287591
0.00376429
1.61317
-0.00330245
0.00389012
1.61297
-0.00353379
0.00395194
1.61292
-0.00359508
0.00376461
1.61293
-0.003507
0.00357264
1.61296
-0.00328981
0.00333863
1.61294
-0.00301987
0.00311138
-0.00247919
0.00266171
1.60001
-0.0001901
0.000147467
1.59995
-0.000569788
0.000440069
1.59979
-0.0011077
0.000815337
1.59954
-0.00197858
0.00130951
1.59926
-0.00344323
0.00200219
1.59907
-0.00586208
0.00297663
1.59943
-0.0091314
0.00421897
1.59948
-0.0140145
0.00655131
1.60229
-0.025986
0.00896064
1.60831
-0.0380214
0.0119082
1.61615
-0.0375126
0.0143013
1.62289
-0.0258088
0.013111
1.63213
-0.0589917
0.0157859
1.63396
-0.0239985
0.0103343
1.62822
0.00801737
0.00565634
1.62221
0.0142221
0.00281672
1.61937
0.00804423
0.0024632
1.61683
0.00473191
0.00369923
1.61529
0.0022872
0.00421404
1.61435
-0.000118553
0.00468598
1.61381
-0.00215784
0.0051303
1.61349
-0.00363779
0.00549952
1.61321
-0.00460521
0.00584024
1.61302
-0.00516998
0.00599228
1.61292
-0.00548922
0.00605166
1.61293
-0.00557363
0.00594267
1.61299
-0.00544814
0.0057847
1.61304
-0.00511673
0.00554762
1.61307
-0.00472191
0.00528999
-0.00384802
0.00476058
1.59997
-0.000204463
0.000175881
1.59985
-0.000607135
0.000449547
1.59958
-0.0011891
0.000865503
1.59911
-0.00214264
0.00141977
1.59844
-0.00378989
0.00221904
1.5976
-0.00661515
0.00341428
1.59679
-0.0107747
0.00518984
1.59607
-0.0174449
0.00794107
1.59799
-0.0334692
0.0117268
1.60504
-0.0527064
0.0162932
1.61955
-0.0620455
0.0209884
1.65148
-0.0654678
0.0197446
1.64038
-0.0592897
0.0237023
1.63969
-0.0293672
0.0159023
1.63012
0.0148876
0.00830554
1.6219
0.0217875
0.00385883
1.61829
0.0114289
0.00426199
1.61598
0.00578391
0.00593622
1.61455
0.00211118
0.00686191
1.61382
-0.00124462
0.00746382
1.61356
-0.00392421
0.00798247
1.61345
-0.00569643
0.00837446
1.61327
-0.00667335
0.00860068
1.61324
-0.00721148
0.0085027
1.61329
-0.00743074
0.00833868
1.61339
-0.00737222
0.00809741
1.6135
-0.00705447
0.00778617
1.6136
-0.00649336
0.00734869
1.61361
-0.00579942
0.00690407
-0.00440134
0.00599583
1.59993
-0.000200002
0.000204917
1.59975
-0.000586434
0.000473051
1.59933
-0.00114787
0.000908821
1.5986
-0.00210055
0.00154193
1.59745
-0.00377665
0.00246611
1.5958
-0.00678413
0.00391591
1.5938
-0.0117327
0.00624157
1.59189
-0.0206164
0.00995717
1.59147
-0.040457
0.0156281
1.59958
-0.0718315
0.0230952
1.63832
-0.117383
0.032566
1.65262
-0.0929517
0.0322547
1.6658
-0.089963
0.0389718
1.64899
-0.0222932
0.0278614
1.63226
0.0281965
0.0134829
1.62184
0.0318913
0.00635068
1.6174
0.0159604
0.00797811
1.61486
0.00737079
0.0107899
1.61346
0.00210512
0.0124312
1.61294
-0.00259196
0.0136821
1.61289
-0.00626354
0.0148917
1.61292
-0.00846213
0.0156516
1.61302
-0.00963129
0.0159901
1.61328
-0.010147
0.0158337
1.61358
-0.0102106
0.015567
1.61388
-0.00988949
0.0151234
1.61414
-0.00921729
0.0145263
1.61435
-0.00823285
0.0137346
1.61447
-0.00710031
0.0129231
-0.00524978
0.0113152
1.5999
-0.000176547
0.000221759
1.59961
-0.000505398
0.000529712
1.59907
-0.000989082
0.000949617
1.59807
-0.00181765
0.00163952
1.59638
-0.00335165
0.00272483
1.59374
-0.00622547
0.00445523
1.59022
-0.0117359
0.00742293
1.58525
-0.0217281
0.0124829
1.57992
-0.0453257
0.0208577
1.58377
-0.0924323
0.0333404
1.62365
-0.0409329
0.0506918
-0.0540043
-0.0375691
-0.0525611
1.6554
-0.0389354
0.0544084
-0.0374346
-0.034736
-0.0357567
1.66252
-0.0257434
0.067152
-0.040663
-0.0207442
-0.0338645
1.65884
-0.0177405
0.0530701
-0.00799188
-0.00736669
0.000341391
1.63172
0.0570395
0.0246068
1.62021
0.0480185
0.0159677
1.61571
0.0229692
0.019536
1.61317
0.0115849
0.0222688
1.61255
0.0052481
0.0231123
1.61279
0.000779366
0.0240925
1.61315
-0.00195274
0.0251616
1.61348
-0.00310294
0.0258162
1.61361
-0.00327852
0.026153
1.61366
-0.00300366
0.0260687
1.61357
-0.00246832
0.0257654
1.6134
-0.00170251
0.0251649
1.61315
-0.000678899
0.0242761
1.61295
0.000496401
0.0230693
1.61242
0.00212148
0.0217695
0.00337787
0.0192231
1.59987
-0.000136092
0.000237598
1.59949
-0.000370303
0.000589188
1.59879
-0.000718438
0.00102189
1.59756
-0.00132603
0.00171062
1.59532
-0.00247395
0.00294435
1.59152
-0.00472148
0.00492815
1.58516
-0.00951849
0.00865474
1.5757
-0.0194534
0.0152155
1.56117
-0.0447886
0.0271905
0.389976
-0.111557
0.0487502
0.386087
0.390569
0.386712
-0.007034
0.393484
-0.0490165
0.0116446
-0.00968732
-0.404114
0.416451
-0.057096
0.0155217
-0.0196908
-0.41892
0.419883
-0.0330572
0.0259973
-0.025591
-0.421804
0.424206
-0.0283605
0.0338621
1.63568
0.140581
0.0524929
-0.41981
-0.424842
-0.420344
-0.422617
1.62246
0.0947808
0.0485329
1.61385
0.0557234
0.0637947
1.60703
0.0354528
0.0728672
1.60113
0.0237844
0.0762939
1.59393
0.0157907
0.0788689
1.58584
0.00979717
0.0792902
1.5772
0.00536304
0.0778827
1.5687
0.00195416
0.0751166
1.56084
-0.000764539
0.0715464
1.554
-0.00283722
0.0674041
1.54847
-0.00423453
0.0628303
1.54436
-0.00489117
0.0579373
1.54189
-0.00493526
0.0528397
1.54021
-0.00380373
0.0478529
-0.00226991
0.0411953
1.59985
-8.25874e-05
0.000248655
1.5994
-0.000194392
0.000624512
1.59855
-0.000361881
0.0011085
1.59708
-0.000663967
0.00182516
1.59442
-0.00125767
0.00312624
1.58974
-0.00245272
0.00525706
1.58072
-0.00511996
0.00965392
1.56432
-0.0112704
0.0175261
1.53134
-0.0300936
0.0338496
0.372401
-0.101137
0.0685678
0.362903
0.373687
0.365424
-0.0659799
0.0141935
-0.0049702
0.0538802
0.0940546
0.0939868
0.0931195
0.0941593
-0.00122758
-0.0992108
0.0208658
0.104599
-0.0270254
0.00200236
-0.106459
-0.0127456
0.0102587
0.104531
-0.00986608
0.0142918
-0.106524
-0.0238427
0.0146122
-0.0196888
0.0268676
0.108563
1.33814
0.260503
0.0317113
-0.379265
-0.186883
-0.409206
-0.377786
1.3259
0.174997
0.0159664
1.32527
0.0971633
0.0248643
1.33088
0.0495806
0.0221358
1.34274
0.0196575
0.0144253
1.35806
0.000314037
0.00813068
1.37332
-0.011768
0.00277224
1.38798
-0.0191043
-0.00313955
1.40212
-0.0234164
-0.00876879
1.41584
-0.0256835
-0.0139096
1.42921
-0.0264476
-0.0185669
1.44232
-0.0260378
-0.0227638
1.45512
-0.0245588
-0.0266055
1.46769
-0.0222564
-0.0297229
1.48034
-0.0193638
-0.0336565
-0.0115046
-0.0343277
1.59985
-2.17936e-05
0.000251416
1.59938
3.5436e-06
0.000642474
1.59847
4.06683e-05
0.00114957
1.59685
9.02974e-05
0.00192252
1.59393
0.000157133
0.0032562
1.58871
0.000247843
0.00550518
1.57841
0.000370193
0.01017
1.55793
0.000537536
0.0188587
1.50675
0.00075217
0.0373494
0.335801
0.00109216
0.0834711
0.33298
0.33489
0.33285
-0.0427266
0.00862183
0.0114575
0.066113
0.0702959
0.0750308
0.071491
0.0755263
0.0022935
0.00379371
-0.00568602
0.00639935
-0.00225838
-0.00108012
-0.00126369
-0.00108028
-0.00111481
-0.00736663
0.00207881
-0.00462374
0.00481174
0.00840702
-0.000782188
-0.000883999
-0.000858234
-0.00078699
-0.00227151
-0.000406792
0.0027919
-0.00253686
0.000293306
0.00212674
0.768837
-0.0270349
-0.491392
-0.00529015
-0.0587961
-0.244846
-0.101509
0.961335
-0.0434798
-0.376123
1.0903
-0.0552828
-0.277186
1.17623
-0.0629229
-0.221886
1.23535
-0.067104
-0.186731
1.27757
-0.0689697
-0.160734
1.30837
-0.069091
-0.140616
1.33169
-0.0679516
-0.125506
1.35004
-0.0657802
-0.113896
1.365
-0.0628473
-0.104649
1.37763
-0.0593187
-0.0971799
1.38871
-0.0553182
-0.0911083
1.39888
-0.0508652
-0.0862862
1.40836
-0.0457499
-0.0820558
1.41911
-0.0422564
-0.0801545
-0.0307048
-0.0751027
1.59987
3.9521e-05
0.000245586
1.59943
0.000200864
0.000630359
1.59858
0.000441282
0.00110354
1.59699
0.000842199
0.00190454
1.59411
0.00156653