/*--------------------------------*- C++ -*----------------------------------*\
| =========                 |                                                 |
| \\      /  F ield         | OpenFOAM: The Open Source CFD Toolbox           |
|  \\    /   O peration     | Version:  2512                                  |
|   \\  /    A nd           | Website:  www.openfoam.com                      |
|    \\/     M anipulation  |                                                 |
\*---------------------------------------------------------------------------*/
FoamFile
{
    version     2.0;
    format      ascii;
    arch        "LSB;label=32;scalar=64";
    class       surfaceScalarField;
    location    "240";
    object      phi;
}
// * * * * * * * * * * * * * * * * * * * * * * * * * * * * * * * * * * * * * //

dimensions      [0 3 -1 0 0 0 0];

oriented        oriented;

internalField   nonuniform List<scalar> 
278528
(
1.59957
0.000372628
7.7861e-05
1.59925
0.000152609
0.000189644
1.59924
-0.000275784
0.000304689
1.59971
-0.000907237
0.000454425
1.59966
-0.000567066
0.000635504
1.59964
-0.000786371
0.000832056
1.59968
-0.001412
0.00138732
1.60232
-0.00409873
0.00147607
1.60497
-0.00442171
0.00180016
1.61467
-0.0115547
0.00188157
1.61938
-0.0064671
0.00179873
1.61527
0.00282621
0.00132545
1.62467
-0.0101132
0.000763627
1.62456
6.49755e-05
9.39115e-05
1.62398
0.000929789
-0.000313187
1.62427
0.000144691
-0.000399554
1.62496
-0.000555888
-8.07444e-05
1.62818
-0.00312367
-5.89825e-05
1.6321
-0.00384953
-3.24714e-05
1.63739
-0.00532055
5.28502e-05
1.6443
-0.00703583
0.000139643
1.653
-0.00888399
0.000186498
1.66362
-0.0109015
0.000243464
1.67625
-0.0130842
0.000386608
1.69079
-0.0153603
0.000723296
1.70701
-0.0174676
0.00114495
1.72371
-0.0192535
0.00244437
1.74262
-0.020292
0.00134247
1.75444
-0.0198993
0.00812569
-0.0249139
-0.0158499
1.60002
0.000297927
7.82888e-05
1.60002
-2.49368e-05
0.000190167
1.60011
-0.000656307
0.000318723
1.60026
-0.00150616
0.000467328
1.60026
-0.0011633
0.00061743
1.60077
-0.00216971
0.00089523
1.59998
-0.00216242
0.00156439
1.60219
-0.0079247
0.00164088
1.60599
-0.0102168
0.0020197
1.61483
-0.0224339
0.00207226
1.62001
-0.0136481
0.00203892
1.61612
0.00527415
0.00148851
1.62538
-0.0200552
0.000729646
1.62481
0.000687511
-5.75638e-06
1.62382
0.00240307
-0.000449392
1.62395
0.000558826
-0.000496269
1.62524
-0.00170712
-9.43883e-05
1.62775
-0.0054991
-8.34264e-05
1.63153
-0.0075698
-2.53544e-05
1.63676
-0.0106128
8.72989e-05
1.6436
-0.0140686
0.000202859
1.65221
-0.0177765
0.000270319
1.66277
-0.0218282
0.000330268
1.67537
-0.0262266
0.000469551
1.68996
-0.0308186
0.000778039
1.7063
-0.0351603
0.00124384
1.7234
-0.0389648
0.00250156
1.74224
-0.041433
0.0022588
1.75633
-0.0425231
0.00857646
-0.0552498
-0.0103343
1.60001
0.000232066
8.10607e-05
1.60002
-0.000227047
0.000202681
1.59993
-0.000877978
0.000341242
1.59999
-0.00205409
0.000501509
1.59988
-0.00163571
0.000605009
1.59977
-0.00306524
0.00102951
1.60018
-0.00440599
0.0018663
1.60105
-0.0107792
0.00200609
1.60496
-0.0165937
0.00249238
1.61514
-0.0352143
0.00263915
1.62137
-0.0224361
0.00259176
1.61787
0.00695613
0.0018703
1.6269
-0.0297114
0.000677592
1.62532
0.00250182
-0.000174898
1.62345
0.00497078
-0.000667804
1.62327
0.00137145
-0.00058602
1.62434
-0.00279047
5.23324e-05
1.62683
-0.00796442
2.32438e-05
1.63049
-0.0113935
0.000195715
1.63561
-0.0161029
0.000393163
1.64233
-0.0213558
0.000584883
1.6508
-0.0269697
0.000709876
1.66124
-0.0331177
0.000806306
1.67379
-0.0397935
0.00093953
1.68845
-0.0467478
0.00117544
1.70505
-0.053475
0.00160547
1.72269
-0.0595323
0.00282864
1.74201
-0.0636564
0.00285701
1.75956
-0.0689667
0.00892071
-0.0895795
-0.00675209
1.60004
0.000126325
8.47767e-05
1.59995
-0.000332812
0.000218861
1.59979
-0.00107484
0.000371838
1.59963
-0.00242582
0.000554883
1.59969
-0.00231956
0.000647078
1.59907
-0.00360742
0.00118724
1.59806
-0.00564365
0.00228335
1.59966
-0.0149353
0.00258324
1.60389
-0.024031
0.00323851
1.61563
-0.050741
0.00380681
1.62372
-0.0339965
0.00351837
1.62112
0.00746634
0.0021404
1.62945
-0.0389179
0.000935499
1.62607
0.00633877
-0.000416788
1.62275
0.00934438
-0.00100689
1.62214
0.00276091
-0.000721794
1.62306
-0.00384552
0.000188186
1.62539
-0.0104733
0.000231128
1.62892
-0.0154114
0.000533182
1.6339
-0.0219129
0.000861765
1.64039
-0.0290017
0.00116955
1.6486
-0.0365667
0.00137368
1.65882
-0.0449076
0.00151922
1.67129
-0.0539806
0.00163771
1.68614
-0.0634216
0.00173241
1.70331
-0.0727997
0.0020427
1.72197
-0.0811349
0.0028427
1.74284
-0.0870268
0.00245579
1.76389
-0.0970052
0.00702003
-0.122352
-0.00795891
1.60005
1.135e-05
8.62547e-05
1.59985
-0.000356181
0.000238088
1.59966
-0.00127485
0.000412563
1.59937
-0.00273317
0.000626267
1.60024
-0.00390326
0.000728818
1.599
-0.00353646
0.00119985
1.59788
-0.00736351
0.00286446
1.59759
-0.018104
0.00349485
1.60355
-0.0346151
0.00465015
1.61654
-0.0695024
0.0058022
1.62759
-0.0497123
0.0047105
1.64643
-0.0137751
0.00246079
1.63322
-0.0265581
0.000882776
1.6269
0.0135263
-0.000820078
1.62147
0.0162484
-0.00140469
1.62054
0.00442946
-0.00066123
1.62125
-0.00514969
0.000664814
1.62332
-0.013266
0.000796236
1.62667
-0.0199305
0.00123248
1.63151
-0.0284621
0.00175527
1.63789
-0.0375997
0.00223863
1.64621
-0.0474437
0.00255
1.65695
-0.0584239
0.00272918
1.67044
-0.0703525
0.00280613
1.68683
-0.0826738
0.00277217
1.70591
-0.094919
0.0029211
1.72637
-0.104791
0.00308896
1.74843
-0.111309
0.00218723
1.7698
-0.123058
0.00471008
-0.149257
-0.0108694
1.60003
-8.25725e-05
8.52328e-05
1.59994
-0.000501024
0.000256328
1.59942
-0.00118786
0.000448947
1.59871
-0.00271584
0.000718364
1.59885
-0.00489971
0.000876601
1.60045
-0.00579613
0.000694286
1.59794
-0.00818292
0.00335387
1.59702
-0.0225136
0.00535318
1.6022
-0.0469973
0.00722873
1.60609
-0.0826326
0.00929048
1.63409
-0.0837505
0.00610087
1.6409
-0.0227519
0.00219205
1.63897
-0.0241139
-0.000420759
1.62729
0.0275521
-0.00230004
1.61868
0.0276982
-0.00274726
1.61779
0.00627707
-0.000861508
1.61851
-0.00770539
0.00194512
1.62033
-0.0181155
0.00313489
1.62439
-0.0282191
0.00432334
1.63064
-0.0399491
0.00530646
1.63898
-0.0519326
0.00604199
1.64945
-0.0645692
0.00664775
1.6619
-0.0783485
0.00742504
1.67584
-0.0928822
0.0085087
1.69055
-0.107411
0.00992838
1.70545
-0.121115
0.0111722
1.72001
-0.130384
0.0109353
1.73552
-0.134523
0.0076599
1.75055
-0.143034
0.00496023
-0.169799
-0.0122428
1.6001
-0.000248575
8.40395e-05
1.59988
-0.000515088
0.000250552
1.59957
-0.00124424
0.000388147
1.59865
-0.00252387
0.00075256
1.59712
-0.00467383
0.00132986
1.5982
-0.00763176
0.000785541
1.59766
-0.0104193
0.00280251
1.59256
-0.0254214
0.00803262
1.59464
-0.060549
0.0115161
1.60821
-0.0232759
0.0144308
-0.0266733
-0.0283031
-0.0323498
1.64281
-0.0360581
0.00672098
-0.0196874
-0.0422453
-0.0270624
1.65541
-0.00753176
0.00227829
-0.00641284
-0.0101167
-0.0135096
1.64825
0.000891274
-0.00190545
0.00103897
-0.00636433
-0.0104936
1.62709
0.0131884
-0.00384629
0.0180975
0.00782297
0.0135281
1.61428
0.0453451
-0.00471613
1.61347
0.0111632
-0.00394396
1.61848
-0.0094446
-0.00314747
1.62312
-0.0204109
-0.00221499
1.62954
-0.0350872
0.000560121
1.63491
-0.0503074
0.00506545
1.63721
-0.0649704
0.0107923
1.63541
-0.0802463
0.0174833
1.62914
-0.096851
0.0247263
1.61896
-0.114474
0.0316954
1.60626
-0.132244
0.0374444
1.59447
-0.149085
0.0396415
1.59113
-0.161767
0.0345984
1.60259
-0.167307
0.0212626
1.62834
-0.17327
0.00448401
-0.198259
-0.0153825
1.59996
-0.000273466
8.27241e-05
1.60001
-0.000734748
0.000191806
1.60006
-0.00115319
-0.000120193
1.59937
-0.00213945
0.000322447
1.59618
-0.00388872
0.00243095
1.59346
-0.00693491
0.00204839
1.5919
-0.0117148
0.00288799
1.5812
-0.0259064
0.0112109
0.39586
-0.0131101
0.0181891
0.393743
0.394888
0.3928
-0.0216366
-0.0157246
-0.024324
0.399633
-0.0289696
0.00192195
0.410421
-0.0400822
-0.000392813
-0.405976
-0.41442
0.421732
-0.0137292
-0.00112224
-0.421121
0.422643
0.00216439
-0.00272833
-0.418571
0.413644
0.0206963
-0.00255185
1.62053
0.0597589
0.00305154
-0.408033
-0.412093
-0.406852
-0.410876
1.61917
-0.00633183
0.0189759
1.60617
-0.026468
0.0301564
1.58441
-0.0378135
0.0392952
1.55326
-0.0526864
0.048887
1.51298
-0.0676697
0.057745
1.46638
-0.0831321
0.0648283
1.41766
-0.101237
0.0697272
1.37194
-0.123112
0.0719322
1.33522
-0.147982
0.0701677
1.31279
-0.173333
0.0634357
1.30813
-0.196418
0.0518447
1.32642
-0.214472
0.0342763
1.37313
-0.226511
0.0124326
1.4508
-0.237975
-0.0129702
-0.250474
-0.0260049
1.5999
-0.000237522
8.35897e-05
1.59965
-0.000661096
0.000199668
1.59993
-0.00115925
-0.000260922
1.59997
-0.00180224
-0.000351239
1.59628
-0.00252042
0.0023379
1.59067
-0.00520604
0.00390997
1.58475
-0.0106416
0.00487197
0.393168
-0.0223937
0.0145886
0.391872
0.391448
0.390206
0.390791
-0.0128788
0.00215519
0.395396
-0.0482576
0.00561608
0.0365565
-0.389375
0.410963
-0.00160528
-0.41073
0.0444887
-0.0120707
-0.00994027
-0.0151321
-0.00590653
0.426562
-0.421122
0.0148594
-0.00213206
-0.00165898
-0.00598045
-0.000179645
-0.00212403
-0.00279879
-0.00163387
-0.00363253
-0.423276
0.427862
-0.00355603
-0.00572888
4.97389e-05
-0.00320308
-0.00319937
0.00616325
-0.000946137
0.000419658
0.00506469
-0.422234
0.40979
-0.0267875
-0.00144903
0.000508166
0.00413447
0.0016716
0.00455822
0.0113399
0.0133014
0.00513073
1.13736
-0.0683643
0.0841902
-0.370379
-0.213359
-0.355047
-0.154465
1.11215
-0.0690253
0.0880372
1.06605
-0.0655251
0.0853054
1.03134
-0.0794037
0.0764533
1.01225
-0.101157
0.0677073
1.00924
-0.122677
0.0581318
1.0208
-0.142651
0.0480241
1.04389
-0.162067
0.0377513
1.07679
-0.182265
0.0262009
1.12057
-0.203451
0.0116154
1.17582
-0.223526
-0.00516435
1.24044
-0.241595
-0.0195557
1.31092
-0.259867
-0.0251749
1.384
-0.276576
-0.0230627
1.46916
-0.295299
-0.0278429
-0.298775
-0.0282277
1.59988
-0.00018063
8.62202e-05
1.59944
-0.000478388
0.000271915
1.59888
-0.000813374
0.000237327
1.59858
-0.00123578
-0.000246072
1.59639
-0.00184106
0.00152428
1.5893
-0.00281603
0.00472496
1.57686
-0.00467196
0.00650945
0.388814
-0.00936731
0.0169725
0.3872
0.386361
0.384531
0.38088
-0.00783103
0.00379901
0.0119815
0.0114877
-0.0936479
0.0931718
-0.0116667
0.0006299
0.00922974
-0.111948
0.107381
0.000447234
-0.00154694
-0.000834742
-0.00339751
0.000557711
0.00372129
-0.105437
0.103772
-0.0127635
0.0047985
0.000271609
0.00332257
0.00250854
-0.0707108
0.00708764
0.0642118
-0.00552783
0.000416878
0.00186957
0.00159378
0.00105343
-0.0496146
0.00403837
-0.00141926
0.00261981
0.0442055
0.633565
-0.0400769
-0.0870754
-0.102986
-0.135387
-0.158119
-0.177989
0.715341
-0.0732601
-0.077363
0.813043
-0.0939556
-0.0691273
0.91093
-0.113914
-0.0632385
0.999881
-0.132826
-0.0571564
1.07933
-0.149038
-0.0529899
1.15076
-0.162922
-0.0510984
1.21545
-0.175804
-0.0509533
1.27479
-0.1893
-0.0523565
1.33059
-0.204516
-0.0548158
1.38574
-0.222679
-0.0560581
1.44104
-0.247357
-0.0496158
1.4943
-0.279295
-0.0338881
1.54576
-0.305723
-0.0223346
1.60425
-0.327222
-0.0265614
-0.322053
-0.0284019
1.59987
-0.000117764
8.74884e-05
1.59941
-0.000279476
0.000275555
1.59881
-0.000435824
0.000245062
1.59844
-0.000616843
-0.000230242
1.59611
-0.00104817
0.0015599
1.58876
-0.000245328
0.00480281
1.57537
0.00202209
0.00672202
0.386316
0.0064569
0.0178435
0.387346
0.383455
0.384645
0.00365223
0.377555
0.000771054
0.00437377
0.00270476
-0.0900059
0.0837536
0.00207115
0.00149907
-0.00479742
-0.0255894
0.0754896
0.0391177
-0.0144609
-0.0262373
-0.0154302
-0.0277295
-0.0260317
-0.0806509
0.0764062
0.0369386
-0.00661013
-0.0631763
-0.0313514
0.0389894
-0.000194884
0.055587
1.01333
-0.0732426
-0.0704139
-0.160879
-0.197332
-0.243074
-0.308274
1.10506
-0.0734714
-0.0913882
1.19379
-0.0912749
-0.0913078
1.27226
-0.10434
-0.087941
1.33617
-0.11479
-0.0818455
1.38755
-0.125093
-0.0752417
1.43068
-0.136631
-0.0693702
1.46827
-0.149097
-0.064302
1.50258
-0.163346
-0.0603127
1.53587
-0.180555
-0.0573165
1.56955
-0.203334
-0.0530796
1.604
-0.234218
-0.0476476
1.63977
-0.270033
-0.0450619
1.67605
-0.297188
-0.0448209
1.71346
-0.316855
-0.0477674
-0.310985
-0.04006
1.59988
-6.44636e-05
8.72905e-05
1.59956
-0.000158352
0.000210497
1.59974
-0.000351884
-0.000238704
1.59957
-0.000121611
-0.000308608
1.59549
0.000622182
0.00242312
1.58898
0.00217388
0.00411742
1.58054
0.00504727
0.00544819
0.389245
0.0155399
0.0167435
0.390298
0.387103
0.388104
-0.00648373
0.383108
0.00894784
0.00372413
-0.0090028
0.0448643
0.0124109
-0.012117
-0.0104501
-0.0140822
0.0916278
0.088556
0.08989
0.0925533
-0.374079
-0.0324504
-0.0926763
0.0940884
0.000937314
0.030159
-0.111706
-0.0641125
0.0652431
0.0317201
0.0786348
-0.05768
-0.0693884
0.0686055
0.0114163
0.0469774
-0.0334422
-0.0624768
0.0110883
0.0597949
0.0250186
1.47781
-0.0786119
-0.0513638
-0.287866
-0.367789
-0.371706
-0.393573
1.51953
-0.0607433
-0.0543421
1.5501
-0.0660135
-0.0557494
1.57466
-0.0721522
-0.0566582
1.59242
-0.0762992
-0.056172
1.6054
-0.0830425
-0.0549554
1.61544
-0.0928351
-0.0537865
1.62403
-0.104885
-0.0527995
1.63255
-0.119474
-0.0524458
1.64131
-0.136839
-0.0525423
1.65116
-0.159227
-0.0540068
1.6665
-0.187193
-0.0624023
1.69099
-0.222858
-0.0716871
1.71935
-0.2553
-0.0702505
1.74836
-0.280023
-0.065823
-0.282294
-0.0472559
1.59993
-6.21526e-05
8.86548e-05
1.59988
-0.000303248
0.000209088
1.59976
-0.000128174
-8.6657e-05
1.59877
0.000504499
0.00038591
1.59499
0.0018581
0.00256162
1.59102
0.00380713
0.00235538
1.58675
0.00564895
0.00369428
1.56856
0.0202707
0.0134928
0.386588
0.0588996
0.02583
-0.0107791
-0.0191881
-0.0125096
-0.0210979
0.389293
0.384396
0.387171
-0.0395745
0.38561
0.0341359
0.00648744
-0.103477
0.403066
0.0776423
0.0132794
-0.390511
-0.105532
-0.426289
0.441397
0.0657887
0.0242041
-0.0344073
-0.442268
0.439392
0.0125897
0.0245622
0.0152862
-0.43311
0.424299
-0.0203734
0.0139295
1.63728
-0.060685
0.00284703
-0.416523
-0.413294
-0.416246
-0.4119
1.62879
-0.0470518
-0.00511946
1.62049
-0.0448826
-0.0127513
1.61642
-0.0502967
-0.0177048
1.61461
-0.0536246
-0.020775
1.61344
-0.0588867
-0.0229161
1.61297
-0.0673929
-0.0249143
1.61355
-0.0785127
-0.0269488
1.61543
-0.0919501
-0.0294589
1.6191
-0.108431
-0.0321386
1.62453
-0.1282
-0.0365039
1.63958
-0.149768
-0.0525065
1.67102
-0.18346
-0.0708548
1.70819
-0.219063
-0.0733996
1.74498
-0.246923
-0.069871
-0.253443
-0.0473294
1.60006
-0.000193031
9.19253e-05
1.59972
-0.000223743
0.000273356
1.59919
-9.342e-06
0.000432284
1.59788
0.00098702
0.000835672
1.59569
0.00257386
0.00149609
1.5955
0.00287633
0.0011383
1.59255
0.00497133
0.00364652
1.58238
0.0203504
0.0101069
1.57499
0.0493558
0.0169152
1.58663
0.10363
0.0294363
-0.0285268
-0.0385237
-0.0335081
-0.0442316
1.64903
0.145819
0.0413885
-0.0615444
-0.0574904
-0.0674383
-0.0632848
1.67604
0.0780152
0.0382788
-0.0395418
-0.0275147
-0.0415934
-0.0348644
1.65969
0.0360394
0.0196823
-0.00851323
-0.00145897
-0.0158526
-0.0135943
1.63484
-0.0345701
0.00652284
0.0131188
0.0195242
0.00662924
0.0136324
1.61905
-0.045465
0.000620936
1.61258
-0.0372728
-0.00324701
1.61115
-0.0378743
-0.00550621
1.60872
-0.0405404
-0.00725335
1.60816
-0.0445093
-0.00847191
1.60811
-0.0490588
-0.00969886
1.60831
-0.0562238
-0.0113227
1.60918
-0.0659116
-0.0134615
1.6113
-0.0777189
-0.0163995
1.61464
-0.0919684
-0.0198585
1.61884
-0.108142
-0.0242949
1.6329
-0.124079
-0.0397721
1.66662
-0.152192
-0.0649977
1.70711
-0.18667
-0.0728723
1.7466
-0.21468
-0.071718
-0.222675
-0.0468643
1.59998
-0.000246438
9.46971e-05
1.59974
-0.000257812
0.000283385
1.59898
0.000270527
0.000500661
1.59786
0.00131046
0.000813452
1.59733
0.00205914
0.00105541
1.5978
0.00137042
0.00105271
1.59342
0.00526298
0.00410245
1.58952
0.0172387
0.00702317
1.59039
0.0375966
0.0108616
1.594
0.0826986
0.0172636
1.63607
0.0817146
0.0219589
1.65153
0.0432852
0.0191971
1.64511
0.0324968
0.00992921
1.63029
-0.0217996
0.00205712
1.61917
-0.0327224
-0.00158458
1.61511
-0.0301314
-0.00303721
1.61168
-0.030718
-0.00366754
1.60874
-0.032176
-0.00535125
1.60702
-0.0360353
-0.00668159
1.60598
-0.0399771
-0.00796946
1.60533
-0.0459691
-0.00955997
1.60535
-0.0542125
-0.0117084
1.60658
-0.0643158
-0.0146831
1.60927
-0.0762593
-0.0184587
1.61323
-0.089767
-0.0223533
1.62617
-0.101962
-0.0350683
1.66018
-0.123649
-0.062554
1.70333
-0.154671
-0.0751445
1.74533
-0.181115
-0.0755477
-0.189158
-0.047472
1.59999
-0.000316653
9.69957e-05
1.59964
-0.000162247
0.000268286
1.59919
0.000272725
0.000469195
1.59848
0.00130853
0.000726931
1.59872
0.000916544
0.000909855
1.59652
0.00204508
0.0015363
1.59401
0.00428238
0.0035083
1.59184
0.0146506
0.00475803
1.59577
0.026531
0.00711226
1.60909
0.0589132
0.0104332
1.62736
0.050948
0.012464
1.65162
0.00836623
0.0106271
1.63638
0.041936
0.00578657
1.62718
-0.0133543
0.00076547
1.61903
-0.0226699
-0.00187616
1.6146
-0.0226779
-0.00299038
1.61082
-0.023466
-0.00342708
1.6078
-0.0243378
-0.00475917
1.60548
-0.0278927
-0.00575315
1.60382
-0.031432
-0.00681919
1.60259
-0.0363936
-0.00829427
1.60198
-0.0431139
-0.0104872
1.60256
-0.0513582
-0.0135828
1.60483
-0.0609479
-0.0176414
1.60861
-0.0717159
-0.0218524
1.62069
-0.0807246
-0.0333094
1.65447
-0.0961842
-0.0612382
1.69951
-0.121858
-0.0778458
1.74342
-0.145431
-0.079575
-0.15306
-0.0480555
1.59998
-0.000375449
9.63724e-05
1.59972
-0.000144617
0.000251106
1.5993
0.000279974
0.000431339
1.59873
0.00123244
0.000657675
1.59821
0.000629071
0.000823595
1.59678
0.00198877
0.00149498
1.5947
0.00354181
0.00282795
1.59508
0.0107229
0.00354955
1.59832
0.0183574
0.00492823
1.61045
0.0401318
0.00663122
1.62218
0.0314964
0.00771387
1.62263
0.00142416
0.00649488
1.6299
0.0309329
0.0037453
1.62395
-0.0080099
0.000614892
1.61778
-0.0152118
-0.00126685
1.61356
-0.0162935
-0.00213514
1.60991
-0.0174112
-0.00236427
1.60686
-0.0178328
-0.00340232
1.60417
-0.0208367
-0.00430201
1.60196
-0.0237122
-0.00544586
1.60016
-0.0274984
-0.00705967
1.599
-0.0325661
-0.00938902
1.59904
-0.0388138
-0.0126482
1.60105
-0.0459903
-0.0170187
1.60494
-0.0539671
-0.0216348
1.61666
-0.0600816
-0.0323434
1.6499
-0.0693757
-0.0600589
1.69636
-0.0883438
-0.079978
1.74195
-0.107889
-0.0831148
-0.114372
-0.0483498
1.59994
-0.000393229
9.32457e-05
1.59979
-0.000221679
0.000236214
1.59943
0.000260935
0.000402267
1.5991
0.000968396
0.000604346
1.59845
0.000515534
0.000775429
1.59764
0.00149612
0.00131126
1.5972
0.00165235
0.00233316
1.59722
0.00793207
0.00277078
1.60056
0.0113049
0.00370735
1.61103
0.0251948
0.00447481
1.61915
0.0182997
0.00508238
1.61729
-0.00110724
0.0044189
1.62552
0.0203277
0.00239737
1.62161
-0.0045138
0.000426655
1.61681
-0.00936293
-0.00102153
1.61289
-0.0105367
-0.00181757
1.60927
-0.0116795
-0.00207733
1.60612
-0.0115974
-0.00303568
1.60313
-0.0138213
-0.00396387
1.60048
-0.0158424
-0.00516256
1.59825
-0.0184114
-0.00682538
1.59669
-0.0218242
-0.00919349
1.5964
-0.0260407
-0.0125476
1.59832
-0.0308259
-0.0171276
1.60252
-0.0360389
-0.0221225
1.61409
-0.0395846
-0.0320447
1.64671
-0.0437627
-0.0582226
1.69399
-0.0553168
-0.0803119
1.74083
-0.0696345
-0.0850754
-0.0741927
-0.0475065
1.59995
-0.000418913
9.08607e-05
1.59979
-0.000273994
0.000224571
1.5996
8.06901e-05
0.00038072
1.59937
0.000642767
0.000569998
1.59886
0.000251322
0.0007829
1.59874
0.000463239
0.00115874
1.59725
0.00117328
0.00197849
1.59879
0.00411005
0.00228009
1.6022
0.00493029
0.00296408
1.61122
0.0127811
0.00338882
1.61742
0.00842415
0.00368167
1.61436
-0.00113836
0.0031112
1.62282
0.0100642
0.00182036
1.62006
-0.00205435
0.000311292
1.61607
-0.0044876
-0.000868653
1.61237
-0.00520297
-0.00161422
1.60886
-0.00619015
-0.00194838
1.60554
-0.00549336
-0.00274539
1.60238
-0.00692827
-0.00368862
1.59947
-0.00800815
-0.00489279
1.59697
-0.00932836
-0.00658275
1.59515
-0.0110648
-0.00900211
1.59467
-0.0132001
-0.0124523
1.59658
-0.0155885
-0.0172202
1.60114
-0.0180928
-0.0224939
1.6128
-0.0195978
-0.0315988
1.645
-0.0208647
-0.0551046
1.69254
-0.0257155
-0.077161
1.74025
-0.033315
-0.0840147
-0.0349918
-0.0443424
1.5995
9.02409e-05
1.59901
0.000223941
1.59873
0.000366401
1.59883
0.000555858
1.59829
0.000796899
1.59767
0.00108384
1.59707
0.00177294
1.59913
0.00205025
1.60145
0.00261335
1.61127
0.0029568
1.61664
0.00306275
1.613
0.00252003
1.62155
0.00152051
1.6193
0.000204968
1.61569
-0.000864333
1.6121
-0.0016004
1.60791
-0.00198115
1.60518
-0.00274745
1.60199
-0.00371004
1.59894
-0.00493907
1.59628
-0.00667362
1.59432
-0.00914758
1.59373
-0.0126581
1.59567
-0.017552
1.60047
-0.0228692
1.61227
-0.0313827
1.64484
-0.0534299
1.69279
-0.0736698
1.74072
-0.0812388
-0.03813
1.59967
0.000320394
0.000104103
1.59941
0.000129427
0.000334476
1.59941
-0.000268458
0.000588321
1.59954
-0.000519417
0.000867158
1.6003
-0.00145175
0.00134756
1.60082
-0.00146843
0.00179835
1.60155
-0.00169564
0.00236899
1.60459
-0.0045127
0.00297356
1.60738
-0.00446279
0.00349499
1.61067
-0.00508355
0.00369874
1.61663
-0.00765033
0.00352452
1.61169
0.00402276
0.00228632
1.61924
-0.0086593
0.00191361
1.62231
-0.00335337
0.000427937
1.62158
0.000869127
-0.00042084
1.62198
9.34624e-05
-0.000852236
1.62575
-0.00251105
-0.00130253
1.62928
-0.00443384
0.00089206
1.63339
-0.00431122
0.000198912
1.63887
-0.00558519
0.000180029
1.646
-0.00729668
0.00031931
1.6549
-0.00914935
0.000431985
1.66573
-0.0111758
0.000545727
1.67862
-0.0133723
0.000798411
1.69351
-0.0157122
0.00145771
1.70988
-0.0177714
0.00244828
1.72745
-0.0197547
0.00454018
1.74567
-0.0206113
0.00370933
1.76775
-0.0267306
0.0128209
-0.0449581
-0.0190016
1.60006
0.000245617
0.000106388
1.6001
-4.60942e-05
0.000342857
1.60021
-0.000643688
0.000602613
1.60026
-0.000920248
0.000845933
1.60038
-0.00240429
0.00146629
1.60101
-0.00308254
0.00190398
1.60199
-0.00363735
0.00254657
1.60449
-0.0086105
0.00325348
1.60841
-0.0102237
0.00389361
1.61326
-0.0120156
0.00418124
1.61726
-0.0135505
0.00397315
1.61299
0.00768509
0.00213666
1.61991
-0.0171403
0.00234533
1.62395
-0.0076435
0.000293508
1.62355
0.0015043
-0.000654499
1.6242
-0.000103389
-0.000904925
1.62769
-0.0046051
-0.00144878
1.62908
-0.00663334
0.000768659
1.6327
-0.0081056
0.000181839
1.63805
-0.0110613
0.000233644
1.64504
-0.0144921
0.000420745
1.65379
-0.0181933
0.000561555
1.66447
-0.0222554
0.000682535
1.67732
-0.0267755
0.000950652
1.692
-0.0313151
0.00160372
1.70861
-0.0357792
0.0025409
1.72651
-0.0398404
0.00460648
1.74679
-0.0436223
0.00496117
1.77481
-0.059639
0.0134977
-0.0910099
-0.0109796
1.60002
0.00020678
0.000111581
1.60011
-0.000272533
0.000360706
1.60005
-0.000859683
0.000636461
1.60006
-0.00124265
0.000829153
1.59991
-0.00331276
0.0016892
1.60008
-0.00433807
0.00213569
1.60242
-0.00702378
0.00294192
1.60355
-0.0115965
0.00388603
1.60753
-0.0165071
0.00481617
1.61297
-0.0201004
0.00531546
1.61107
-0.0140813
0.00505861
1.615
0.00302483
0.00264805
1.62241
-0.0265904
0.00276746
1.62423
-0.00963114
4.30115e-05
1.62303
0.00307283
-0.00100135
1.62326
5.66405e-05
-0.000939594
1.62608
-0.00646292
-0.00086461
1.62801
-0.00903494
0.000531967
1.63172
-0.0119865
0.000405228
1.63697
-0.0165569
0.000665614
1.64382
-0.0217117
0.000955294
1.65243
-0.0272577
0.00115447
1.66314
-0.0335034
0.00129607
1.67574
-0.040061
0.00155042
1.69056
-0.0470956
0.00203781
1.70764
-0.0541694
0.00282027
1.72667
-0.0604404
0.00432605
1.75104
-0.0701805
0.00501236
1.78679
-0.0995844
0.013144
-0.136105
-0.00660861
1.60006
0.000128168
0.000119013
1.60001
-0.000376228
0.000386069
1.59994
-0.00107776
0.000686393
1.59997
-0.00157719
0.000877696
1.5996
-0.00421956
0.00194432
1.59919
-0.00520738
0.00249189
1.60007
-0.00917013
0.00357296
1.60214
-0.0159914
0.00493783
1.60632
-0.0238463
0.00641964
1.61354
-0.0306668
0.00718238
1.61825
-0.0221585
0.00692066
1.61929
0.0015207
0.00266214
1.62446
-0.0350418
0.00426591
1.62488
-0.0102637
-0.000151833
1.6223
0.00625181
-0.00157648
1.62209
0.00072488
-0.00113319
1.62451
-0.00831429
-0.00033836
1.62664
-0.0115944
0.000701729
1.63025
-0.0160206
0.00099654
1.63537
-0.0222385
0.0014506
1.64204
-0.0290647
0.00185796
1.65043
-0.0364037
0.00211779
1.66083
-0.044759
0.00232088
1.67341
-0.0535457
0.0024594
1.68847
-0.0631378
0.00262463
1.70615
-0.0729828
0.00308234
1.72741
-0.0817917
0.00287379
1.75663
-0.0997279
0.00276977
1.79524
-0.140012
0.00885472
-0.175063
-0.0100903
1.60006
4.02675e-05
0.000128159
1.59995
-0.000424737
0.000417465
1.59985
-0.00130042
0.000750149
1.60028
-0.00232941
0.000975695
1.59655
-0.000747007
0.00100895
1.59818
-0.00983198
0.00421028
1.59858
-0.011155
0.00448381
1.59968
-0.0201159
0.0065443
1.60503
-0.0335812
0.00906342
1.61649
-0.0466126
0.0103175
1.62628
-0.037156
0.00997752
1.64647
-0.0193374
0.0031848
1.62948
-0.0222838
0.00513788
1.62591
-0.00638645
-0.00109021
1.62114
0.0121735
-0.00251017
1.62061
0.00200961
-0.00135492
1.62253
-0.00986039
0.000360462
1.62467
-0.0143973
0.00151959
1.62817
-0.0205636
0.00233008
1.63317
-0.0286183
0.00317152
1.63969
-0.0371671
0.00383334
1.64814
-0.0465529
0.00424116
1.65824
-0.0566727
0.00448069
1.67109
-0.0679697
0.00429946
1.68668
-0.0802351
0.00419146
1.70533
-0.0925961
0.00380102
1.72921
-0.103619
0.00097982
1.7612
-0.129017
-0.000518257
1.79731
-0.174119
0.00272398
-0.205169
-0.0162989
1.60013
-0.000134097
0.000138609
1.59995
-0.000407792
0.000437207
1.59959
-0.00126425
0.000792583
1.59948
-0.00262629
0.00115403
1.60265
-0.00338055
0.000360836
1.59696
-0.00925354
0.00582511
1.59663
-0.0131724
0.00573285
1.59669
-0.0236975
0.00890345
1.60214
-0.0450566
0.0132874
1.61815
-0.0691351
0.0158416
1.64405
-0.0713987
0.0144781
1.64355
-0.019884
0.00325224
1.65021
-0.0344911
0.00520228
1.62736
0.0179853
-0.00378479
1.61929
0.0226232
-0.00504719
1.6193
0.00346425
-0.0022382
1.62045
-0.00993412
0.000956219
1.62224
-0.0158981
0.00293591
1.62584
-0.0244651
0.00469605
1.63113
-0.034982
0.00643018
1.63827
-0.0460676
0.00784165
1.64678
-0.0572432
0.00882142
1.65756
-0.0696389
0.00955553
1.67074
-0.0826437
0.00992486
1.68593
-0.0961831
0.0106135
1.70366
-0.108026
0.00878603
1.72661
-0.117624
0.00193344
1.7554
-0.146906
-0.00324767
1.78508
-0.194063
-0.0047538
-0.225669
-0.0218193
1.59998
-0.000157609
0.000142761
1.60013
-0.000741516
0.000447854
1.59981
-0.00103506
0.000501826
1.59933
-0.00248045
0.00111032
1.59956
-0.00402286
0.001757
1.59393
-0.0077864
0.0049728
1.58986
-0.0148119
0.00853701
1.59005
-0.0281798
0.0123542
1.59996
-0.0632694
0.0198454
1.60878
-0.0240603
0.0246948
-0.0234725
-0.0234567
-0.017194
1.63656
-0.0341019
0.0225537
-0.0257638
-0.0280944
-0.0270245
1.64265
-0.00509835
0.0063353
-0.0105666
-0.00337858
-0.0109386
1.64054
-0.00492998
0.00566938
-0.0120923
-0.00675963
-0.0161292
1.62381
0.00838099
-0.00594353
0.0119828
0.00778564
0.00871339
1.615
0.0337031
-0.00689927
1.61703
-0.00126043
-0.00115473
1.61903
-0.0175658
0.00257939
1.62189
-0.0247751
0.00390851
1.62683
-0.0346701
0.00591632
1.63261
-0.0450059
0.00937348
1.63774
-0.0541651
0.0138036
1.64277
-0.0636666
0.0188658
1.64768
-0.073943
0.0240701
1.65278
-0.084858
0.0287383
1.65944
-0.0967113
0.0312315
1.67241
-0.105107
0.0236652
1.69414
-0.110906
0.00609415
1.72006
-0.144401
-0.00717029
1.74602
-0.199974
-0.0155537
-0.24054
-0.0279665
1.60001
-0.000211708
0.00014287
1.59982
-0.000630516
0.000282618
1.5994
-0.00155338
0.000839187
1.59826
-0.00236945
0.0013732
1.59818
-0.00267993
0.00118986
1.59418
-0.00728404
0.00556921
1.58507
-0.0142556
0.0114705
1.58344
-0.0322332
0.0169184
0.395216
-0.0147108
0.0321806
0.393427
0.396056
0.394071
-0.0219047
-0.0150209
-0.0209252
-0.00586474
0.397921
-0.0293491
0.00845591
-0.00270754
0.407861
-0.0402532
0.00550918
-0.404485
0.00109679
-0.412321
0.416179
-0.00995997
-8.36993e-05
0.00197738
-0.416046
0.418127
-0.00829989
-0.000595072
0.000775631
-0.416281
0.411651
0.0114462
0.00084375
1.61167
0.0589257
-0.0045054
-0.406535
-0.407768
-0.407459
-0.407476
1.61172
0.00240711
0.0153425
1.6078
-0.014188
0.0308008
1.60345
-0.0227489
0.0417153
1.5966
-0.0308641
0.0520225
1.58441
-0.0371305
0.062134
1.56809
-0.0426583
0.0696821
1.5498
-0.049685
0.0740313
1.53324
-0.0593007
0.0737974
1.5223
-0.0719499
0.0681257
1.52343
-0.0881102
0.0536347
1.54821
-0.100403
0.022284
1.59492
-0.110703
-0.012696
1.64342
-0.152356
-0.0281247
1.68381
-0.21795
-0.0353825
-0.262177
-0.0369345
1.59994
-0.000213167
0.000153743
1.59986
-0.000585679
0.000256236
1.5987
-0.00112217
0.000486378
1.59529
-0.0020206
0.00273324
1.59636
-0.00290666
0.00151401
1.59157
-0.00446636
0.00590676
1.5806
-0.0102557
0.0118661
0.391696
-0.0245393
0.0244045
0.389963
0.392052
0.389407
-0.00559203
0.389255
-0.0146073
0.00794207
0.389737
-0.0424566
0.0157979
-0.010639
0.0355666
-0.388042
0.00338081
0.0021817
-0.404617
0.0468812
0.102767
0.101981
0.102148
0.102356
-0.0119899
-0.0154358
-0.0125273
-0.017059
0.00241468
-0.103783
0.00403168
0.105919
-0.00568573
-0.00285835
-0.105437
0.00207174
0.00411369
0.10657
-0.00583271
-0.00149366
-0.10678
-0.00713652
-0.00241899
0.00410987
0.00626869
0.105956
1.43778
0.118328
0.0497539
-0.382975
-0.305655
-0.398517
-0.375486
1.39945
0.0632929
0.0655751
1.3581
0.0409903
0.0715617
1.32035
0.0218297
0.0697303
1.29002
0.00274056
0.0645362
1.26907
-0.0141319
0.0561652
1.26002
-0.030172
0.0446388
1.26586
-0.047245
0.0294654
1.28688
-0.0656013
0.0114153
1.31911
-0.0845411
-0.00808124
1.36025
-0.103605
-0.0308608
1.41498
-0.117218
-0.0575454
1.48728
-0.138864
-0.0693616
1.56872
-0.194129
-0.0627541
1.64055
-0.260584
-0.057034
-0.289355
-0.0445877
1.59989
-0.000177878
0.000168374
1.5996
-0.000472234
0.00046573
1.59956
-0.000801123
-1.87024e-05
1.59707
-0.00121433
0.00145292
1.59484
-0.00180034
0.00267233
1.59115
-0.00274578
0.0067183
1.58037
-0.00446427
0.0115182
0.388393
-0.00871856
0.0302627
0.387614
0.387222
0.388065
0.37956
-0.00865718
0.0117691
-0.00810196
0.0138296
-0.00512999
0.0112626
-0.0927108
0.09163
-0.0115983
0.0065285
-0.000370548
0.00470136
-0.0263297
0.0265565
-0.00485261
0.000293141
0.00115026
0.000437485
-0.00667717
0.00729892
-0.00122625
-0.000148883
-0.000398842
-0.000162513
-0.000267187
0.00104315
-0.00103008
-0.00664707
0.00676701
-0.000849597
0.000195914
0.000141248
0.000222214
0.000156919
-0.00643456
0.000815688
-0.00123687
0.00133211
-0.000657634
0.00618503
0.90792
-0.0198926
-0.0808324
-0.259252
-0.172145
-0.232577
-0.111783
0.985206
-0.0335274
-0.0577196