/*--------------------------------*- C++ -*----------------------------------*\
| =========                 |                                                 |
| \\      /  F ield         | OpenFOAM: The Open Source CFD Toolbox           |
|  \\    /   O peration     | Version:  2512                                  |
|   \\  /    A nd           | Website:  www.openfoam.com                      |
|    \\/     M anipulation  |                                                 |
\*---------------------------------------------------------------------------*/
FoamFile
{
    version     2.0;
    format      ascii;
    arch        "LSB;label=32;scalar=64";
    class       volVectorField;
    location    "240";
    object      U;
}
// * * * * * * * * * * * * * * * * * * * * * * * * * * * * * * * * * * * * * //

dimensions      [0 1 -1 0 0 0 0];

internalField   nonuniform List<vector> 
90398
(
(20.0001 -0.000293972 0.000177291)
(20.001 -0.000933336 0.000573708)
(20.0027 -0.00175372 0.00103827)
(20.0057 -0.00293535 0.00160866)
(20.011 -0.0046865 0.00231828)
(20.0204 -0.00724366 0.00318386)
(20.0364 -0.0107959 0.00423121)
(20.062 -0.0153358 0.00537962)
(20.1001 -0.0201616 0.0063512)
(20.1516 -0.0239037 0.00683703)
(20.2119 -0.0237605 0.00636162)
(20.2687 -0.0178836 0.00479721)
(20.3059 -0.00830588 0.00247342)
(20.3156 -3.71617e-05 0.000132654)
(20.3067 0.00245587 -0.00141285)
(20.3001 -0.000504533 -0.00182835)
(20.3107 -0.00530293 -0.00147727)
(20.3393 -0.00989819 -0.000963712)
(20.3821 -0.0148084 -0.000502391)
(20.4398 -0.0206953 -1.81095e-05)
(20.5163 -0.0273546 0.000534683)
(20.6146 -0.0344999 0.00112131)
(20.7358 -0.0421531 0.00185912)
(20.8821 -0.0502271 0.00279802)
(21.0498 -0.0584881 0.00453243)
(21.2479 -0.0659715 0.00679281)
(21.4366 -0.0721355 0.0129272)
(21.6989 -0.0757205 0.00565683)
(21.7828 -0.0739552 0.0376405)
(22.2906 -0.0848026 -0.061844)
(20.0001 -0.000858281 0.000181063)
(20.0008 -0.00273026 0.000587816)
(20.0022 -0.00514313 0.00106891)
(20.0046 -0.00863568 0.0016687)
(20.0091 -0.0138534 0.00243057)
(20.0175 -0.0215559 0.00338381)
(20.0322 -0.0324001 0.00457034)
(20.057 -0.0465069 0.00591554)
(20.0956 -0.0618985 0.00715063)
(20.1502 -0.0741871 0.00787487)
(20.2162 -0.0739726 0.00729402)
(20.2787 -0.0550315 0.00532505)
(20.3173 -0.0242024 0.00249022)
(20.3227 0.00220741 -0.000327581)
(20.307 0.00978748 -0.00205254)
(20.2961 4.62556e-05 -0.00234286)
(20.3056 -0.014935 -0.00179123)
(20.334 -0.0287251 -0.00115863)
(20.3759 -0.0431796 -0.000604205)
(20.4324 -0.0604281 1.12649e-05)
(20.5079 -0.0799987 0.000701101)
(20.6054 -0.101286 0.00139373)
(20.7257 -0.124453 0.00214842)
(20.8714 -0.149179 0.0031593)
(21.0393 -0.17459 0.00501554)
(21.2382 -0.197927 0.00752068)
(21.4297 -0.217819 0.0135275)
(21.6959 -0.230798 0.00902018)
(21.7802 -0.230061 0.0409277)
(22.3256 -0.287828 -0.0376154)
(20.0001 -0.00136457 0.000190496)
(20.0005 -0.00435081 0.000620975)
(20.0012 -0.00822421 0.00113826)
(20.0025 -0.0138826 0.00180236)
(20.0053 -0.0224625 0.00267438)
(20.0113 -0.0353761 0.00381333)
(20.0234 -0.0541006 0.00528617)
(20.0462 -0.0792357 0.00707452)
(20.0855 -0.107871 0.00884881)
(20.1465 -0.132069 0.0100761)
(20.2253 -0.132341 0.00921577)
(20.3004 -0.0962916 0.00627619)
(20.3421 -0.0384704 0.00232586)
(20.3378 0.010093 -0.00150664)
(20.3072 0.0226054 -0.00355174)
(20.287 0.00354445 -0.00345317)
(20.2951 -0.0233007 -0.00233749)
(20.3239 -0.0470661 -0.00131717)
(20.3644 -0.0717575 -0.000462963)
(20.4188 -0.100544 0.000497773)
(20.4926 -0.132464 0.00157479)
(20.5885 -0.167208 0.00261375)
(20.7072 -0.205674 0.00370327)
(20.8517 -0.24748 0.00515762)
(21.0199 -0.290869 0.00722169)
(21.2204 -0.331711 0.0096773)
(21.4172 -0.368192 0.0157843)
(21.687 -0.39273 0.012616)
(21.7885 -0.413786 0.0454278)
(22.3833 -0.539898 -0.0209803)
(20 -0.00178507 0.000203175)
(20.0001 -0.0057007 0.000666181)
(19.9998 -0.0108177 0.00123463)
(19.9994 -0.0183871 0.00199066)
(19.9995 -0.0301128 0.00303101)
(20.0016 -0.0482863 0.00444944)
(20.0091 -0.0757548 0.00640095)
(20.0278 -0.114499 0.00893949)
(20.0671 -0.161835 0.0117181)
(20.139 -0.205246 0.0139129)
(20.2406 -0.205819 0.0123661)
(20.3377 -0.143421 0.00750206)
(20.384 -0.0476593 0.00185002)
(20.3622 0.0281273 -0.00347618)
(20.3059 0.0418595 -0.00594765)
(20.2713 0.00711631 -0.00518925)
(20.278 -0.033837 -0.00328372)
(20.3077 -0.0682966 -0.00178761)
(20.3464 -0.105572 -0.000556372)
(20.3983 -0.148754 0.000813833)
(20.4699 -0.194725 0.00230406)
(20.5629 -0.243226 0.00372266)
(20.6783 -0.296281 0.00521683)
(20.8206 -0.353904 0.00700955)
(20.9893 -0.413761 0.00874532)
(21.194 -0.471716 0.0106144)
(21.4013 -0.52415 0.0154516)
(21.6812 -0.561017 0.0123337)
(21.8224 -0.622175 0.0412053)
(22.4429 -0.799506 -0.025323)
(20 -0.00208786 0.000218398)
(19.9995 -0.00667238 0.000721327)
(19.9979 -0.0127123 0.00135459)
(19.9952 -0.021781 0.00222849)
(19.9916 -0.0362142 0.00350109)
(19.9881 -0.0594677 0.00534187)
(19.9878 -0.0966788 0.0080357)
(19.9986 -0.152689 0.0118404)
(20.0353 -0.228017 0.0165177)
(20.1248 -0.306547 0.0205182)
(20.2664 -0.307233 0.0166689)
(20.3985 -0.199758 0.00708697)
(20.4494 -0.0433684 -0.00193793)
(20.3961 0.0741598 -0.00885045)
(20.2991 0.0829214 -0.0106084)
(20.2461 0.0185761 -0.00741526)
(20.2544 -0.0417945 -0.00319894)
(20.2849 -0.0872986 -0.000139222)
(20.3194 -0.138524 0.00237747)
(20.3677 -0.19878 0.00485448)
(20.4382 -0.261889 0.00696361)
(20.5318 -0.327167 0.00857672)
(20.6511 -0.39747 0.0100574)
(20.8026 -0.473207 0.0115555)
(20.9876 -0.55182 0.0126419)
(21.2149 -0.629973 0.014629)
(21.4481 -0.696936 0.0195634)
(21.7414 -0.745334 0.0181218)
(21.9082 -0.838294 0.0396491)
(22.4904 -1.03409 -0.0319591)
(19.9999 -0.00224604 0.000235078)
(19.9988 -0.00717763 0.000781745)
(19.9957 -0.0137164 0.00148896)
(19.9902 -0.0236852 0.00250119)
(19.9818 -0.0400452 0.00407336)
(19.9702 -0.0677204 0.0065127)
(19.958 -0.115211 0.0103711)
(19.9536 -0.193709 0.0162886)
(19.9802 -0.312367 0.0243394)
(20.0975 -0.450231 0.0328543)
(20.3093 -0.450325 0.0222818)
(20.5006 -0.283801 0.0030239)
(20.5533 -0.0437791 -0.011072)
(20.4423 0.143954 -0.0207279)
(20.2767 0.149054 -0.0217135)
(20.2 0.0471253 -0.0150703)
(20.2166 -0.0279883 -0.00614952)
(20.2513 -0.0747938 0.00169451)
(20.2852 -0.131271 0.0085834)
(20.343 -0.204775 0.014514)
(20.4354 -0.289722 0.0195538)
(20.5576 -0.384849 0.0252053)
(20.7041 -0.489732 0.0329956)
(20.8722 -0.599721 0.0438068)
(21.053 -0.708124 0.0563749)
(21.245 -0.807802 0.0710985)
(21.4117 -0.875618 0.0857762)
(21.6181 -0.914754 0.0822308)
(21.7155 -0.998755 0.0757251)
(22.192 -1.19619 -0.0202623)
(19.9998 -0.0022437 0.000252404)
(19.998 -0.00715856 0.000841475)
(19.9934 -0.0136917 0.00162085)
(19.9847 -0.0237388 0.00277836)
(19.9704 -0.0407156 0.0046895)
(19.9481 -0.0709202 0.00786773)
(19.9174 -0.128111 0.013394)
(19.8853 -0.231345 0.0226779)
(19.888 -0.436615 0.0372272)
(20.0444 -0.649996 0.0515325)
(20.3645 -0.605372 0.0216215)
(20.642 -0.32907 -0.00582658)
(20.7044 -0.0236745 -0.0202612)
(20.5119 0.235125 -0.0321454)
(20.2397 0.185181 -0.0315987)
(20.1312 -0.0136458 -0.0328169)
(20.1899 -0.157009 -0.0387189)
(20.2716 -0.259968 -0.0399384)
(20.3415 -0.361167 -0.0277443)
(20.412 -0.458268 -0.00114115)
(20.467 -0.547636 0.0366239)
(20.479 -0.635016 0.081678)
(20.4324 -0.724373 0.129493)
(20.3284 -0.815192 0.174365)
(20.1815 -0.905545 0.208785)
(20.0194 -0.99086 0.228229)
(19.8711 -1.04717 0.22835)
(19.9351 -1.07138 0.182114)
(20.0683 -1.12823 0.0985668)
(20.7934 -1.32904 -0.0394999)
(19.9998 -0.00208523 0.000267741)
(19.9973 -0.00659737 0.000901393)
(19.9911 -0.0125608 0.00174792)
(19.9792 -0.0217745 0.00300831)
(19.9585 -0.0376042 0.00518672)
(19.9231 -0.0668659 0.00915552)
(19.866 -0.127711 0.0170145)
(19.7777 -0.25393 0.0310063)
(19.7186 -0.561857 0.0623369)
(19.9051 -0.778089 0.0350439)
(20.408 -0.806949 -0.00669904)
(20.8348 -0.42918 -0.0542122)
(20.9735 0.0863785 -0.0484003)
(20.8145 0.494909 -0.0430954)
(20.3167 0.470518 0.0179085)
(20.1906 0.243529 0.0968642)
(20.1696 0.124097 0.165846)
(20.002 0.0190976 0.215032)
(19.6573 -0.105608 0.255021)
(19.1922 -0.230268 0.287301)
(18.6437 -0.354721 0.310157)
(18.0411 -0.494802 0.321343)
(17.4353 -0.660256 0.316017)
(16.9011 -0.849389 0.288742)
(16.5202 -1.04907 0.238538)
(16.3513 -1.23845 0.17311)
(16.3839 -1.39162 0.100951)
(16.7957 -1.47869 0.0137128)
(17.4446 -1.5309 -0.0920384)
(19.0011 -1.65979 -0.159843)
(19.9997 -0.00178186 0.000280287)
(19.9967 -0.00556049 0.000947693)
(19.9892 -0.0104166 0.00186243)
(19.9746 -0.0176434 0.00323509)
(19.948 -0.0302246 0.00549887)
(19.8993 -0.054021 0.0101966)
(19.8075 -0.104678 0.0195079)
(19.6403 -0.237706 0.0449291)
(19.5627 -0.438571 0.0378627)
(19.5482 -1.33338 0.0847469)
(20.7164 -0.974051 -0.00251684)
(21.1434 -0.33214 -0.0776662)
(21.4292 0.142907 0.0112002)
(20.5179 0.600446 0.285888)
(14.2578 0.0808926 0.586448)
(14.0147 -0.366355 0.368198)
(13.6093 -0.448985 0.288839)
(13.1151 -0.512144 0.211223)
(12.7147 -0.648492 0.130813)
(12.5658 -0.80233 0.05621)
(12.647 -0.953026 -0.00652529)
(12.8851 -1.11414 -0.0615342)
(13.2376 -1.29612 -0.119396)
(13.7117 -1.48812 -0.183543)
(14.3414 -1.65744 -0.242377)
(15.1082 -1.78894 -0.280761)
(15.9324 -1.88736 -0.277652)
(16.8646 -1.95251 -0.231087)
(17.6715 -2.03325 -0.205639)
(19.2186 -2.08791 -0.173088)
(19.9997 -0.00136779 0.000289143)
(19.9963 -0.00415241 0.00097702)
(19.9879 -0.00748736 0.00193071)
(19.9712 -0.0120835 0.00342851)
(19.9411 -0.0194597 0.00596632)
(19.881 -0.0325693 0.0111093)
(19.7656 -0.0624592 0.0223123)
(19.4827 -0.13965 0.0560508)
(19.2089 -0.345142 0.0630712)
(18.7399 -1.3884 0.0521227)
(22.6647 -0.854671 -0.0753227)
(21.3034 -0.737676 0.794012)
(13.6424 -1.41364 0.625708)
(9.00321 -0.464988 0.350829)
(6.75431 -0.224795 -0.82532)
(8.09461 -0.541072 -1.02552)
(9.66714 -0.586086 -0.972557)
(10.8685 -0.703689 -0.862957)
(11.9485 -0.886215 -0.759874)
(12.9979 -1.05884 -0.676763)
(13.9612 -1.20012 -0.610944)
(14.8167 -1.32093 -0.558344)
(15.5884 -1.43659 -0.51623)
(16.306 -1.55576 -0.480871)
(16.9947 -1.68351 -0.443864)
(17.6913 -1.83698 -0.379518)
(18.3546 -2.02899 -0.259316)
(19.0206 -2.20491 -0.135225)
(19.584 -2.38247 -0.105885)
(20.6268 -2.39451 -0.126351)
(19.9997 -0.000889697 0.000292683)
(19.9961 -0.00253844 0.000988228)
(19.9874 -0.00412886 0.00195513)
(19.9701 -0.00565501 0.00347255)
(19.9389 -0.00690666 0.00606772)
(19.8754 -0.00739021 0.0113446)
(19.7545 -0.00216612 0.0229144)
(19.442 0.0145362 0.0587175)
(19.0514 0.0144577 0.073821)
(17.3079 0.0432796 0.109109)
(10.9326 4.12908 -6.94304)
(17.005 4.01609 -2.12817)
(11.7424 4.51926 -0.0304989)
(11.5631 -0.836114 -0.109614)
(13.0825 -0.830865 -0.424188)
(14.5195 -0.929533 -0.521998)
(15.5306 -1.03456 -0.528878)
(16.3327 -1.11924 -0.501833)
(17.0384 -1.19276 -0.465803)
(17.6423 -1.26303 -0.428673)
(18.148 -1.3374 -0.392594)
(18.5906 -1.42541 -0.358828)
(19.0078 -1.53618 -0.326529)
(19.4259 -1.68791 -0.290901)
(19.8583 -1.90277 -0.243364)
(20.283 -2.15854 -0.19162)
(20.7366 -2.35488 -0.170711)
(21.1477 -2.50362 -0.202595)
(21.7393 -2.4352 -0.210519)
(19.9997 -0.000402656 0.000290591)
(19.9962 -0.000907433 0.000981376)
(19.9877 -0.000755497 0.00193159)
(19.9712 0.000656623 0.00336826)
(19.9413 0.00546097 0.00576227)
(19.8843 0.0170966 0.0107838)
(19.7761 0.0487365 0.0211481)
(19.5484 0.14299 0.0511636)
(19.2498 0.318506 0.0639192)
(18.3374 1.52506 0.198122)
(18.8317 3.80889 -0.0717002)
(12.1379 12.0988 0.275411)
(13.8122 6.68235 -0.496498)
(12.3033 3.77027 0.415967)
(18.0238 -0.594614 0.280328)
(18.6612 -0.429612 0.0994287)
(19.2719 -0.52281 -0.0137384)
(19.5994 -0.609252 -0.0790389)
(19.8087 -0.662361 -0.118002)
(19.9934 -0.721143 -0.142874)
(20.1488 -0.800828 -0.160534)
(20.2681 -0.89922 -0.173821)
(20.3692 -1.0168 -0.184348)
(20.4731 -1.16078 -0.192814)
(20.592 -1.34773 -0.204536)
(20.7471 -1.58074 -0.235751)
(20.9829 -1.84068 -0.285299)
(21.315 -2.05674 -0.314908)
(21.656 -2.2255 -0.335921)
(22.0618 -2.21676 -0.277335)
(19.9997 3.98152e-05 0.000284355)
(19.9965 0.000559684 0.000954593)
(19.9888 0.00220534 0.0018574)
(19.9741 0.00624109 0.00321086)
(19.9483 0.0155942 0.00558669)
(19.9028 0.0353726 0.0100859)
(19.8222 0.0865653 0.0194604)
(19.6839 0.193321 0.0378335)
(19.4754 0.545763 0.0862402)
(19.3168 1.08056 0.112161)
(19.7644 2.26979 0.211442)
(21.7963 2.16066 0.373892)
(22.0583 0.413103 0.49816)
(21.4501 -0.681973 0.317881)
(20.4941 -0.473576 0.076385)
(20.3226 -0.347564 0.0301102)
(20.3026 -0.405777 -0.0164034)
(20.2534 -0.46127 -0.0484106)
(20.1969 -0.483824 -0.0696628)
(20.1724 -0.517475 -0.0855155)
(20.1697 -0.580878 -0.0996816)
(20.1735 -0.668442 -0.112842)
(20.1882 -0.775025 -0.125808)
(20.2257 -0.905514 -0.138192)
(20.2848 -1.06491 -0.150298)
(20.3962 -1.24878 -0.196168)
(20.6785 -1.50077 -0.27617)
(21.118 -1.75585 -0.320825)
(21.5741 -1.9629 -0.348019)
(22.0308 -2.00719 -0.272946)
(19.9997 0.000393096 0.00027421)
(19.997 0.00172208 0.000912537)
(19.9904 0.00443945 0.00176007)
(19.9783 0.0101213 0.00304185)
(19.958 0.0219453 0.00521923)
(19.9248 0.0464192 0.00898608)
(19.8736 0.0984303 0.0160091)
(19.8015 0.207779 0.0293397)
(19.7304 0.445284 0.0539304)
(19.7867 0.858396 0.0996384)
(20.2208 1.18114 0.142409)
(20.7989 0.770622 0.125972)
(20.9343 0.158582 0.0744607)
(20.6407 -0.264438 0.0264055)
(20.2937 -0.321411 0.00226911)
(20.1458 -0.287618 -0.0142902)
(20.1415 -0.306434 -0.0264285)
(20.1398 -0.332134 -0.0343645)
(20.1184 -0.3461 -0.0395681)
(20.1056 -0.375466 -0.0443802)
(20.1068 -0.433923 -0.0502597)
(20.1148 -0.516069 -0.0571865)
(20.132 -0.615495 -0.0656894)
(20.1676 -0.735624 -0.0755284)
(20.2201 -0.874345 -0.0823478)
(20.3174 -1.02215 -0.120369)
(20.6084 -1.25892 -0.220079)
(21.0811 -1.52218 -0.290277)
(21.587 -1.73453 -0.339372)
(22.0354 -1.79117 -0.265025)
(19.9998 0.000634716 0.000261535)
(19.9976 0.00246129 0.000865228)
(19.9923 0.00577264 0.00165348)
(19.983 0.0122257 0.00280596)
(19.9683 0.0248524 0.00464954)
(19.9465 0.0491276 0.00766834)
(19.9173 0.096122 0.0127452)
(19.8857 0.183381 0.0215951)
(19.8728 0.336452 0.0358602)
(19.9493 0.571511 0.0587222)
(20.2258 0.737689 0.0771258)
(20.5659 0.509461 0.0649122)
(20.6704 0.080193 0.0336536)
(20.5073 -0.225081 0.00410325)
(20.2865 -0.302896 -0.0118886)
(20.1719 -0.269532 -0.0189184)
(20.1523 -0.260242 -0.0235395)
(20.1404 -0.281409 -0.0288836)
(20.1113 -0.309385 -0.0345033)
(20.0853 -0.347652 -0.0397825)
(20.0725 -0.403639 -0.0453267)
(20.0699 -0.475617 -0.0519077)
(20.0776 -0.559811 -0.0602893)
(20.1037 -0.658043 -0.0711354)
(20.1502 -0.767996 -0.0788554)
(20.2363 -0.871694 -0.100134)
(20.5253 -1.0539 -0.203057)
(21.0167 -1.28727 -0.289137)
(21.5643 -1.48611 -0.352347)
(22.0049 -1.54694 -0.269861)
(19.9998 0.000745604 0.000248049)
(19.9982 0.00276305 0.000815103)
(19.9942 0.00619234 0.00153578)
(19.9876 0.0125494 0.00255416)
(19.9778 0.0243634 0.00409158)
(19.9651 0.0458484 0.00642909)
(19.9513 0.0841202 0.0100722)
(19.9432 0.148701 0.0158339)
(19.9574 0.248152 0.0242625)
(20.0308 0.379429 0.0355099)
(20.2077 0.461991 0.0428216)
(20.4201 0.333115 0.0357064)
(20.5056 0.0705807 0.0179916)
(20.4223 -0.127749 -0.000506515)
(20.2798 -0.190688 -0.0114513)
(20.1851 -0.178627 -0.016274)
(20.1484 -0.179071 -0.0195191)
(20.1242 -0.20456 -0.0233285)
(20.0922 -0.234592 -0.0271917)
(20.062 -0.266435 -0.03089)
(20.042 -0.307835 -0.0354655)
(20.0318 -0.362178 -0.0420764)
(20.0319 -0.428679 -0.0514631)
(20.0505 -0.507329 -0.0637298)
(20.0942 -0.596828 -0.0747669)
(20.1736 -0.677442 -0.0897243)
(20.4545 -0.82217 -0.191571)
(20.9528 -1.03336 -0.290707)
(21.5341 -1.22225 -0.366753)
(21.9667 -1.28572 -0.274834)
(19.9999 0.000733388 0.00023509)
(19.9987 0.00264783 0.00076633)
(19.9959 0.00576632 0.00142544)
(19.9915 0.0113437 0.00232602)
(19.9858 0.0213097 0.00361025)
(19.9798 0.0386141 0.00544774)
(19.9762 0.0675696 0.00813107)
(19.9815 0.113049 0.0120115)
(20.0072 0.176398 0.0170814)
(20.0725 0.249342 0.0229588)
(20.1933 0.287477 0.0261642)
(20.3314 0.212314 0.0224594)
(20.3965 0.0540429 0.0130006)
(20.3537 -0.0796152 0.00168305)
(20.2587 -0.13608 -0.00590344)
(20.181 -0.14194 -0.00969203)
(20.1384 -0.147204 -0.0120779)
(20.1084 -0.166002 -0.0147211)
(20.0753 -0.188643 -0.0179184)
(20.0424 -0.213136 -0.0218767)
(20.016 -0.24554 -0.0273541)
(19.9982 -0.289428 -0.0351314)
(19.9914 -0.3441 -0.0458346)
(20.0041 -0.407508 -0.0593792)
(20.0472 -0.478324 -0.0732594)
(20.1265 -0.535518 -0.0854991)
(20.4016 -0.629682 -0.181894)
(20.902 -0.79316 -0.289931)
(21.5105 -0.952777 -0.378139)
(21.9311 -1.00715 -0.278313)
(19.9999 0.000614969 0.000224038)
(19.9991 0.00217572 0.000725271)
(19.9973 0.00464255 0.00133489)
(19.9946 0.00894345 0.00213972)
(19.9919 0.0164071 0.00323833)
(19.9905 0.0289321 0.00473994)
(19.9934 0.0489511 0.00678928)
(20.006 0.0787245 0.00951298)
(20.0362 0.117256 0.0127312)
(20.0938 0.15723 0.0159657)
(20.1827 0.174316 0.0172965)
(20.2785 0.13081 0.0148414)
(20.3283 0.0380505 0.00882936)
(20.3062 -0.0469706 0.00137554)
(20.2406 -0.0884373 -0.00422989)
(20.1766 -0.0970008 -0.00755505)
(20.1322 -0.101224 -0.00985593)
(20.0978 -0.113408 -0.0123928)
(20.0624 -0.129968 -0.015682)
(20.0265 -0.148965 -0.0199694)
(19.9951 -0.173522 -0.0257951)
(19.9717 -0.205964 -0.03382)
(19.9603 -0.245755 -0.0449572)
(19.9698 -0.290468 -0.0592137)
(20.0147 -0.338791 -0.0752045)
(20.0977 -0.373568 -0.0861575)
(20.3665 -0.423716 -0.168235)
(20.8652 -0.537126 -0.282322)
(21.4939 -0.662822 -0.381575)
(21.8993 -0.707581 -0.275804)
(19.9999 0.000416743 0.000215733)
(19.9994 0.00144476 0.000695132)
(19.9982 0.00302584 0.0012694)
(19.9968 0.00573015 0.0020074)
(19.9959 0.0103312 0.00298231)
(19.9974 0.0178775 0.00426473)
(20.0041 0.0295632 0.00592405)
(20.0204 0.0463301 0.0079731)
(20.0521 0.0669858 0.0101864)
(20.1041 0.0869381 0.0121083)
(20.1755 0.093843 0.0126167)
(20.2482 0.0707249 0.010742)
(20.2883 0.0219798 0.00648277)
(20.2763 -0.0249819 0.00117101)
(20.2273 -0.0501843 -0.0032257)
(20.172 -0.0573583 -0.00621653)
(20.1272 -0.0609862 -0.00846936)
(20.0899 -0.0686724 -0.0109093)
(20.0528 -0.0792238 -0.0141008)
(20.0151 -0.0913176 -0.0183836)
(19.9808 -0.106416 -0.0243129)
(19.954 -0.125913 -0.0325268)
(19.9399 -0.149622 -0.0441623)
(19.9479 -0.175831 -0.0592534)
(19.9952 -0.203257 -0.0772016)
(20.0836 -0.220451 -0.088599)
(20.3476 -0.239841 -0.14972)
(20.8439 -0.300337 -0.260531)
(21.4864 -0.380551 -0.369826)
(21.8752 -0.403904 -0.26052)
(20 0.000150689 0.000211603)
(19.9995 0.000514632 0.000680709)
(19.9987 0.0010627 0.00123869)
(19.9978 0.00198789 0.00194584)
(19.9979 0.00354394 0.00286404)
(20.0008 0.00606289 0.00404236)
(20.0092 0.00990318 0.00552589)
(20.0272 0.0153064 0.00727416)
(20.0593 0.0217692 0.00903281)
(20.1084 0.0277878 0.0103781)
(20.1719 0.029575 0.0105491)
(20.2345 0.0222735 0.00887817)
(20.2701 0.00707149 0.00532283)
(20.2621 -0.00795127 0.000950386)
(20.2204 -0.0164408 -0.00289193)
(20.1693 -0.0192075 -0.00573656)
(20.1245 -0.020611 -0.00800927)
(20.0859 -0.023183 -0.010472)
(20.0478 -0.0267028 -0.013698)
(20.009 -0.0307687 -0.0180758)
(19.9731 -0.0358409 -0.024172)
(19.9444 -0.042385 -0.0325733)
(19.9288 -0.0503579 -0.0445224)
(19.9362 -0.0591119 -0.059903)
(19.9855 -0.0679983 -0.0789478)
(20.0774 -0.0728837 -0.0906173)
(20.3411 -0.0773524 -0.134352)
(20.8439 -0.0950927 -0.238077)
(21.4988 -0.122274 -0.354269)
(21.8639 -0.125873 -0.232091)
(20.0001 -0.000294341 0.000537866)
(20.001 -0.000925027 0.0016895)
(20.0028 -0.00173035 0.00302147)
(20.0059 -0.00288501 0.00466233)
(20.0113 -0.00459798 0.00671317)
(20.0208 -0.00709651 0.00923151)
(20.0368 -0.0105592 0.0121578)
(20.0622 -0.0149772 0.0152883)
(20.1 -0.0197132 0.0179963)
(20.1508 -0.023303 0.0194468)
(20.2103 -0.0233428 0.0183965)
(20.2666 -0.017939 0.0141087)
(20.3041 -0.00896942 0.0076397)
(20.3147 -0.00117804 0.00132878)
(20.3074 0.00109941 -0.00250241)
(20.3026 -0.00181233 -0.00324367)
(20.3147 -0.00650005 -0.00224809)
(20.3446 -0.0110681 -0.00110203)
(20.3888 -0.015987 -0.000274575)
(20.4484 -0.0218507 0.000427033)
(20.5272 -0.0284804 0.00105109)
(20.6281 -0.0356289 0.00151168)
(20.7525 -0.0433636 0.00204271)
(20.9027 -0.0514975 0.00353677)
(21.0754 -0.0598316 0.00666541)
(21.2794 -0.0672302 0.0111781)
(21.4705 -0.0742461 0.0235655)
(21.7532 -0.0762959 0.013869)
(21.8023 -0.0941799 0.0714866)
(22.5759 -0.169316 -0.133203)
(20.0001 -0.00085782 0.000549513)
(20.0009 -0.00270406 0.00173118)
(20.0023 -0.00507422 0.00310893)
(20.0048 -0.00848956 0.00482873)
(20.0095 -0.0135935 0.00702058)
(20.018 -0.0211057 0.0097745)
(20.0328 -0.0316575 0.0130798)
(20.0575 -0.0453111 0.0167509)
(20.0959 -0.0603275 0.0200743)
(20.1497 -0.0720457 0.0220367)
(20.2146 -0.0723819 0.0209376)
(20.2762 -0.0549641 0.0156061)
(20.3151 -0.0260023 0.00775587)
(20.3215 -0.00103675 0.000442474)
(20.3076 0.00592795 -0.00360596)
(20.2983 -0.00352134 -0.00391983)
(20.309 -0.0179803 -0.0024421)
(20.3382 -0.0315094 -0.0010412)
(20.381 -0.045873 -2.42479e-05)
(20.4387 -0.0629949 0.00095191)
(20.5158 -0.0824159 0.00185359)
(20.6151 -0.103659 0.00248006)
(20.7377 -0.126774 0.00309093)
(20.8863 -0.151776 0.00429874)
(21.0582 -0.177615 0.00703316)
(21.2609 -0.201319 0.0120235)
(21.4585 -0.223498 0.0237616)
(21.7368 -0.23632 0.0223504)
(21.8614 -0.309959 0.0775185)
(22.6646 -0.505455 -0.0809044)
(20.0001 -0.001363 0.000575926)
(20.0006 -0.00430722 0.00182306)
(20.0013 -0.00811035 0.00330088)
(20.0028 -0.013641 0.00519189)
(20.0058 -0.0220234 0.00769611)
(20.012 -0.0345972 0.0109879)
(20.0243 -0.052777 0.0151758)
(20.0471 -0.0770322 0.0201294)
(20.0861 -0.104852 0.0249889)
(20.1459 -0.127975 0.0283014)
(20.2227 -0.129309 0.0270657)
(20.2965 -0.0964922 0.0194914)
(20.3385 -0.0419536 0.00869272)
(20.3358 0.00417265 -0.000613933)
(20.3077 0.0156769 -0.00489843)
(20.2898 -0.00279584 -0.00395836)
(20.299 -0.0287279 -0.00113909)
(20.3284 -0.0520247 0.000985623)
(20.3698 -0.0765218 0.00245167)
(20.4256 -0.105118 0.003955)
(20.501 -0.136884 0.00540342)
(20.5987 -0.171472 0.00650408)
(20.72 -0.21007 0.0071792)
(20.8678 -0.252042 0.00785155)
(21.0399 -0.29561 0.00968083)
(21.245 -0.338174 0.0142393)
(21.4508 -0.376324 0.0245704)
(21.7428 -0.420185 0.0259713)
(21.9767 -0.589552 0.0800208)
(22.8154 -0.859067 -0.0496321)
(20 -0.00178378 0.000612755)
(20.0001 -0.00564471 0.00195205)
(19.9999 -0.0106666 0.00357392)
(19.9997 -0.0180601 0.00571605)
(20.0001 -0.0295054 0.00870249)
(20.0027 -0.0471629 0.012862)
(20.0105 -0.0737196 0.0185526)
(20.0294 -0.110949 0.0258023)
(20.0684 -0.15659 0.0336463)
(20.138 -0.197941 0.0397024)
(20.2361 -0.20161 0.0377654)
(20.3312 -0.145614 0.0257278)
(20.3784 -0.0545747 0.0104236)
(20.3591 0.0186544 -0.00175626)
(20.3065 0.0322981 -0.00617542)
(20.2748 -0.000144715 -0.00301047)
(20.2827 -0.0388189 0.00194816)
(20.3128 -0.0720045 0.0051518)
(20.3525 -0.108421 0.00727044)
(20.406 -0.150798 0.00934306)
(20.4796 -0.196241 0.0111789)
(20.5751 -0.244414 0.0125767)
(20.694 -0.297313 0.0131447)
(20.84 -0.355125 0.0133715)
(21.0124 -0.416174 0.0140009)
(21.2213 -0.478009 0.0169339)
(21.4379 -0.532079 0.0216499)
(21.77 -0.632415 0.0211455)
(22.1008 -0.905546 0.0623583)
(22.8836 -1.18139 -0.065017)
(20 -0.00208631 0.000657566)
(19.9995 -0.00660706 0.0021112)
(19.9981 -0.012531 0.00391544)
(19.9957 -0.0213834 0.00639018)
(19.9925 -0.0354107 0.00999944)
(19.9896 -0.057951 0.0153741)
(19.9901 -0.0937594 0.0233947)
(20.0015 -0.147242 0.0344746)
(20.0379 -0.219296 0.0480976)
(20.1229 -0.29305 0.0592148)
(20.2576 -0.301873 0.0528288)
(20.3883 -0.207696 0.0317341)
(20.4412 -0.0579932 0.0108263)
(20.3923 0.0560498 -0.00424798)
(20.301 0.0657111 -0.00702917)
(20.2517 0.00625245 0.00096378)
(20.2606 -0.0481992 0.00976547)
(20.2913 -0.0883473 0.0151357)
(20.3273 -0.134689 0.0192236)
(20.3778 -0.190957 0.0231394)
(20.4503 -0.25147 0.0260506)
(20.545 -0.315644 0.0273434)
(20.6633 -0.38591 0.0272373)
(20.8101 -0.461852 0.026405)
(20.9879 -0.543253 0.02525)
(21.203 -0.625725 0.0248988)
(21.4381 -0.698609 0.020613)
(21.8118 -0.864958 0.0156151)
(22.1789 -1.20293 0.0303896)
(22.8464 -1.44443 -0.0980394)
(19.9999 -0.00224608 0.00070799)
(19.9988 -0.00710826 0.00229007)
(19.996 -0.0135211 0.00430572)
(19.9908 -0.0232514 0.00718701)
(19.983 -0.0390786 0.0115599)
(19.9725 -0.065748 0.0185978)
(19.9617 -0.111185 0.0300748)
(19.9588 -0.185416 0.0472636)
(19.9858 -0.297108 0.0713822)
(20.0937 -0.427629 0.0934522)
(20.2924 -0.448565 0.073165)
(20.4828 -0.298337 0.0315703)
(20.5408 -0.0615504 0.00123106)
(20.4369 0.121649 -0.0178671)
(20.2806 0.127239 -0.0161282)
(20.2105 0.0208883 0.000602361)
(20.2303 -0.0625458 0.0165622)
(20.266 -0.114087 0.0278866)
(20.2982 -0.167444 0.0383766)
(20.3479 -0.230975 0.0483555)
(20.4254 -0.302313 0.0559262)
(20.5277 -0.382385 0.0608569)
(20.6535 -0.47294 0.0653746)
(20.8061 -0.570441 0.070851)
(20.986 -0.67376 0.0783744)
(21.1903 -0.769746 0.0804116)
(21.4146 -0.851042 0.0620859)
(21.7692 -1.0625 0.0296251)
(22.0819 -1.40694 -0.00207801)
(22.6291 -1.62889 -0.126766)
(19.9998 -0.00224641 0.000757098)
(19.9981 -0.007091 0.00247494)
(19.9937 -0.013486 0.00472026)
(19.9855 -0.0233157 0.00804212)
(19.9721 -0.0397744 0.0133511)
(19.9515 -0.0688618 0.0225128)
(19.9235 -0.122805 0.0388227)
(19.8949 -0.219895 0.0664563)
(19.8986 -0.40499 0.108023)
(20.0342 -0.611464 0.150699)
(20.3324 -0.642576 0.101231)
(20.6177 -0.370998 0.0364769)
(20.6931 -0.0454989 0.00276095)
(20.5074 0.223572 -0.020457)
(20.2432 0.206265 -0.00984891)
(20.1414 0.0621603 0.0115525)
(20.1917 -0.0506769 0.0176934)
(20.2552 -0.145631 0.0185294)
(20.3038 -0.246858 0.031167)
(20.3637 -0.345973 0.0589925)
(20.4378 -0.436437 0.097373)
(20.5115 -0.522071 0.143319)
(20.5786 -0.606873 0.193265)
(20.6441 -0.690168 0.240369)
(20.7106 -0.775051 0.27702)
(20.8164 -0.840819 0.275454)
(21.0128 -0.898328 0.198014)
(21.3555 -1.13502 0.0745031)
(21.6204 -1.4954 -0.0377771)
(22.1098 -1.74846 -0.157307)
(19.9998 -0.00208332 0.000801258)
(19.9974 -0.00654962 0.00263431)
(19.9914 -0.0123869 0.00510394)
(19.9802 -0.0212946 0.00895392)
(19.9607 -0.0366212 0.0152621)
(19.928 -0.0648475 0.0266612)
(19.8756 -0.121967 0.0497692)
(19.7982 -0.237528 0.0925384)
(19.7431 -0.512603 0.173121)
(19.8338 -0.829491 0.201233)
(20.2496 -0.960463 0.122249)
(20.734 -0.703518 -0.0133298)
(20.907 -0.154414 0.00807223)
(20.7251 0.333292 0.0469148)
(20.1972 0.224755 0.0498809)
(20.0662 -0.0267217 0.176538)
(20.1008 -0.0888058 0.288963)
(20.0946 -0.120171 0.370021)
(20.0211 -0.170573 0.444617)
(19.9019 -0.222775 0.515447)
(19.7306 -0.274154 0.576278)
(19.5122 -0.339259 0.620083)
(19.2817 -0.427702 0.638614)
(19.0973 -0.537437 0.620661)
(19.0071 -0.663508 0.55326)
(19.1233 -0.758271 0.416275)
(19.5871 -0.81873 0.205483)
(20.2865 -1.09 0.0117263)
(20.7743 -1.54633 -0.132832)
(21.4056 -1.87553 -0.205472)
(19.9997 -0.00178383 0.000839682)
(19.9968 -0.00550824 0.00276002)
(19.9896 -0.0102999 0.00537688)
(19.9755 -0.017462 0.00968036)
(19.9504 -0.029441 0.017082)
(19.9053 -0.0520675 0.0309515)
(19.8225 -0.0993754 0.0602867)
(19.6762 -0.219328 0.126767)
(19.53 -0.448471 0.193688)
(19.4666 -1.25071 0.377567)
(20.2733 -1.33331 0.00786337)
(20.9571 -1.31577 -0.339678)
(21.1766 -0.567677 -0.160587)
(21.3074 0.224597 0.71785)
(17.9788 0.644129 0.822171)
(17.6434 0.00952386 0.75849)
(17.2757 -0.167615 0.768902)
(16.7746 -0.246987 0.753254)
(16.2954 -0.337262 0.715323)
(15.9586 -0.41402 0.655456)
(15.7749 -0.475875 0.57857)
(15.7511 -0.539741 0.487107)
(15.9225 -0.609427 0.377034)
(16.2783 -0.682112 0.244076)
(16.7381 -0.764198 0.0833299)
(17.3092 -0.804084 -0.0936437)
(18.064 -0.861798 -0.211762)
(19.1094 -1.2125 -0.24386)
(20.0801 -1.74935 -0.277226)
(21.0147 -2.0677 -0.251455)
(19.9997 -0.0013696 0.000863759)
(19.9964 -0.00412792 0.00285528)
(19.9883 -0.00738346 0.00555359)
(19.9724 -0.0119192 0.00993761)
(19.9439 -0.0194024 0.0179573)
(19.8884 -0.0326362 0.0332791)
(19.7848 -0.0600849 0.0674088)
(19.5445 -0.13144 0.15467)
(19.2051 -0.336971 0.280263)
(18.4451 -1.39667 0.644265)
(21.593 -1.77536 0.111129)
(21.5702 -4.78637 -1.99303)
(20.2984 1.90126 -1.40561)
(19.8938 2.14966 -1.24415)
(10.0472 1.80792 0.606535)
(11.7536 1.06241 0.189518)
(12.8305 0.753329 0.0423718)
(13.2851 0.558174 -0.00645133)
(13.5413 0.375948 -0.0301449)
(13.8083 0.200929 -0.0617881)
(14.0845 0.0302351 -0.105638)
(14.3579 -0.147753 -0.158037)
(14.6513 -0.33765 -0.217935)
(15.006 -0.537189 -0.277115)
(15.4489 -0.741213 -0.32331)
(16.0483 -0.933782 -0.331139)
(17.2168 -1.23822 -0.304121)
(18.9064 -1.71514 -0.30943)
(20.2371 -2.15618 -0.350854)
(21.1511 -2.2727 -0.295585)
(19.9997 -0.000894761 0.000873818)
(19.9962 -0.00252751 0.00288722)
(19.9878 -0.00411471 0.00562316)
(19.9713 -0.00558062 0.0100698)
(19.9417 -0.00647794 0.0182681)
(19.8832 -0.0063842 0.0339719)
(19.7746 -0.00210495 0.0693588)
(19.5096 0.01417 0.16195)
(19.0667 0.0146698 0.316434)
(17.0963 0.0581431 0.974714)
(1.14974 0.275969 -2.73446)
(10.9422 -2.10779 0.150523)
(12.85 -1.52447 -0.368984)
(14.0275 -1.22118 -0.560648)
(14.5724 -1.05944 -0.593803)
(14.925 -0.968765 -0.562537)
(15.2833 -0.92983 -0.522899)
(15.6547 -0.931995 -0.49186)
(16.033 -0.968465 -0.469161)
(16.4401 -1.03778 -0.455912)
(16.9153 -1.14748 -0.445345)
(17.4604 -1.318 -0.425887)
(18.1821 -1.5406 -0.410901)
(19.2506 -1.84236 -0.444074)
(20.3265 -2.16112 -0.47726)
(21.0494 -2.39169 -0.480418)
(21.4533 -2.33745 -0.359781)
(19.9997 -0.00040774 0.000868927)
(19.9963 -0.00092587 0.00285561)
(19.9881 -0.000768639 0.00557622)
(19.9723 0.000693258 0.0100958)
(19.944 0.00503428 0.0179765)
(19.8912 0.0159439 0.0329514)
(19.7938 0.0452062 0.0655398)
(19.5965 0.128825 0.14545)
(19.2465 0.305995 0.272877)
(18.4376 1.33768 0.842888)
(18.6429 3.30498 1.92407)
(21.821 1.70422 -0.263612)
(22.5425 -2.22908 -1.97848)
(20.6558 -2.10163 -1.80535)
(20.0224 -1.30643 -0.631253)
(20.1156 -0.693529 -0.662417)
(20.2698 -0.504051 -0.668959)
(20.2743 -0.446417 -0.644033)
(20.2453 -0.422829 -0.602664)
(20.2573 -0.441042 -0.564984)
(20.2902 -0.503715 -0.537928)
(20.3321 -0.600318 -0.520424)
(20.3856 -0.726559 -0.511331)
(20.4665 -0.893378 -0.508923)
(20.5748 -1.09063 -0.5203)
(20.6658 -1.33959 -0.569581)
(20.8597 -1.74745 -0.633474)
(21.1772 -2.12247 -0.628731)
(21.4649 -2.33426 -0.579983)