/*--------------------------------*- C++ -*----------------------------------*\
| =========                 |                                                 |
| \\      /  F ield         | OpenFOAM: The Open Source CFD Toolbox           |
|  \\    /   O peration     | Version:  2512                                  |
|   \\  /    A nd           | Website:  www.openfoam.com                      |
|    \\/     M anipulation  |                                                 |
\*---------------------------------------------------------------------------*/
FoamFile
{
    version     2.0;
    format      ascii;
    arch        "LSB;label=32;scalar=64";
    class       volVectorField;
    location    "240";
    object      U;
}
// * * * * * * * * * * * * * * * * * * * * * * * * * * * * * * * * * * * * * //

dimensions      [0 1 -1 0 0 0 0];

internalField   nonuniform List<vector> 
84826
(
(20 -0.000210428 0.000213596)
(19.9997 -0.000677325 0.000692931)
(19.9992 -0.00132512 0.00126757)
(19.9989 -0.00233924 0.00199629)
(19.9998 -0.00397009 0.00294392)
(20.0036 -0.00655919 0.00417198)
(20.0129 -0.0105171 0.00572228)
(20.0317 -0.0162166 0.00757909)
(20.065 -0.0235984 0.00959248)
(20.1171 -0.0314154 0.0114618)
(20.1886 -0.0371315 0.0127376)
(20.2699 -0.0354769 0.0128042)
(20.3372 -0.0244511 0.0112831)
(20.3658 -0.00885787 0.00842085)
(20.3497 0.00386174 0.00505685)
(20.3063 0.00967354 0.00229262)
(20.2597 0.00928666 0.000911545)
(20.2244 0.00634227 0.000778007)
(20.2014 0.00351603 0.00122058)
(20.1863 0.00134086 0.00177498)
(20.176 -0.000412379 0.00229641)
(20.1691 -0.00184877 0.00273862)
(20.1643 -0.00301174 0.0030668)
(20.1605 -0.00394046 0.00328363)
(20.1571 -0.00460658 0.00341245)
(20.1544 -0.00495818 0.00347504)
(20.1524 -0.00498913 0.00347428)
(20.151 -0.00476863 0.00341621)
(20.1504 -0.00447594 0.00330129)
(20.1486 -0.0040562 0.00299637)
(20 -0.000611289 0.000217707)
(19.9995 -0.00196906 0.000706844)
(19.9987 -0.00385961 0.00129652)
(19.9978 -0.00683422 0.00205225)
(19.9978 -0.0116504 0.00304992)
(20.0001 -0.0193635 0.0043684)
(20.0076 -0.031301 0.00607648)
(20.0243 -0.0487294 0.00819655)
(20.0563 -0.071761 0.0106053)
(20.1095 -0.096746 0.0129524)
(20.1865 -0.115978 0.0146996)
(20.2778 -0.111387 0.0149466)
(20.3536 -0.0763606 0.0134074)
(20.3831 -0.0270869 0.0100353)
(20.3611 0.0128812 0.00592092)
(20.3099 0.0304788 0.00256182)
(20.258 0.0282038 0.00105608)
(20.2211 0.0184122 0.00110423)
(20.1986 0.00966414 0.00176118)
(20.1841 0.00338656 0.00249678)
(20.1742 -0.0012234 0.0031987)
(20.1675 -0.00463169 0.00382848)
(20.163 -0.00725391 0.00434009)
(20.1594 -0.00944569 0.00472091)
(20.1563 -0.0111669 0.00498967)
(20.1538 -0.0120932 0.00516352)
(20.1521 -0.011964 0.00525432)
(20.1508 -0.010692 0.00527386)
(20.1501 -0.00887269 0.00525003)
(20.1485 -0.0055399 0.00508266)
(19.9999 -0.000957597 0.000225753)
(19.9992 -0.00308778 0.000735163)
(19.9977 -0.00607298 0.00135679)
(19.9957 -0.0108146 0.00217029)
(19.9937 -0.0185916 0.00327485)
(19.9932 -0.0312608 0.00478804)
(19.9967 -0.0513308 0.00683459)
(20.0088 -0.0814951 0.00952184)
(20.0375 -0.122965 0.0128023)
(20.092 -0.170113 0.0162395)
(20.1808 -0.209798 0.019127)
(20.2945 -0.203033 0.0197914)
(20.3887 -0.13788 0.0183547)
(20.42 -0.0479863 0.0139845)
(20.3848 0.0248725 0.00810232)
(20.316 0.0548929 0.00333355)
(20.2529 0.0471726 0.00163806)
(20.2136 0.0272048 0.00221637)
(20.1927 0.0105876 0.00340167)
(20.18 -0.00105001 0.00447205)
(20.1714 -0.00919182 0.0053842)
(20.1656 -0.0146569 0.00616182)
(20.1614 -0.0186782 0.00679022)
(20.158 -0.0225588 0.00727296)
(20.1554 -0.0266881 0.00759838)
(20.1536 -0.0305531 0.00775212)
(20.1529 -0.0333706 0.00772368)
(20.1524 -0.0345932 0.00750145)
(20.1528 -0.0344054 0.00720407)
(20.1489 -0.0320244 0.00645763)
(19.9999 -0.00121896 0.000236244)
(19.9987 -0.00393419 0.000773693)
(19.9963 -0.00777282 0.00143966)
(19.9925 -0.0139528 0.00233487)
(19.9877 -0.0242798 0.00359522)
(19.9827 -0.0415319 0.00540177)
(19.9796 -0.069808 0.00798068)
(19.9836 -0.114215 0.0116005)
(20.0053 -0.178928 0.016394)
(20.0595 -0.257921 0.0218306)
(20.168 -0.333077 0.0268423)
(20.3219 -0.323599 0.0284782)
(20.4477 -0.214876 0.0278355)
(20.4813 -0.0724255 0.0220809)
(20.4231 0.0437634 0.0127563)
(20.3234 0.0865642 0.0052737)
(20.2414 0.0673395 0.00339628)
(20.1991 0.0333985 0.00504904)
(20.1815 0.00778763 0.00730869)
(20.172 -0.00977921 0.00925274)
(20.1657 -0.0216956 0.0109249)
(20.1615 -0.0284272 0.0123863)
(20.1578 -0.0315616 0.0136667)
(20.1541 -0.0334076 0.014814)
(20.151 -0.0353276 0.0158092)
(20.1493 -0.0373503 0.016577)
(20.1491 -0.0388103 0.0170421)
(20.1498 -0.038789 0.0171619)
(20.1506 -0.0378123 0.0169968)
(20.1495 -0.0319159 0.0163138)
(19.9998 -0.00136734 0.000248411)
(19.9982 -0.0044145 0.000819285)
(19.9946 -0.00876905 0.00154155)
(19.9886 -0.0158996 0.00254016)
(19.98 -0.0281015 0.00400108)
(19.9686 -0.0491684 0.00620245)
(19.9559 -0.0852814 0.00953529)
(19.9463 -0.145466 0.0145659)
(19.954 -0.240057 0.0217481)
(20.0022 -0.36696 0.0307002)
(20.1425 -0.506999 0.0390876)
(20.3662 -0.497696 0.0422698)
(20.5415 -0.323922 0.0435307)
(20.5761 -0.105596 0.0358997)
(20.4803 0.0747482 0.0195778)
(20.33 0.124882 0.0077598)
(20.2207 0.0804269 0.00724845)
(20.1772 0.025903 0.0117403)
(20.1659 -0.0108248 0.0157274)
(20.1612 -0.0364855 0.0184696)
(20.1588 -0.0557692 0.0205459)
(20.1581 -0.0687395 0.0222461)
(20.1568 -0.0764091 0.0237622)
(20.1543 -0.0808079 0.0252692)
(20.1518 -0.0834848 0.0267981)
(20.1507 -0.0850773 0.028237)
(20.1516 -0.0856412 0.0294136)
(20.1534 -0.084758 0.0301249)
(20.1558 -0.0833023 0.0305243)
(20.1561 -0.0767596 0.0294087)
(19.9998 -0.00138398 0.000261608)
(19.9976 -0.00446396 0.000867952)
(19.9926 -0.00891639 0.00165638)
(19.9841 -0.0163503 0.00277875)
(19.9709 -0.0294267 0.00447771)
(19.9514 -0.0529124 0.00716292)
(19.9251 -0.0954611 0.0114875)
(19.894 -0.172059 0.0184784)
(19.8753 -0.304382 0.029356)
(19.9023 -0.505213 0.0434253)
(20.0926 -0.76046 0.0573787)
(20.4327 -0.747066 0.0663332)
(20.6823 -0.499706 0.0790795)
(20.7149 -0.163405 0.0705406)
(20.5537 0.130186 0.0389055)
(20.3184 0.167408 0.0171145)
(20.1732 0.0724201 0.0191871)
(20.1351 -0.00903706 0.0305263)
(20.1358 -0.0541104 0.0404766)
(20.14 -0.0824896 0.0478262)
(20.1467 -0.10306 0.0534135)
(20.1564 -0.117331 0.0576592)
(20.1656 -0.126798 0.0608379)
(20.1725 -0.132612 0.0633064)
(20.178 -0.135055 0.0652976)
(20.1832 -0.134264 0.0668612)
(20.1886 -0.130568 0.0679069)
(20.1933 -0.124299 0.068211)
(20.197 -0.117565 0.0681142)
(20.198 -0.101834 0.0653662)
(19.9997 -0.00126205 0.000274393)
(19.997 -0.00405557 0.000915212)
(19.9907 -0.00813834 0.00176427)
(19.9795 -0.0150901 0.00302345)
(19.9611 -0.0276802 0.00499616)
(19.9321 -0.0512926 0.0082346)
(19.8875 -0.0967775 0.0137578)
(19.8247 -0.186975 0.0232884)
(19.7561 -0.36134 0.038809)
(19.7371 -0.688134 0.0611965)
(19.9815 -1.14199 0.0773591)
(20.5016 -1.03652 0.102645)
(20.8689 -0.78257 0.159558)
(20.9311 -0.277648 0.150679)
(20.6532 0.237206 0.101651)
(20.2646 0.219682 0.0755601)
(20.0955 0.021463 0.0827809)
(20.1091 -0.117577 0.10227)
(20.1585 -0.191752 0.123719)
(20.1893 -0.237305 0.146674)
(20.2011 -0.266222 0.169482)
(20.1958 -0.283488 0.189399)
(20.1736 -0.294478 0.204811)
(20.1381 -0.30163 0.215449)
(20.0957 -0.304508 0.221724)
(20.0519 -0.302146 0.22431)
(20.0104 -0.294327 0.223809)
(19.9735 -0.282637 0.220563)
(19.9432 -0.267312 0.216513)
(19.916 -0.243389 0.203901)
(19.9996 -0.00100932 0.000285329)
(19.9964 -0.00320856 0.00095701)
(19.9889 -0.00645621 0.00185749)
(19.9752 -0.0120841 0.00323025)
(19.9519 -0.0225907 0.00546829)
(19.9126 -0.0430127 0.00935441)
(19.8465 -0.0851274 0.0161753)
(19.7389 -0.176576 0.0292101)
(19.5787 -0.381201 0.0477453)
(19.4431 -0.86992 0.0877634)
(19.6953 -1.24432 0.0252301)
(20.5421 -1.65476 0.00761532)
(21.1256 -1.03161 0.116461)
(21.4188 -0.629722 0.0671558)
(21.1859 0.214488 0.289738)
(20.379 0.208303 0.307556)
(19.9029 -0.0576353 0.378996)
(19.5728 -0.234855 0.410739)
(19.2046 -0.334793 0.401809)
(18.7856 -0.404096 0.370188)
(18.3688 -0.451992 0.327629)
(17.9875 -0.483676 0.280737)
(17.6552 -0.507991 0.234363)
(17.3788 -0.529452 0.191439)
(17.1606 -0.54687 0.153396)
(16.999 -0.557363 0.120948)
(16.8873 -0.559434 0.0938144)
(16.826 -0.55459 0.072937)
(16.7871 -0.542114 0.0544361)
(16.8352 -0.516374 0.0409253)
(19.9996 -0.000648802 0.000293376)
(19.996 -0.0019982 0.000986908)
(19.9876 -0.00400348 0.00192817)
(19.9719 -0.00754329 0.00338259)
(19.9447 -0.0143746 0.00580791)
(19.8964 -0.0279643 0.0102554)
(19.8102 -0.0579424 0.0183876)
(19.646 -0.126518 0.035062)
(19.3588 -0.310719 0.0581731)
(18.8798 -0.820967 0.10339)
(19.0531 -1.63009 -0.0139112)
(20.7533 -2.47862 0.126048)
(20.9607 -2.18681 0.301423)
(21.4309 -2.30326 0.266879)
(13.1309 -0.872056 0.595227)
(11.4335 -1.03874 0.11412)
(10.6734 -1.41489 -0.0896813)
(10.6141 -1.54247 -0.276844)
(10.6861 -1.52708 -0.443973)
(10.786 -1.46944 -0.566956)
(10.9789 -1.38638 -0.640008)
(11.2511 -1.29262 -0.671824)
(11.5568 -1.20834 -0.67527)
(11.875 -1.14152 -0.66154)
(12.197 -1.08827 -0.638667)
(12.5157 -1.04167 -0.611222)
(12.8216 -0.997098 -0.582954)
(13.1224 -0.953193 -0.551149)
(13.3656 -0.912685 -0.53054)
(13.7529 -0.838043 -0.481763)
(19.9996 -0.000217441 0.000297566)
(19.9958 -0.00055448 0.00100179)
(19.9869 -0.00105778 0.00196182)
(19.9702 -0.00203274 0.00345558)
(19.9408 -0.00409084 0.00597249)
(19.8875 -0.00849589 0.010656)
(19.7891 -0.0189257 0.0194432)
(19.586 -0.0440181 0.039011)
(19.1824 -0.118653 0.065022)
(18.2605 -0.345808 0.113927)
(17.7376 -1.15755 -0.221557)
(20.791 -3.1974 -0.46355)
(21.5389 -2.87074 0.543888)
(15.7523 -1.91085 -1.32826)
(-0.551545 1.53628 -3.32413)
(2.6926 1.2407 -2.98501)
(5.90832 0.731647 -2.3857)
(8.39781 0.371902 -1.98867)
(9.97921 0.130751 -1.73068)
(11.0094 -0.0319296 -1.53557)
(11.7554 -0.12991 -1.37586)
(12.3196 -0.181014 -1.24216)
(12.755 -0.205494 -1.12756)
(13.1078 -0.217727 -1.02791)
(13.4116 -0.223313 -0.941137)
(13.6831 -0.22349 -0.865386)
(13.9263 -0.217757 -0.800098)
(14.1573 -0.20819 -0.740284)
(14.3314 -0.197321 -0.697314)
(14.671 -0.163093 -0.63041)
(19.9996 0.00023872 0.000297464)
(19.9958 0.00097388 0.00100041)
(19.9869 0.00207639 0.0019562)
(19.9703 0.00388546 0.00344178)
(19.9411 0.0070605 0.0059446)
(19.8878 0.0130917 0.0106168)
(19.7897 0.0258938 0.0194017)
(19.5872 0.0546815 0.0389294)
(19.1852 0.135665 0.0648949)
(18.2649 0.374118 0.113517)
(17.4111 0.61218 -0.281411)
(19.9649 0.588534 -0.635609)
(1.29704 1.96164 0.788695)
(-0.192963 -1.47767 -3.17447)
(3.10647 -1.19466 -2.78099)
(6.21095 -0.638091 -2.20824)
(8.58595 -0.341793 -1.81244)
(10.0637 -0.209841 -1.53849)
(10.9887 -0.143481 -1.32669)
(11.6254 -0.100952 -1.15732)
(12.0774 -0.0674331 -1.02233)
(12.399 -0.03718 -0.910902)
(12.6409 -0.0112954 -0.815767)
(12.8413 0.00756838 -0.733051)
(13.0215 0.0188263 -0.66029)
(13.1839 0.0230386 -0.59683)
(13.3542 0.0284861 -0.540157)
(13.4675 0.0100198 -0.495451)
(13.7852 0.0284878 -0.442829)
(19.9996 0.000668568 0.000292748)
(19.996 0.00240701 0.000984846)
(19.9876 0.00501021 0.00191484)
(19.9721 0.00938298 0.00333478)
(19.9452 0.0173942 0.00573912)
(19.8973 0.0325792 0.0101774)
(19.8119 0.0647679 0.0182948)
(19.6494 0.136646 0.0348585)
(19.3663 0.325863 0.0578987)
(18.8901 0.843566 0.102776)
(18.5575 1.64242 -0.0486292)
(20.6955 3.35505 -0.272247)
(21.3158 4.61365 0.41496)
(16.3082 3.95812 0.796632)
(13.6228 0.692393 0.396623)
(12.9381 0.738427 0.0569686)
(13.0321 1.04939 -0.0424822)
(13.4916 1.18783 -0.102799)
(13.9175 1.18721 -0.138931)
(14.2818 1.12487 -0.152933)
(14.6121 1.03447 -0.154885)
(14.8976 0.938593 -0.153861)
(15.1293 0.853712 -0.148252)
(15.3102 0.784868 -0.139014)
(15.4503 0.728079 -0.127412)
(15.5536 0.67846 -0.11515)
(15.6209 0.630619 -0.101537)
(15.6324 0.593741 -0.0917189)
(15.6636 0.535878 -0.0714589)
(15.4899 0.507284 -0.0548464)
(19.9996 0.0010274 0.000284651)
(19.9964 0.00358879 0.000952083)
(19.989 0.00738033 0.00184252)
(19.9755 0.0137516 0.00318916)
(19.9527 0.0252572 0.00540896)
(19.9141 0.0470315 0.00927367)
(19.8491 0.0910282 0.0160565)
(19.7436 0.184943 0.02895)
(19.5886 0.392837 0.04739)
(19.4534 0.883417 0.0872175)
(19.4383 1.38813 0.034114)
(20.6173 2.09372 0.0862598)
(21.1672 1.73481 0.355658)
(22.1038 1.2676 0.297595)
(21.3031 -0.290428 0.349618)
(20.5732 -0.410115 0.317473)
(20.2839 -0.292886 0.324602)
(20.1923 -0.221745 0.325508)
(20.1204 -0.195227 0.320768)
(20.0458 -0.182859 0.31343)
(19.9853 -0.182437 0.301486)
(19.9352 -0.188128 0.283581)
(19.8874 -0.189852 0.263075)
(19.8429 -0.182376 0.242921)
(19.8032 -0.166542 0.224939)
(19.7642 -0.145055 0.20915)
(19.7272 -0.121422 0.196653)
(19.6555 -0.0925964 0.184517)
(19.6304 -0.0683612 0.181079)
(19.3976 -0.0119758 0.175939)
(19.9997 0.00127607 0.000274191)
(19.997 0.00439433 0.000909056)
(19.9908 0.00896703 0.00174955)
(19.9799 0.0165885 0.00299541)
(19.9621 0.0300696 0.00494831)
(19.9339 0.0548488 0.00815043)
(19.8908 0.101802 0.013605)
(19.8301 0.193686 0.0230035)
(19.7654 0.369708 0.0383164)
(19.7503 0.696228 0.0606129)
(19.9993 1.15302 0.0779691)
(20.5366 1.08219 0.110334)
(20.9397 0.819744 0.172515)
(21.0114 0.277839 0.163151)
(20.7305 -0.245485 0.105563)
(20.3644 -0.279134 0.0622132)
(20.1913 -0.154639 0.0425037)
(20.1602 -0.0627262 0.0323129)
(20.156 -0.00599451 0.025607)
(20.1484 0.0359209 0.0217557)
(20.1453 0.0618174 0.0191921)
(20.1456 0.0734972 0.0168794)
(20.1422 0.0790492 0.0151829)
(20.1331 0.0852124 0.0147408)
(20.1217 0.0936478 0.0159543)
(20.1126 0.10211 0.0186769)
(20.1101 0.110482 0.0230636)
(20.1078 0.115547 0.0288618)
(20.1205 0.130398 0.0352418)
(20.1247 0.139175 0.0523179)
(19.9998 0.00139355 0.000261364)
(19.9976 0.00475359 0.000861981)
(19.9928 0.00962908 0.0016407)
(19.9846 0.0176332 0.00274747)
(19.972 0.0314474 0.00442079)
(19.9534 0.0558549 0.00706263)
(19.9285 0.0994882 0.0113143)
(19.8997 0.177194 0.018176)
(19.8843 0.310404 0.0288406)
(19.9155 0.511096 0.0426896)
(20.1112 0.766662 0.05666)
(20.462 0.756533 0.0673317)
(20.7283 0.496379 0.0804659)
(20.7662 0.129652 0.0693056)
(20.6 -0.180933 0.0351432)
(20.3702 -0.250426 0.0108604)
(20.2323 -0.202797 0.00553168)
(20.1884 -0.158736 0.00661581)
(20.1734 -0.133648 0.00720771)
(20.16 -0.115705 0.00758381)
(20.1511 -0.104693 0.00827632)
(20.1473 -0.101349 0.00905787)
(20.1439 -0.101633 0.00975005)
(20.1384 -0.101163 0.0105909)
(20.1318 -0.0983723 0.0116508)
(20.1259 -0.0936912 0.0126019)
(20.1218 -0.0874216 0.0133277)
(20.1194 -0.0806355 0.0139529)
(20.1169 -0.0717223 0.013773)
(20.1267 -0.0571302 0.0156616)
(19.9998 0.00137242 0.000248237)
(19.9982 0.00464893 0.000812638)
(19.9948 0.00935116 0.0015243)
(19.9892 0.0169462 0.00250664)
(19.9812 0.0297378 0.00394104)
(19.9708 0.0515166 0.00609822)
(19.9595 0.0884162 0.0093586)
(19.9519 0.149347 0.0142693)
(19.9625 0.244436 0.0212573)
(20.0148 0.37131 0.0299536)
(20.1605 0.510775 0.0380465)
(20.3921 0.500637 0.0412656)
(20.5782 0.318697 0.0418855)
(20.6171 0.0830289 0.0324172)
(20.5189 -0.107217 0.014301)
(20.3704 -0.167169 0.000740336)
(20.2659 -0.140954 -0.00377486)
(20.2209 -0.104126 -0.00507325)
(20.2006 -0.0776666 -0.00654238)
(20.1843 -0.0558985 -0.00757031)
(20.1721 -0.0377338 -0.00752972)
(20.165 -0.0249686 -0.00681369)
(20.1598 -0.0162381 -0.00599916)
(20.1541 -0.00864599 -0.00527571)
(20.1477 -0.000512658 -0.00465221)
(20.1418 0.00826236 -0.00412409)
(20.1373 0.0169759 -0.00358147)
(20.1336 0.0246854 -0.00291205)
(20.1315 0.0312164 -0.00242347)
(20.1244 0.0377641 -7.24679e-05)
(19.9999 0.00121949 0.000236098)
(19.9988 0.00410985 0.000766687)
(19.9965 0.00821701 0.0014216)
(19.9931 0.0147541 0.00229982)
(19.9889 0.0255273 0.00353292)
(19.9849 0.0433019 0.00529544)
(19.9832 0.0721285 0.00780522)
(19.9891 0.117028 0.0113168)
(20.0135 0.182045 0.0159387)
(20.0714 0.260975 0.0211387)
(20.1847 0.335276 0.025809)
(20.3448 0.323954 0.0270596)
(20.4779 0.209311 0.025675)
(20.5152 0.0560867 0.0186365)
(20.456 -0.0681967 0.00793973)
(20.3562 -0.117773 -0.00063119)
(20.2759 -0.110455 -0.00415824)
(20.2319 -0.0908805 -0.00483153)
(20.2076 -0.0768728 -0.00480814)
(20.1889 -0.0660339 -0.00434095)
(20.1745 -0.0567169 -0.00333903)
(20.1649 -0.050288 -0.0021511)
(20.1582 -0.0466282 -0.00118078)
(20.1523 -0.0441081 -0.000537732)
(20.1463 -0.0414175 -0.00013057)
(20.1409 -0.0382757 0.000160839)
(20.1366 -0.035115 0.000464557)
(20.1331 -0.0322831 0.000841522)
(20.1307 -0.0304098 0.00122587)
(20.129 -0.0256747 0.00228243)
(19.9999 0.000954059 0.000225695)
(19.9992 0.00320401 0.000728081)
(19.9979 0.00637726 0.0013383)
(19.9963 0.0113693 0.00213459)
(19.995 0.0194562 0.0032122)
(19.9954 0.0324812 0.00468307)
(20.0002 0.0529143 0.00666561)
(20.0142 0.083387 0.0092551)
(20.0455 0.125029 0.0123844)
(20.1032 0.17208 0.0156097)
(20.1962 0.211048 0.0181895)
(20.3149 0.202601 0.0184521)
(20.4145 0.133426 0.0163742)
(20.4489 0.0369755 0.011068)
(20.4135 -0.0415849 0.00417705)
(20.344 -0.0760903 -0.00140941)
(20.281 -0.0749871 -0.00403747)
(20.24 -0.0630552 -0.00467886)
(20.2145 -0.0526208 -0.00476851)
(20.1954 -0.0433671 -0.00473123)
(20.1806 -0.0343092 -0.00452775)
(20.1701 -0.0266219 -0.00425278)
(20.1626 -0.0208738 -0.00406008)
(20.1563 -0.0163953 -0.00397526)
(20.1503 -0.0123796 -0.00392468)
(20.1448 -0.00853743 -0.00381482)
(20.1401 -0.00502312 -0.00358094)
(20.1361 -0.00197358 -0.0031866)
(20.1334 0.000374304 -0.00278589)
(20.1283 0.00348704 -0.00174239)
(19.9999 0.000603674 0.000217604)
(19.9995 0.00202498 0.000699476)
(19.9989 0.00402229 0.00127757)
(19.9984 0.00714138 0.00201621)
(19.999 0.0121364 0.00298756)
(20.0023 0.0200522 0.00426533)
(20.0111 0.0321904 0.00591328)
(20.0296 0.0497794 0.0079425)
(20.064 0.0728821 0.0102125)
(20.1203 0.0977836 0.0123637)
(20.2011 0.116565 0.0138365)
(20.2967 0.110908 0.0137131)
(20.3767 0.073589 0.0116299)
(20.4089 0.020767 0.00752701)
(20.3872 -0.0224992 0.00260926)
(20.3352 -0.0426406 -0.00144652)
(20.2828 -0.0435925 -0.00363861)
(20.2445 -0.0375964 -0.00438594)
(20.2185 -0.0317154 -0.0045771)
(20.1991 -0.0264994 -0.00459026)
(20.1837 -0.0216006 -0.00442884)
(20.1722 -0.0177291 -0.00411903)
(20.1636 -0.015308 -0.00375269)
(20.1566 -0.0139494 -0.00338435)
(20.1503 -0.0130368 -0.00301223)
(20.1447 -0.0121761 -0.00261399)
(20.1398 -0.0112273 -0.0021775)
(20.1359 -0.0101541 -0.00170064)
(20.1331 -0.0091135 -0.00129586)
(20.1292 -0.00721591 -0.000585872)
(20 0.000205501 0.000213882)
(19.9997 0.000689998 0.000686086)
(19.9994 0.00137104 0.00124923)
(19.9995 0.00243158 0.00196128)
(20.0011 0.00412022 0.00288351)
(20.0058 0.00677437 0.00407248)
(20.0164 0.010795 0.00556569)
(20.0369 0.0165413 0.00733532)
(20.0726 0.0239365 0.0092183)
(20.1278 0.0317172 0.0108991)
(20.2028 0.0372759 0.0119179)
(20.2881 0.0352523 0.0116319)
(20.3593 0.0234761 0.00961596)
(20.3903 0.00673956 0.00610116)
(20.3747 -0.00708325 0.0020153)
(20.3306 -0.0137567 -0.00140309)
(20.2832 -0.0143783 -0.00339303)
(20.2463 -0.0126063 -0.00416799)
(20.2203 -0.0107257 -0.00438345)
(20.2005 -0.00904975 -0.00439862)
(20.1848 -0.00749326 -0.00425575)
(20.1727 -0.00625425 -0.0039704)
(20.1637 -0.00544518 -0.00361845)
(20.1564 -0.0049139 -0.00326087)
(20.1501 -0.00442825 -0.00291708)
(20.1445 -0.00383007 -0.00258035)
(20.1399 -0.00307195 -0.00224056)
(20.1361 -0.00214508 -0.00189962)
(20.1334 -0.00122844 -0.00161133)
(20.1283 4.61443e-05 -0.0010756)
(20 -0.000209019 0.000645737)
(19.9997 -0.00066733 0.00203846)
(19.9993 -0.00130077 0.00368002)
(19.9991 -0.0022898 0.00575599)
(20.0003 -0.0038765 0.00846455)
(20.0043 -0.00638858 0.0120049)
(20.0138 -0.0102183 0.0165142)
(20.0327 -0.0156948 0.0220311)
(20.066 -0.0227726 0.0282403)
(20.1178 -0.0302849 0.0341486)
(20.1887 -0.0356195 0.0381601)
(20.269 -0.0339333 0.0382885)
(20.3357 -0.023166 0.0335562)
(20.3641 -0.00810994 0.0251119)
(20.3487 0.00392905 0.0158585)
(20.3068 0.00922082 0.00906138)
(20.262 0.00874458 0.0062665)
(20.228 0.00597241 0.00653801)
(20.2057 0.00333666 0.00802145)
(20.191 0.00131936 0.00954007)
(20.181 -0.000271399 0.0107799)
(20.1744 -0.00152687 0.0116626)
(20.17 -0.00249785 0.0121447)
(20.1666 -0.00323806 0.012279)
(20.1637 -0.00372895 0.0121927)
(20.1615 -0.00392606 0.0119343)
(20.1599 -0.00381907 0.0114952)
(20.1587 -0.00347126 0.0108802)
(20.1584 -0.00304318 0.0101776)
(20.1565 -0.00240942 0.00878211)
(20 -0.000607507 0.000656572)
(19.9995 -0.00194085 0.00207579)
(19.9988 -0.003791 0.00375856)
(19.9981 -0.00669394 0.00590834)
(19.9983 -0.0113807 0.00875348)
(20.0009 -0.0188641 0.0125405)
(20.0087 -0.0304112 0.0174819)
(20.0257 -0.0471495 0.0236982)
(20.0578 -0.0692143 0.0309682)
(20.1107 -0.0931893 0.0382657)
(20.187 -0.111163 0.04378)
(20.2771 -0.106527 0.0446861)
(20.3521 -0.0721393 0.0396639)
(20.3812 -0.0244068 0.0300654)
(20.3599 0.0132835 0.0191386)
(20.3105 0.0291229 0.0111397)
(20.2608 0.0266524 0.00824134)
(20.2254 0.0175605 0.00902589)
(20.2035 0.00949645 0.0109771)
(20.1893 0.00367384 0.0127932)
(20.1796 -0.000602441 0.0142782)
(20.1732 -0.00372249 0.0153935)
(20.1688 -0.00607582 0.0160766)
(20.1655 -0.0080082 0.0163787)
(20.1627 -0.00950773 0.0163793)
(20.1605 -0.0103149 0.0161341)
(20.159 -0.0101683 0.0156744)
(20.1579 -0.00900686 0.0150183)
(20.1575 -0.00732271 0.0143479)
(20.1557 -0.00435238 0.0129876)
(19.9999 -0.000951652 0.000678032)
(19.9992 -0.00304318 0.00215209)
(19.9978 -0.00596339 0.00392155)
(19.996 -0.0105873 0.00622571)
(19.9944 -0.018148 0.00935509)
(19.9942 -0.0304235 0.0136588)
(19.9982 -0.0498164 0.0195215)
(20.0109 -0.0787578 0.0272549)
(20.0398 -0.118398 0.036844)
(20.0941 -0.163564 0.0473326)
(20.1818 -0.200765 0.0562677)
(20.2938 -0.193805 0.0587854)
(20.3868 -0.129149 0.0531564)
(20.4172 -0.0416137 0.0412321)
(20.3827 0.0266518 0.0263234)
(20.3167 0.0531234 0.0154597)
(20.2569 0.0453098 0.0124905)
(20.2195 0.0270038 0.0145556)
(20.1991 0.0119927 0.0174123)
(20.1865 0.00157408 0.0195008)
(20.178 -0.00558759 0.0209477)
(20.1723 -0.0102172 0.0219255)
(20.1684 -0.0134481 0.0225004)
(20.1652 -0.0165056 0.0227126)
(20.1627 -0.0198052 0.0225509)
(20.1611 -0.0228714 0.0219677)
(20.1604 -0.0249937 0.0209593)
(20.16 -0.0256731 0.0195059)
(20.1604 -0.0251584 0.017987)
(20.1566 -0.022329 0.0152506)
(19.9999 -0.00121125 0.000707335)
(19.9988 -0.00387645 0.0022575)
(19.9965 -0.00762884 0.0041487)
(19.993 -0.0136512 0.0066738)
(19.9885 -0.0236824 0.0102202)
(19.9841 -0.0403743 0.0153033)
(19.9818 -0.0676438 0.0226073)
(19.9867 -0.110151 0.0328232)
(20.0091 -0.171843 0.0464409)
(20.0633 -0.247384 0.0627556)
(20.1702 -0.317939 0.0775362)
(20.3216 -0.307433 0.0827465)
(20.4455 -0.197152 0.0771806)
(20.477 -0.0577075 0.0620955)
(20.4193 0.0493864 0.0394731)
(20.3243 0.0860966 0.0231034)
(20.2478 0.0681701 0.0205622)
(20.2081 0.0378794 0.0253174)
(20.1909 0.0148512 0.030016)
(20.1815 -0.00114307 0.0329148)
(20.1752 -0.0119356 0.0346357)
(20.1712 -0.0177935 0.0356311)
(20.1677 -0.0201377 0.0362765)
(20.1643 -0.0211344 0.036765)
(20.1615 -0.0220953 0.0370719)
(20.1599 -0.0231 0.0369937)
(20.1598 -0.0235873 0.0363429)
(20.1604 -0.0228179 0.0349722)
(20.1612 -0.021217 0.0332183)
(20.1604 -0.0157341 0.0297477)
(19.9998 -0.00135807 0.000743375)
(19.9982 -0.00434908 0.00238114)
(19.9948 -0.00860351 0.0044185)
(19.9891 -0.015541 0.00722107)
(19.981 -0.0273757 0.011305)
(19.9705 -0.0477197 0.0174322)
(19.959 -0.0824546 0.0267663)
(19.9511 -0.139878 0.0406762)
(19.9603 -0.229847 0.0607508)
(20.009 -0.350848 0.0862261)
(20.1465 -0.482935 0.111179)
(20.3682 -0.470368 0.122299)
(20.5401 -0.284806 0.121333)
(20.5692 -0.0702938 0.102124)
(20.4734 0.0902251 0.0634994)
(20.3326 0.128221 0.0369994)
(20.2327 0.0880142 0.0368534)
(20.1921 0.0425902 0.0465832)
(20.1802 0.0127958 0.0533684)
(20.175 -0.00833977 0.056234)
(20.1725 -0.0248146 0.0569854)
(20.1719 -0.0363169 0.0564615)
(20.1708 -0.043523 0.0552827)
(20.1685 -0.0480645 0.0541127)
(20.166 -0.0510543 0.0531391)
(20.1647 -0.0528805 0.052186)
(20.165 -0.0534952 0.0508966)
(20.166 -0.0525177 0.0488406)
(20.168 -0.0508272 0.0464851)
(20.1654 -0.0442471 0.0408866)
(19.9998 -0.00137434 0.000781963)
(19.9976 -0.00439001 0.00251557)
(19.9929 -0.00873934 0.00469867)
(19.9848 -0.01597 0.00780368)
(19.9722 -0.0286202 0.012517)
(19.954 -0.0512468 0.0199293)
(19.9295 -0.0920297 0.0318961)
(19.9014 -0.164961 0.0510928)
(19.8857 -0.290512 0.0804403)
(19.9136 -0.481475 0.120517)
(20.1014 -0.732103 0.164909)
(20.4442 -0.704177 0.190351)
(20.6913 -0.415995 0.209334)
(20.7089 -0.0855934 0.185687)
(20.5458 0.177194 0.112705)
(20.3306 0.201562 0.0656214)
(20.2042 0.112453 0.0697649)
(20.1706 0.039433 0.0890795)
(20.1679 0.00179382 0.102017)
(20.1663 -0.0183588 0.108545)
(20.166 -0.030231 0.111495)
(20.168 -0.0367596 0.111402)
(20.1695 -0.0402544 0.109105)
(20.1695 -0.0419633 0.105567)
(20.1692 -0.0420552 0.101566)
(20.1699 -0.0403183 0.0973861)
(20.1719 -0.0368009 0.0929314)
(20.1745 -0.0316989 0.0878286)
(20.177 -0.0262615 0.0828806)
(20.1787 -0.0159932 0.0734274)
(19.9997 -0.00125162 0.000818476)
(19.997 -0.00398694 0.00264968)
(19.991 -0.00795719 0.00498217)
(19.9803 -0.0147204 0.00835265)
(19.9629 -0.0269055 0.0137059)
(19.9355 -0.0495492 0.0225483)
(19.8938 -0.0929399 0.0377184)
(19.8354 -0.178489 0.0638753)
(19.7725 -0.344048 0.106574)
(19.7534 -0.657989 0.169055)
(19.9983 -1.13309 0.246691)
(20.5426 -0.964074 0.311019)
(20.9063 -0.609218 0.40976)
(20.929 -0.142986 0.386869)
(20.6524 0.303923 0.252067)
(20.3015 0.319834 0.185216)
(20.1438 0.17488 0.192043)
(20.135 0.0605429 0.207255)
(20.1565 -0.00759486 0.211218)
(20.1684 -0.0511038 0.212301)
(20.1759 -0.0773384 0.214508)
(20.181 -0.0915067 0.21663)
(20.1815 -0.099491 0.216784)
(20.178 -0.104407 0.214623)
(20.1727 -0.106136 0.210261)
(20.1676 -0.103708 0.204046)
(20.1634 -0.0970112 0.196189)
(20.1593 -0.0869787 0.18666)
(20.1566 -0.0754631 0.176885)
(20.1474 -0.0579816 0.158288)
(19.9996 -0.00099957 0.000850414)
(19.9965 -0.00314737 0.00276356)
(19.9893 -0.00630676 0.00524889)
(19.9762 -0.0117429 0.00886805)
(19.9541 -0.0219046 0.0147401)
(19.917 -0.0416147 0.0247123)
(19.8549 -0.0816611 0.0432263)
(19.7534 -0.168402 0.077332)
(19.6025 -0.360659 0.1371)
(19.4518 -0.859043 0.231722)
(19.5624 -1.47598 0.260084)
(20.4679 -1.93337 0.341983)
(21.0549 -0.989961 0.678673)
(21.1655 -0.656591 0.892401)
(20.8734 0.486538 0.717369)
(20.3111 0.422078 0.635265)
(20.1083 0.253399 0.710173)
(20.0919 0.168486 0.758483)
(20.0717 0.138301 0.764352)
(20.007 0.125457 0.753919)
(19.9121 0.121101 0.736354)
(19.8015 0.120568 0.710973)
(19.684 0.117722 0.67921)
(19.5703 0.110444 0.642695)
(19.4697 0.10123 0.602919)
(19.3872 0.0937207 0.56122)
(19.3247 0.089996 0.518466)
(19.2818 0.089163 0.476054)
(19.2566 0.094285 0.435523)
(19.2428 0.0953544 0.380591)
(19.9996 -0.000639689 0.000873896)
(19.9961 -0.00195314 0.00284682)
(19.988 -0.0038935 0.00543563)
(19.973 -0.00731236 0.00929119)
(19.9472 -0.0138858 0.0156073)
(19.9018 -0.026776 0.0264485)
(19.8208 -0.05525 0.0475396)
(19.6659 -0.12053 0.088328)
(19.3839 -0.295365 0.164407)
(18.8252 -0.822992 0.30077)
(18.6334 -2.06019 0.267885)
(20.311 -3.5232 0.130312)
(21.0844 -1.41424 1.52711)
(21.7018 -2.39487 2.82958)
(17.1008 1.43799 1.19529)
(16.4801 0.833315 0.799994)
(16.3877 0.296108 0.770828)
(16.5471 0.00588211 0.709309)
(16.7322 -0.127057 0.604202)
(16.9263 -0.18377 0.507644)
(17.1197 -0.198861 0.42282)
(17.2977 -0.196018 0.343945)
(17.4616 -0.190995 0.273021)
(17.6192 -0.190544 0.2101)
(17.7784 -0.193262 0.154176)
(17.9401 -0.195046 0.104581)
(18.1026 -0.192573 0.0601749)
(18.2624 -0.185427 0.0236771)
(18.4067 -0.173678 -0.0138122)
(18.5966 -0.13618 -0.0396168)
(19.9996 -0.000209509 0.000885991)
(19.9959 -0.000526502 0.00289129)
(19.9873 -0.000995316 0.00553249)
(19.9713 -0.00190727 0.00950949)
(19.9435 -0.00382673 0.0161266)
(19.8933 -0.00794405 0.0277876)
(19.8012 -0.017601 0.0504464)
(19.6106 -0.0398848 0.0952525)
(19.2036 -0.111645 0.180594)
(18.0631 -0.356916 0.335859)
(16.1656 -1.5939 -0.0232864)
(19.08 -11.051 -4.11548)
(14.4839 -7.48232 13.2912)
(7.24826 -5.45493 0.396887)
(8.23773 3.00966 -2.60349)
(10.6976 2.29759 -2.38009)
(12.7136 1.52195 -1.82874)
(14.1934 0.982788 -1.47147)
(15.1438 0.622998 -1.26699)
(15.7653 0.376944 -1.12652)
(16.2075 0.208509 -1.01533)
(16.5319 0.0953414 -0.925888)
(16.7734 0.0202357 -0.850516)
(16.9637 -0.0294429 -0.785179)
(17.1262 -0.0600525 -0.729113)
(17.2729 -0.0747826 -0.681684)
(17.4075 -0.0747727 -0.64265)
(17.5373 -0.0639308 -0.606857)
(17.6407 -0.0461035 -0.587122)
(17.8362 0.00669197 -0.542326)
(19.9996 0.000244741 0.000885714)
(19.9959 0.000982101 0.0028885)
(19.9873 0.00207525 0.00553135)
(19.9714 0.00384651 0.0095014)
(19.9437 0.00697549 0.0160403)
(19.8936 0.0128388 0.027559)
(19.8018 0.0249973 0.0501603)
(19.6118 0.0510695 0.0948899)
(19.2064 0.129094 0.180099)
(18.0692 0.386351 0.335433)
(15.5915 0.868727 -0.131667)
(-0.564276 -0.418199 -0.827153)
(9.53932 -3.42073 -2.07308)
(12.0083 -2.98763 -1.93024)
(14.0221 -2.39124 -1.45887)
(15.4603 -1.95965 -1.12331)
(16.3394 -1.66468 -0.907358)
(16.8639 -1.45358 -0.750665)
(17.1892 -1.29323 -0.635782)
(17.3833 -1.16568 -0.555022)
(17.4834 -1.05648 -0.494573)
(17.5227 -0.960146 -0.445817)
(17.5273 -0.874924 -0.40584)
(17.5124 -0.799627 -0.373523)
(17.4837 -0.732283 -0.349317)
(17.4552 -0.666433 -0.329938)
(17.4121 -0.624951 -0.320926)
(17.4253 -0.505335 -0.314862)
(19.9996 0.00067397 0.00087382)
(19.9961 0.00238854 0.00283167)
(19.988 0.00498205 0.00543681)
(19.9732 0.0092891 0.00927338)
(19.9477 0.0170547 0.0154961)
(19.9027 0.0315672 0.0262111)
(19.8226 0.0623216 0.0472045)
(19.6693 0.130995 0.0877924)
(19.3916 0.310864 0.163511)
(18.8401 0.84661 0.299932)
(17.8291 2.156 0.182907)
(19.4478 9.50202 -2.73948)
(17.9191 3.41177 11.6326)
(11.3249 3.08075 2.08326)
(20.2055 -1.89161 1.06678)
(19.6056 -1.40703 0.591735)
(19.5465 -0.919394 0.448585)
(19.6327 -0.611682 0.354767)
(19.6638 -0.440021 0.279467)
(19.6408 -0.343019 0.23201)
(19.5817 -0.288414 0.201627)
(19.501 -0.256567 0.17844)
(19.3819 -0.228179 0.16487)
(19.2353 -0.197078 0.160572)
(19.0652 -0.163542 0.162841)
(18.8725 -0.130433 0.16807)
(18.6497 -0.101153 0.174926)
(18.4004 -0.0717266 0.177922)
(18.1404 -0.0594349 0.19172)
(17.7045 -0.0231384 0.191537)