/*--------------------------------*- C++ -*----------------------------------*\
| =========                 |                                                 |
| \\      /  F ield         | OpenFOAM: The Open Source CFD Toolbox           |
|  \\    /   O peration     | Version:  2512                                  |
|   \\  /    A nd           | Website:  www.openfoam.com                      |
|    \\/     M anipulation  |                                                 |
\*---------------------------------------------------------------------------*/
FoamFile
{
    version     2.0;
    format      ascii;
    arch        "LSB;label=32;scalar=64";
    class       volScalarField;
    location    "200";
    object      k;
}
// * * * * * * * * * * * * * * * * * * * * * * * * * * * * * * * * * * * * * //

dimensions      [0 2 -2 0 0 0 0];

internalField   nonuniform List<scalar> 
90398
(
0.231943
0.224238
0.217
0.210182
0.203774
0.19775
0.192073
0.186749
0.181773
0.177129
0.172841
0.168894
0.165234
0.161863
0.15878
0.155984
0.15347
0.151268
0.149314
0.147782
0.152424
0.268708
1.10307
3.9936
9.67229
16.4568
22.7296
27.9775
32.1828
35.881
0.231943
0.22424
0.217007
0.210195
0.203792
0.197771
0.1921
0.186783
0.181814
0.17718
0.172909
0.168977
0.165331
0.161959
0.158869
0.156064
0.153542
0.151338
0.149407
0.148739
0.178788
0.568435
2.27188
6.02939
11.7095
17.9018
23.5688
28.3707
32.2987
35.7975
0.231944
0.224245
0.21702
0.210214
0.203819
0.197806
0.192139
0.186837
0.181886
0.177275
0.17304
0.169145
0.165529
0.16216
0.159058
0.156237
0.153702
0.151504
0.149684
0.152329
0.254174
1.1158
3.73681
8.24899
13.6789
19.2
24.2029
28.5092
32.1109
35.381
0.231945
0.224249
0.217031
0.210234
0.203845
0.197842
0.192182
0.186898
0.181977
0.177411
0.173244
0.169415
0.16585
0.162487
0.15936
0.156512
0.153969
0.151812
0.150361
0.162169
0.401636
1.84937
5.21393
9.82379
14.9073
19.8723
24.3583
28.2716
31.6031
34.6633
0.231946
0.224252
0.217038
0.210251
0.203868
0.197876
0.192228
0.186969
0.182093
0.177576
0.173437
0.169721
0.166294
0.16296
0.159826
0.157037
0.154739
0.15318
0.15333
0.183419
0.607282
2.51115
6.07756
10.5699
15.3321
19.9097
24.0521
27.6997
30.8406
33.7233
0.231952
0.224254
0.217043
0.210265
0.203888
0.1979
0.192282
0.187049
0.182217
0.17773
0.173791
0.170513
0.167659
0.164538
0.161875
0.160816
0.16206
0.166072
0.174564
0.229853
0.783946
2.79287
6.21712
10.486
15.0191
19.3933
23.3701
26.8839
29.9169
32.656
0.231956
0.224264
0.217045
0.210274
0.203904
0.197923
0.19233
0.187132
0.182277
0.177967
0.175384
0.177409
0.179388
0.178291
0.186869
0.208234
0.237693
0.271028
0.307586
0.371616
0.804507
2.40541
5.47558
9.59581
14.1167
18.5166
22.5043
25.9937
28.9756
31.5816
0.231957
0.224272
0.217059
0.210295
0.203921
0.197946
0.192371
0.187153
0.182351
0.177731
0.171318
0.206067
0.244565
0.249066
0.561709
0.656747
0.727669
0.775148
0.802833
0.825464
1.00292
2.03231
4.67382
8.73153
13.3757
17.8912
21.9165
25.3623
28.2541
30.6751
0.231957
0.224272
0.217071
0.210315
0.20395
0.197961
0.192397
0.187162
0.18198
0.173824
0.201667
1.07884
1.95249
2.19646
2.61721
2.27297
1.97852
1.72527
1.51972
1.39213
1.5122
2.44631
4.98431
9.04754
13.7114
18.1681
22.0534
25.3021
27.9765
30.1139
0.231957
0.224271
0.217065
0.210303
0.20395
0.197963
0.192407
0.187193
0.182188
0.174651
0.22968
4.36705
4.0211
2.91424
2.93789
2.33034
1.91265
1.60931
1.388
1.30362
1.6635
3.1777
6.3593
10.7245
15.3278
19.521
23.0636
25.9464
28.2587
30.0029
0.231956
0.224269
0.21706
0.210295
0.203937
0.197944
0.192375
0.187155
0.182189
0.175805
4.86187
3.67468
2.67785
1.58871
1.32744
1.12514
0.966824
0.870326
1.04549
2.1462
4.87579
9.02774
13.6818
18.0563
21.7865
24.8035
27.1681
28.9927
30.2773
0.231956
0.224266
0.217057
0.210291
0.203913
0.197905
0.192308
0.187043
0.181898
0.175033
0.518567
2.08861
1.362
0.612706
0.308883
0.29474
0.284214
0.280259
0.369839
1.13656
3.58065
7.67278
12.4313
16.9925
20.9241
24.1028
26.5708
28.4201
29.7705
30.6379
0.231955
0.224263
0.217038
0.210259
0.203863
0.197856
0.192231
0.18698
0.182063
0.177226
0.18652
0.212387
0.191125
0.173194
0.176354
0.173685
0.172196
0.184679
0.43575
2.03094
5.56132
10.2359
15.0547
19.3904
22.9826
25.7928
27.8933
29.3777
30.3704
30.9001
0.231954
0.224252
0.217019
0.210228
0.20383
0.197809
0.192153
0.186857
0.181898
0.177416
0.173768
0.169877
0.166838
0.164339
0.16224
0.16047
0.159285
0.169566
0.400955
2.17649
6.21301
11.2793
16.2945
20.6747
24.2082
26.8886
28.8057
30.0625
30.7976
31.0569
0.231949
0.224242
0.217014
0.210215
0.203806
0.197772
0.192085
0.186745
0.181779
0.177128
0.172793
0.168749
0.165388
0.162545
0.160101
0.157972
0.156323
0.163336
0.351847
1.9886
6.27483
11.6256
16.8589
21.3726
24.9587
27.6158
29.441
30.5445
31.084
31.1237
0.231944
0.22424
0.21701
0.210201
0.203785
0.197744
0.192022
0.186653
0.181613
0.176894
0.172525
0.168438
0.164883
0.161739
0.158973
0.156544
0.154551
0.158565
0.299765
1.70088
6.02543
11.5399
16.968
21.6512
25.3504
28.051
29.8505
30.8565
31.2486
31.1134
0.231943
0.224238
0.217006
0.210188
0.203768
0.197716
0.191981
0.186584
0.181499
0.1767
0.172224
0.168089
0.164378
0.16108
0.158136
0.155521
0.153295
0.155065
0.254162
1.38594
5.52726
11.0885
16.6802
21.5577
25.4216
28.221
30.0478
31.0091
31.3009
31.0371
0.231943
0.224237
0.217001
0.210177
0.203752
0.197692
0.191949
0.186534
0.181419
0.17658
0.17205
0.167856
0.164026
0.160566
0.157464
0.154713
0.152325
0.152503
0.216802
1.07547
4.83685
10.318
16.0282
21.112
25.1833
28.1339
30.037
31.0033
31.253
30.9074
0.231942
0.224236
0.216995
0.210168
0.203738
0.197671
0.191924
0.186491
0.181359
0.176506
0.171956
0.167737
0.163826
0.160253
0.157025
0.15416
0.151641
0.150771
0.189763
0.809307
4.09999
9.36762
15.1185
20.3848
24.676
27.8095
29.8302
30.8462
31.1215
30.7403
0.231944
0.224238
0.216995
0.210166
0.203734
0.197664
0.191907
0.186462
0.181323
0.176465
0.171916
0.167685
0.163731
0.16008
0.156748
0.153779
0.151152
0.149656
0.172618
0.615497
3.48683
8.50121
14.2003
19.5798
24.0436
27.3403
29.4864
30.5786
30.9311
30.5618
0.238837
0.237493
0.236013
0.234427
0.232761
0.23105
0.229312
0.227602
0.225971
0.224466
0.223066
0.221668
0.220191
0.218712
0.217374
0.216334
0.215723
0.215583
0.215938
0.22251
0.377833
1.77749
7.25594
19.7777
38.6043
56.2734
69.8115
80.2978
88.6007
94.68
0.238837
0.237493
0.236013
0.234427
0.232763
0.231051
0.229313
0.227611
0.226004
0.224549
0.223215
0.221854
0.220372
0.218855
0.217483
0.216439
0.215841
0.215743
0.216916
0.248908
0.77122
3.7244
11.7957
25.7305
43.2895
58.6538
71.0234
80.9124
88.9017
94.8366
0.238838
0.237493
0.236015
0.234429
0.232765
0.231054
0.229318
0.22764
0.226096
0.224775
0.223609
0.222348
0.220871
0.219288
0.217862
0.216823
0.216255
0.216287
0.220441
0.33156
1.53228
6.58636
17.4635
32.4691
47.3447
60.5032
71.6186
80.8334
88.4649
94.2525
0.238838
0.237493
0.236016
0.234431
0.232767
0.231059
0.229335
0.227705
0.226305
0.22527
0.224483
0.223467
0.222029
0.220356
0.218877
0.217889
0.217425
0.217802
0.230254
0.509086
2.67529
9.90947
22.6737
36.4431
49.5024
61.2356
71.42
80.0933
87.4207
93.0864
0.238838
0.237494
0.236016
0.234432
0.232775
0.231073
0.229373
0.227844
0.226744
0.226284
0.226102
0.225653
0.22435
0.222592
0.22109
0.220204
0.219919
0.221064
0.250712
0.781988
4.02001
12.8896
25.5165
38.1496
50.1066
60.9619
70.5405
78.8442
85.948
91.5167
0.238838
0.237494
0.236017
0.234435
0.232779
0.231106
0.229463
0.228121
0.227613
0.227833
0.228507
0.228719
0.22817
0.226517
0.225236
0.22497
0.225659
0.228886
0.281765
1.05511
5.12409
14.6705
26.3095
38.2091
49.5869
59.9965
69.2534
77.3404
84.284
89.7527
0.238839
0.237494
0.236019
0.234439
0.232784
0.231136
0.229619
0.228665
0.228832
0.230233
0.23257
0.235314
0.237172
0.236344
0.237335
0.242174
0.249944
0.262154
0.328714
1.15048
5.38814
14.2272
25.3743
37.146
48.4772
58.8128
67.9558
75.9051
82.6894
88.0012
0.23884
0.237496
0.236023
0.234452
0.232789
0.23115
0.229794
0.229383
0.230702
0.231152
0.234123
0.249785
0.276196
0.293445
0.350522
0.374009
0.406391
0.444654
0.51922
1.14943
4.53266
12.4691
23.7502
36.018
47.6841
58.0984
67.1363
74.8785
81.4047
86.4481
0.23884
0.237499
0.236027
0.234458
0.232801
0.231158
0.229958
0.229988
0.230082
0.234732
0.251435
0.480125
1.002
1.34237
1.47113
1.3608
1.27385
1.21019
1.21673
1.71774
4.45765
12.0035
23.7285
36.4927
48.2796
58.5166
67.2228
74.5653
80.6668
85.3074
0.23884
0.237498
0.236028
0.234461
0.232826
0.231187
0.230142
0.230598
0.231677
0.237769
0.28016
3.75784
3.09693
3.50671
2.49641
1.91756
1.57917
1.35805
1.30781
2.19371
6.42801
15.6012
27.6546
39.9076
51.005
60.5606
68.6043
75.2955
80.7588
84.8165
0.23884
0.237498
0.236027
0.23446
0.232822
0.231171
0.230102
0.23052
0.232063
0.242668
3.9429
2.4618
1.82203
1.45734
1.24624
1.4402
3.74061
10.7115
21.6732
33.838
45.355
55.4853
64.0662
71.18
76.9873
81.6169
84.9311
0.23884
0.237498
0.236025
0.234454
0.232791
0.231121
0.229838
0.229774
0.230419
0.24004
0.345161
0.954977
0.673917
1.09965
0.554127
0.520049
0.487186
0.533316
1.49644
6.50003
16.3764
28.4243
40.246
50.9414
60.1426
67.8
74.0195
78.9539
82.7441
85.2574
0.23884
0.237495
0.236021
0.234447
0.232774
0.231099
0.229625
0.229072
0.230303
0.232393
0.241391
0.25281
0.25729
0.259212
0.259944
0.259812
0.267412
0.467628
2.44058
9.65282
20.9904
33.3058
44.8833
55.1741
63.8795
70.9402
76.5124
80.7446
83.813
85.5742
0.238838
0.237493
0.236016
0.234433
0.232766
0.231078
0.229442
0.228179
0.228159
0.229509
0.232053
0.234667
0.236751
0.238173
0.238349
0.238078
0.244841
0.431305
2.42104
10.1651
22.9961
35.9058
47.72
58.0126
66.5531
73.3505
78.5295
82.2309
84.7101
85.795
0.238838
0.237493
0.236015
0.234428
0.232759
0.231047
0.229297
0.227683
0.226694
0.226636
0.227202
0.227846
0.22852
0.228941
0.228779
0.228511
0.233336
0.380732
2.16077
9.77177
23.4979
37.0163
49.2492
59.7767
68.391
75.1099
80.0664
83.3951
85.3953
85.889
0.238838
0.237493
0.236014
0.234426
0.232754
0.231016
0.229224
0.227475
0.225927
0.224852
0.224273
0.223973
0.223881
0.223802
0.22357
0.223386
0.226699
0.333388
1.81961
8.91895
22.9727
36.9843
49.7123
60.627
69.5211
76.3232
81.168
84.2448
85.8754
85.8641
0.238838
0.237493
0.236014
0.234424
0.232747
0.231004
0.229199
0.227394
0.225644
0.224052
0.222674
0.221565
0.220809
0.220346
0.220003
0.219896
0.222136
0.293509
1.45329
7.74587
21.4754
35.9614
49.248
60.6783
69.9802
77.0204
81.8879
84.8046
86.1632
85.7372
0.238838
0.237493
0.236014
0.234423
0.232745
0.231002
0.229195
0.227369
0.22555
0.223784
0.2221
0.220564
0.219352
0.218522
0.218035
0.217966
0.219478
0.263497
1.1039
6.40559
19.3048
34.1443
47.9543
60.0187
69.8459
77.2292
82.2395
85.1026
86.2733
85.5312
0.238838
0.237493
0.236013
0.234422
0.232744
0.231001
0.229197
0.227366
0.225526
0.223703
0.221904
0.220184
0.21872
0.217682
0.217087
0.217012
0.218072
0.243734
0.814661
5.11394
16.9279
31.8298
46.0973
58.7973
69.2342
77.0271
82.2506
85.1571
86.2319
85.2775
0.238839
0.237495
0.236015
0.234424
0.232746
0.231005
0.229204
0.227372
0.225529
0.223691
0.221847
0.220056
0.218497
0.217377
0.216738
0.216665
0.217489
0.232388
0.61188
4.10294
14.9563
29.6643
44.1815
57.3995
68.367
76.5333
81.986
84.9997
86.0738
85.0158
0.239046
0.238073
0.237089
0.236092
0.235091
0.2341
0.233147
0.232278
0.23156
0.231044
0.23069
0.230331
0.229834
0.229293
0.228942
0.228963
0.229316
0.230045
0.233266
0.305711
1.24942
5.72599
18.037
40.4416
66.3608
86.5484
101.849
114.181
124.176
131.184
0.239046
0.238073
0.237089
0.236092
0.23509
0.234102
0.233154
0.232302
0.231624
0.231181
0.230922
0.230616
0.230097
0.229487
0.229078
0.229095
0.229466
0.230482
0.243102
0.516629
2.68843
10.1044
25.76
47.8964
70.5513
88.6628
103.173
115.082
124.843
131.748
0.239046
0.238073
0.237089
0.236094
0.235092
0.234108
0.233174
0.232364
0.231786
0.23153
0.231454
0.231297
0.230755
0.230018
0.229507
0.229523
0.229948
0.231967
0.276959
0.991888
4.99115
16.1224
34.7058
55.2694
74.1698
90.2476
103.821
115.243
124.746
131.559
0.239047
0.238074
0.23709
0.236096
0.235095
0.234119
0.233213
0.232484
0.232107
0.232117
0.232319
0.232409
0.231902
0.231035
0.230453
0.230538
0.231148
0.236161
0.361634
1.80075
8.05757
22.493
41.5705
59.6172
76.2083
90.9227
103.717
114.714
123.99
130.734
0.239047
0.238074
0.237091
0.236098
0.235105
0.234137
0.233279
0.232701
0.232652
0.233059
0.233788
0.234286
0.234092
0.233183
0.232636
0.232889
0.233899
0.245927
0.520008
2.91256
11.4238
27.5641
45.2423
61.685
76.9736
90.7776
102.997
113.661
122.744
129.429
0.239046
0.238076
0.237094
0.236101
0.235116
0.234165
0.233389
0.23308
0.233417
0.234555
0.236286
0.237555
0.238013
0.237351
0.237081
0.237824
0.239877
0.264422
0.738664
4.12416
14.4358
30.7137
46.899
62.4058
76.9239
90.1427
101.953
112.349
121.243
127.838
0.239047
0.238075
0.237096
0.236105
0.235126
0.23421
0.23356
0.233595
0.234603
0.236848
0.240256
0.243647
0.245542
0.246216
0.247077
0.249935
0.256349
0.299154
0.965692
5.11783
16.4061
31.8108
47.4217
62.5234
76.6413
89.49
100.976
111.096
119.744
126.169
0.239048
0.238075
0.237094
0.236104
0.23514
0.234262
0.233778
0.234196
0.236097
0.240671
0.243019
0.251858
0.259272
0.264279
0.28333
0.30495
0.335879
0.407909
1.13046
5.67056
17.2154
32.2335
47.8966
62.9559
76.8547
89.3754
100.486
110.224
118.496
124.622
0.239048
0.238077
0.237096
0.236105
0.235143
0.234304
0.234023
0.234766
0.23581
0.241692
0.25274
0.277964
0.44576
0.444842
0.946449
0.931758
0.929022
0.970277
1.67635
6.3017
17.8567
33.5264
49.6591
64.7024
78.2608
90.2857
100.84
110.008
117.723
123.392
0.239049
0.238078
0.2371
0.236113
0.235153
0.234338
0.234216
0.235287
0.23702
0.243967
0.278629
1.20365
11.8556
5.98484
3.21066
2.45575
2.00591
1.783
2.67194
8.62586
21.6684
37.8497
53.7546
68.257
81.1395
92.4278
102.218
110.615
117.582
122.621
0.239049
0.238078
0.237099
0.236112
0.235147
0.234319
0.234157
0.235204
0.237145
0.245551
1.19204
7.54209
3.09148
2.29038
1.80701
1.66768
3.64286
12.5165
27.5162
43.8415
59.2049
72.9949
85.0911
95.5377
104.442
111.927
118.002
122.272
0.239048
0.238076
0.237095
0.2361
0.23513
0.234256
0.233863
0.234516
0.235921
0.244622
0.264337
0.730013
14.1255
4.03175
0.530514
0.497536
0.49219
1.02522
5.38541
17.4618
33.4098
49.516
64.4431
77.7496
89.2149
98.9149
106.973
113.54
118.694
122.117
0.239047
0.238074
0.237092
0.236098
0.235119
0.234195
0.23356
0.233825
0.235622
0.24037
0.245003
0.260942
0.268797
0.271667
0.266703
0.268552
0.333097
1.32552
6.86582
20.4548
37.2819
53.6308
68.5305
81.6721
92.8117
102.01
109.368
115.106
119.386
121.972
0.239047
0.238074
0.237093
0.236097
0.235101
0.234132
0.233325
0.233084
0.233839
0.235949
0.239302
0.242696
0.245207
0.246859
0.247292
0.248695
0.305662
1.24378
6.9038
21.2157
39.4059
56.2629
71.4861
84.6844
95.6874
104.564
111.403
116.455
119.937
121.742
0.239046
0.238075
0.237091
0.236092
0.235088
0.234083
0.233161
0.232496
0.232503
0.233283
0.234718
0.236048
0.237448
0.238503
0.238954
0.240144
0.281369
1.06955
6.41074
20.8705
40.0579
57.4788
73.2663
86.7956
97.8847
106.56
113.023
117.506
120.302
121.402
0.239047
0.238074
0.237088
0.236088
0.235076
0.234055
0.233066
0.232183
0.231593
0.231563
0.231868
0.232365
0.233011
0.233648
0.234093
0.235098
0.263125
0.879563
5.63513
19.6862
39.4696
57.4924
73.8604
87.9267
99.3252
108.028
114.241
118.263
120.481
120.963
0.239047
0.238073
0.237088
0.236086
0.235065
0.234038
0.233015
0.23203
0.231154
0.230499
0.230131
0.230035
0.230192
0.230512
0.230892
0.231771
0.24944
0.693697
4.67929
17.7293
37.5487
56.3533
73.382
88.1352
100.037
108.934
115.055
118.756
120.5
120.466
0.239047
0.238073
0.237087
0.236084
0.235061
0.234029
0.232989
0.231958
0.230965
0.230048
0.229239
0.228634
0.228473
0.228597
0.228944
0.229755
0.240265
0.533591
3.67013
15.2776
34.593
54.1631
71.958
87.4979
100.081
109.312
115.479
119
120.396
119.963
0.239047
0.238074
0.237087
0.236083
0.235061
0.234026
0.232978
0.231928
0.23089
0.229875
0.228889
0.228025
0.227551
0.227564
0.227895
0.228671
0.234774
0.414551
2.75216
12.7736
31.167
51.1488
69.8089
86.2112
99.5339
109.232
115.544
119.018
120.202
119.502
0.239047
0.238075
0.237088
0.236085
0.235063
0.234027
0.232977
0.23192
0.230866
0.229818
0.228766
0.227796
0.227189
0.227141
0.227457
0.22821
0.231976
0.338159
2.06044
10.78
28.1797
48.1806
67.3616
84.6698
98.6196
108.767
115.279
118.814
119.939
119.124
0.239055
0.238105
0.237163
0.23623
0.235314
0.234427
0.233596
0.232865
0.232295
0.231933
0.231752
0.23161
0.231391
0.231166
0.231166
0.231463
0.232097
0.23353
0.253279
0.65314
3.51668
12.9229
33.4695
63.1491
90.8091
110.838
127.058
140.545
151.575
159.068
0.239055
0.238105
0.237163
0.23623
0.235313
0.234428
0.233603
0.232887
0.23235
0.23205
0.231947
0.231848
0.231602
0.231304
0.231247
0.231544
0.23224
0.235763
0.319068
1.42118
6.66278
20.0073
42.7433
69.6607
93.9315
112.854
128.551
141.721
152.577
160.001
0.239055
0.238105
0.237163
0.236231
0.235314
0.234434
0.233621
0.232942
0.232491
0.232347
0.23241
0.232426
0.232146
0.231717
0.231559
0.231855
0.232774
0.244012
0.501604
2.80598
11.2819
29.1034
52.7971
76.0444
96.7773
114.378
129.414
142.231
152.901
160.272
0.239055
0.238106
0.237164
0.236232
0.235317
0.234444
0.233656
0.233046
0.232762
0.232863
0.233144
0.233344
0.233075
0.232508
0.23227
0.232624
0.234223
0.267625
0.87654
4.86646
16.8948
37.6941
59.8686
80.0717
98.6745
115.207
129.625
142.116
152.615
159.948
0.239055
0.238106
0.237165
0.236234
0.235322
0.23446
0.233713
0.233227
0.23324
0.233638
0.234323
0.234836
0.234792
0.234163
0.23395
0.234461
0.237731
0.31995
1.48736
7.49054
22.5716
43.8194
63.7221
82.3861
99.7578
115.416
129.316
141.511
151.84
159.13
0.239055
0.238107
0.237167
0.236236
0.23533
0.234485
0.233803
0.233527
0.233836
0.234783
0.236205
0.237353
0.237787
0.237431
0.237483
0.238334
0.244903
0.410309
2.3003
10.346
27.4487
47.5001
66.1061
83.8339
100.336
115.315
128.757
140.65
150.769
157.968
0.239055
0.238107
0.237169
0.236238
0.235339
0.234518
0.233937
0.233982
0.234756
0.236601
0.239413
0.242056
0.243538
0.244065
0.244743
0.246362
0.258523
0.53477
3.1956
13.0611
31.1141
50.0566
68.0514
85.1077
100.912
115.311
128.285
139.807
149.619
156.631
0.239056
0.238108
0.237169
0.236239
0.235348
0.234556
0.234105
0.234419
0.235891
0.23925
0.241533
0.248674
0.253876
0.256762
0.263258
0.267411
0.288463
0.682343
4.12542
15.694
34.0977
52.6213
70.3427
86.8515
102.019
115.809
128.222
139.236
148.593
155.283
0.239056
0.238109
0.237171
0.236245
0.235354
0.23459
0.234268
0.234864
0.237155
0.243056
0.248312
0.265564
0.285343
0.288448
0.32473
0.350646
0.392718
0.891941
5.12125
18.3887
37.0999
55.9291
73.4617
89.4598
103.975
117.068
128.784
139.124
147.852
154.064
0.239058
0.23811
0.237173
0.23625
0.235362
0.234614
0.234371
0.235191
0.238224
0.242284
0.259621
0.627864
1.27614
0.741915
1.24144
1.04655
0.927677
1.4932
6.88381
22.0363
41.348
60.2432
77.4551
92.9203
106.769
119.11
130.023
139.542
147.479
153.063
0.239057
0.23811
0.237172
0.236248
0.235357
0.234598
0.234317
0.235117
0.23812
0.242782
0.262401
0.774615
15.0068
4.6992
0.640199
0.590943
0.617299
1.90037
9.52803
26.6042
46.2025
64.8696
81.7602
96.8433
110.118
121.735
131.802
140.403
147.431
152.258
0.239056
0.238108
0.23717
0.23624
0.23534
0.234547
0.234125
0.234633
0.236829
0.242817
0.251068
0.385134
0.434333
0.339951
0.284119
0.288586
0.479229
2.71931
12.1763
30.4312
50.1833
68.8697
85.7422
100.674
113.574
124.58
133.825
141.48
147.539
151.533
0.239055
0.238107
0.237167
0.236232
0.235328
0.234493
0.233913
0.234071
0.235363
0.238662
0.242237
0.253405
0.259079
0.261116
0.257163
0.266923
0.541421
3.15355
13.4475
32.6441
53.0636
72.0835
89.1971
104.11
116.775
127.277
135.795
142.55
147.634
150.777
0.239055
0.238106
0.237166
0.23623
0.235314
0.234443
0.233722
0.233445
0.233976
0.235604
0.238256
0.240957
0.243041
0.244281
0.244763
0.253745
0.500348
3.08236
13.6564
33.5872
54.908
74.3971
91.9273
107.014
119.552
129.641
137.526
143.45
147.616
149.934
0.239055
0.238106
0.237164
0.236226
0.235302
0.234405
0.233589
0.232995
0.232957
0.233561
0.234698
0.235895
0.237148
0.238083
0.238646
0.244663
0.433852
2.75156
13.0412
33.3165
55.5383
75.6087
93.6828
109.166
121.789
131.598
138.94
144.124
147.446
148.997
0.239055
0.238105
0.237162
0.236224
0.235292
0.234379
0.233507
0.232739
0.232219
0.232187
0.232517
0.23304
0.233716
0.234366
0.234936
0.238916
0.37292
2.30257
11.8256
31.9062
54.8731
75.644
94.3892
110.415
123.323
133.074
140.003
144.565
147.138
148.003
0.239055
0.238105
0.237161
0.236221
0.235286
0.234363
0.23346
0.232606
0.231858
0.231312
0.231066
0.231125
0.231434
0.231897
0.23248
0.235118
0.32092
1.80704
10.1706
29.3679
52.7623
74.4195
93.9557
110.739
124.131
134.019
140.706
144.78
146.732
147.019
0.239055
0.238105
0.237161
0.23622
0.235283
0.234353
0.233435
0.23254
0.231692
0.230926
0.230298
0.229934
0.229997
0.230329
0.230916
0.232764
0.283109
1.3367
8.30283
26.0293
49.4288
71.9012
92.3794
110.168
124.278
134.441
141.056
144.791
146.277
146.117
0.239055
0.238105
0.237161
0.236219
0.235281
0.234348
0.233422
0.232508
0.231618
0.230764
0.229973
0.229367
0.22921
0.22946
0.230043
0.231459
0.258908
0.949671
6.50791
22.4889
45.4036
68.5537
90.0195
108.763
123.812
134.382
141.071
144.628
145.824
145.365
0.239056
0.238107
0.237163
0.236222
0.235284
0.23435
0.233421
0.232501
0.231596
0.230711
0.22986
0.229153
0.228872
0.229083
0.229665
0.230875
0.245676
0.683043
5.11287
19.5836
41.7061
65.2042
87.5649
107.155
122.853
133.897
140.742
144.296
145.394
144.808
0.239055
0.238107
0.237168
0.23624
0.235331
0.234454
0.233632
0.232903
0.232316
0.231913
0.231681
0.231523
0.231353
0.231229
0.231348
0.231729
0.232494
0.236345
0.330682
1.5672
7.47261
23.071
51.321
84.8928
112.057
132.114
149.064
163.431
175.224
183.016
0.239055
0.238107
0.237168
0.23624
0.235331
0.234455
0.233637
0.232918
0.232355
0.231996
0.231818
0.23169
0.231493
0.231308
0.231387
0.231777
0.232844
0.247882
0.580773
3.31366
12.7857
32.5367
60.8449
90.3642
114.883
134.205
150.755
164.902
176.548
184.295
0.239055
0.238107
0.237168
0.23624
0.235332
0.234459
0.233651
0.232958
0.232456
0.232208
0.232169
0.232124
0.231892
0.2316
0.231601
0.232017
0.234202
0.287282
1.14348
6.13196
20.1239
43.9256
70.8181
95.7122
117.318
135.842
151.935
165.817
177.32
185.04
0.239055
0.238108
0.237169
0.236241
0.235334
0.234467
0.233676
0.233033
0.232648
0.232609
0.232767
0.232876
0.23262
0.232202
0.23213
0.232658
0.238273
0.387407
2.13349
10.0143
28.3229
53.649
77.4994
99.2723
119.216
136.95
152.594
166.196
177.564
185.268
0.239055
0.238108
0.237169
0.236243
0.235337
0.234479
0.233717
0.233159
0.232978
0.233194
0.233632
0.233967
0.233824
0.233368
0.233333
0.234166
0.248496
0.585332
3.59798
14.6312
35.9314
60.0465
81.4969
101.803
120.617
137.619
152.808
166.134
177.347
185.018
0.239055
0.238108
0.23717
0.236244
0.235342
0.234496
0.233778
0.233361
0.233478
0.234041
0.234972
0.235734
0.235967
0.235735
0.23594
0.237365
0.269415
0.903039
5.4691
19.428
42.0153
64.1361
84.5308
103.83
121.753
138.11
152.8
165.807
176.8
184.377
0.239056
0.238107
0.23717
0.236246
0.235348
0.234518
0.233865
0.233667
0.234084
0.235273
0.237103
0.238581
0.239497
0.239966
0.240557
0.243073
0.304329
1.34651
7.61891
24.0419
46.7263
67.643
87.3534
105.869
123.01
138.699
152.839
165.423
176.074
183.453
0.239057
0.23811
0.237169
0.236246
0.235354
0.234543
0.233974
0.234048
0.234912
0.236993
0.240562
0.244194
0.24642
0.247828
0.249052
0.25342
0.359593
1.9188
10.0197
28.3382
50.662
71.2002
90.4781
108.327
124.728
139.657
153.145
165.157
175.31
182.353
0.239057
0.238112
0.237173
0.23625
0.235358
0.234564
0.234071
0.234331
0.235696
0.239063
0.242038
0.251538
0.258087
0.261952
0.265276
0.272701
0.446725
2.66487
12.6887
32.6235
54.7076
75.2071
94.1228
111.364
126.989
141.121
153.842
165.124
174.608
181.166
0.239057
0.238112
0.237177
0.236254
0.235365
0.234573
0.234118
0.234507
0.236239
0.240651
0.245812
0.265489
0.280909
0.290163
0.29908
0.305252
0.558898
3.56051
15.4879
36.9021
59.0294
79.4907
98.1131
114.787
129.708
143.053
154.933
165.353
174.014
179.948
0.239057
0.238112
0.237176
0.236253
0.23536
0.234559
0.234079
0.234436
0.23615
0.240524
0.246355
0.267687
0.282852
0.294831
0.277321
0.294354
0.74027
4.70468
18.2419
40.6954
62.9939
83.4973
101.939
118.282
132.703
145.318
156.324
165.788
173.51
178.696
0.239057
0.238112
0.237171
0.236246
0.235346
0.234527
0.233961
0.234129
0.235381
0.238712
0.24275
0.255489
0.261823
0.26371
0.25913
0.290204
0.910699
5.57031
20.3968
43.5378
66.127
86.9113
105.447
121.672
135.709
147.685
157.848
166.308
173.01
177.368
0.239056
0.238109
0.237167
0.23624
0.235335
0.234489
0.233817
0.23366
0.234352
0.236305
0.239803
0.243431
0.245872
0.247131
0.248059
0.287526
1.00658
6.06051
21.7043
45.4674
68.6466
89.8225
108.635
124.876
138.587
149.977
159.308
166.772
172.432
175.927
0.239056
0.238106
0.237167
0.236238
0.235324
0.234453
0.233686
0.23322
0.233409
0.234378
0.236071
0.237725
0.239281
0.240314
0.241295
0.273014
0.933921
5.98018
21.9021
46.3622
70.3116
92.0057
111.239
127.644
141.188
152.069
160.597
167.093
171.723
174.365
0.239055
0.238107
0.237167
0.236235
0.235315
0.234424
0.233593
0.232918
0.232613
0.232889
0.233614
0.234536
0.235514
0.236314
0.237181
0.258966
0.800527
5.49374
21.1417
46.0192
70.8581
93.2268
113.046
129.787
143.322
153.818
161.642
167.232
170.884
172.72
0.239055
0.238107
0.237166
0.236232
0.235308
0.234403
0.233533
0.232741
0.232122
0.231851
0.232017
0.232407
0.232984
0.233597
0.234381
0.2483
0.652252
4.74119
19.5399
44.3855
70.071
93.2513
113.847
131.162
144.878
155.136
162.39
167.175
169.957
171.063
0.239055
0.238107
0.237166
0.236231
0.235303
0.23439
0.233496
0.232642
0.231869
0.231257
0.230922
0.230974
0.231275
0.231763
0.232513
0.240815
0.512727
3.82624
17.2482
41.4305
67.7792
91.889
113.42
131.632
145.796
155.988
162.833
166.962
169.002
169.488
0.239055
0.238107
0.237165
0.236229
0.2353
0.234382
0.233475
0.23259
0.231745
0.230976
0.230358
0.230046
0.230165
0.230564
0.231294
0.236129
0.402992
2.89275
14.5455
37.495
64.2186
89.2888
111.91
131.11
146.057
156.396
162.976
166.626
168.095
168.098
0.239056
0.238107
0.237166
0.236229
0.2353
0.234378
0.233466
0.232566
0.23169
0.230855
0.230111
0.229601
0.229573
0.229914
0.230631
0.233557
0.327436
2.07168
11.8408
33.2398
59.968
86.0493
109.759
129.971
145.654
156.358
162.85
166.2
167.307
166.985
0.239056
0.238109
0.237167
0.236232
0.235302
0.23438
0.233465
0.23256
0.231672
0.230812
0.230018
0.229425
0.229298
0.229614
0.230322
0.232322
0.28284
1.46808
9.67267
29.6331
56.0387
82.9695
107.664
128.549
144.801
155.886
162.438
165.691
166.671
166.205
0.239055
0.238107
0.237169
0.23624
0.235332
0.234453
0.233624
0.232876
0.23225
0.231781
0.231466
0.231248
0.231071
0.230989
0.231148
0.231572
0.232609
0.246065
0.556918
3.26469
13.1812
35.2324
69.2193
104.29
130.81
151.441
169.112
184.198
196.569
204.59
0.239055
0.238107
0.237168
0.236239
0.235331
0.234453
0.233627
0.232886
0.232275
0.231832
0.231549
0.231345
0.231142
0.23101
0.231152
0.231605
0.233881
0.290144
1.19293
6.35285
20.7514
46.239
78.3456
109.141
133.719
153.709
171.038
185.941
198.213
206.205
0.239055
0.238107
0.237169
0.23624
0.235332
0.234456
0.233636
0.232912
0.232341
0.231968
0.231773
0.23162
0.231385
0.231173
0.231271
0.231846
0.238758
0.419285
2.41543
11.0339
30.6786
58.8698
87.7404
113.867
136.247
155.619
172.572
187.274
199.451
207.428
0.239055
0.238108
0.237169
0.23624
0.235333
0.234461
0.233653
0.232961
0.232463
0.232225
0.232199
0.232146
0.231884
0.231578
0.231638
0.232595
0.253372
0.704893
4.36017
17.0239
40.8842
68.8832
94.0687
117.322
138.388
157.113
173.689
188.185
200.254
208.225
0.239055
0.238108
0.23717
0.236241
0.235335
0.234468
0.233679
0.233041
0.23267
0.232663
0.232853
0.232982
0.232746
0.232392
0.232494
0.234404
0.287629
1.21411
7.03806
23.6273
49.5924
75.2885
98.3755
120.166
140.187
158.259
174.441
188.715
200.627
208.571
0.239055
0.238107
0.23717
0.236242
0.235338
0.234479
0.233717
0.233163
0.233
0.233248
0.233743
0.234136
0.234138
0.233925
0.234211
0.238169
0.354548
1.97023
10.2669
30.0571
56.2413
79.933
101.981
122.701
141.829
159.262
174.994
188.95
200.63
208.479
0.239056
0.238107
0.237169
0.236243
0.235342
0.234493
0.233768
0.233341
0.233461
0.234052
0.235063
0.235907
0.236337
0.236617
0.237213
0.244887
0.46216
2.97338
13.8141
35.8923
61.3368
84.0619
105.399
125.264
143.577
160.335
175.533
189.023
200.343
207.987
0.239058
0.23811
0.237168
0.236243
0.235345
0.234507
0.233829
0.233566
0.233935
0.235088
0.236965
0.238485
0.239593
0.240366
0.2414
0.255537
0.623697
4.19728
17.4783
41.0297
65.8046
88.2574
109.028
128.116
145.648
161.658
176.17
189.046
199.841
207.14
0.239058
0.238112
0.237172
0.236244
0.235347
0.234518
0.233881
0.233777
0.234441
0.236214
0.239296
0.242341
0.244412
0.245635
0.247112
0.272162
0.839446
5.51608
21.0021
45.7288
70.2968
92.6015
112.909
131.327
148.092
163.296
176.972
189.076
199.173
205.981
0.239058
0.238112
0.237176
0.236248
0.235351
0.23452
0.233902
0.233894
0.234761
0.237033
0.241224
0.245268
0.248247
0.249894
0.251648
0.289856
1.06421
6.81878
24.2763
50.072
74.6298
96.8578
116.864
134.757
150.822
165.169
177.933
189.124
198.365
204.544
0.239058
0.238112
0.237175
0.236247
0.235347
0.23451
0.233872
0.233814
0.234649
0.236919
0.241133
0.245025
0.247906
0.249373
0.251276
0.315675
1.3839
8.19261
27.1757
53.6474
78.3299
100.75
120.664
138.174
153.613
167.156
178.986
189.158
197.416
202.843
0.239058
0.238112
0.237171
0.23624
0.235336
0.234487
0.233796
0.233562
0.234128
0.235834
0.238901
0.241964
0.244171
0.245284
0.247764
0.334044
1.62707
9.30508
29.3874
56.2457
81.3419
104.1
124.131
141.452
156.373
169.151
180.017
189.116
196.299
200.892
0.239057
0.238109
0.237166
0.236237
0.235328
0.234461
0.233705
0.23326
0.233473
0.2345
0.236358
0.238108
0.239669
0.240652
0.243252
0.33435
1.72709
9.8387
30.638
58.1203
83.8324
106.988
127.287
144.574
159.073
171.093
180.965
188.933
194.994
198.714
0.239056
0.238106
0.237166
0.236235
0.23532
0.234435
0.233622
0.232993
0.232801
0.233208
0.234149
0.23526
0.236347
0.237165
0.239284
0.316077
1.63637
9.74103
30.7887
58.9429
85.483
109.233
129.94
147.308
161.508
172.844
181.754
188.588
193.516
196.361
0.239055
0.238106
0.237167
0.236232
0.235313
0.234414
0.23356
0.232806
0.232283
0.232221
0.232575
0.233169
0.233895
0.234564
0.236188
0.292898
1.43001