/*--------------------------------*- C++ -*----------------------------------*\
| =========                 |                                                 |
| \\      /  F ield         | OpenFOAM: The Open Source CFD Toolbox           |
|  \\    /   O peration     | Version:  2512                                  |
|   \\  /    A nd           | Website:  www.openfoam.com                      |
|    \\/     M anipulation  |                                                 |
\*---------------------------------------------------------------------------*/
FoamFile
{
    version     2.0;
    format      ascii;
    arch        "LSB;label=32;scalar=64";
    class       volScalarField;
    location    "200";
    object      k;
}
// * * * * * * * * * * * * * * * * * * * * * * * * * * * * * * * * * * * * * //

dimensions      [0 2 -2 0 0 0 0];

internalField   nonuniform List<scalar> 
84826
(
0.231932
0.224216
0.216974
0.210158
0.203733
0.197665
0.191931
0.186499
0.181406
0.176625
0.172155
0.167989
0.164066
0.160355
0.156789
0.153336
0.149983
0.146756
0.143644
0.140644
0.137751
0.134963
0.132276
0.129684
0.127182
0.124766
0.122431
0.120171
0.117983
0.115863
0.231932
0.224218
0.216978
0.210167
0.203749
0.19769
0.191967
0.186549
0.18147
0.176706
0.172256
0.16811
0.164207
0.16051
0.156949
0.153494
0.150132
0.146898
0.143779
0.140773
0.137875
0.135083
0.132392
0.129796
0.127291
0.124873
0.122535
0.120273
0.118084
0.115962
0.231933
0.22422
0.216982
0.210176
0.203764
0.197716
0.192008
0.186608
0.181557
0.176829
0.172425
0.168326
0.164473
0.160809
0.157265
0.153813
0.150439
0.147198
0.144071
0.141059
0.138158
0.135366
0.132679
0.13009
0.127593
0.125184
0.122857
0.120606
0.118428
0.116314
0.231933
0.224221
0.216986
0.210183
0.203777
0.19774
0.192049
0.186672
0.181658
0.176987
0.172663
0.168653
0.164883
0.161279
0.157768
0.154324
0.150941
0.147688
0.14455
0.141527
0.138614
0.135809
0.133108
0.130505
0.127994
0.125568
0.123221
0.120946
0.118739
0.116599
0.231933
0.224222
0.216988
0.210189
0.203789
0.197762
0.192087
0.186738
0.181775
0.177184
0.172883
0.168909
0.165272
0.161783
0.15834
0.154922
0.151539
0.148276
0.145145
0.142147
0.139273
0.13652
0.133882
0.13135
0.128915
0.126566
0.124294
0.122089
0.119943
0.117843
0.231933
0.224223
0.21699
0.210192
0.203798
0.19778
0.192123
0.186808
0.181909
0.177304
0.173108
0.169338
0.165905
0.162498
0.159134
0.155726
0.152317
0.14902
0.145846
0.142796
0.139865
0.137052
0.134349
0.131749
0.129243
0.126824
0.124483
0.122213
0.120009
0.11787
0.231933
0.224223
0.21699
0.210195
0.203804
0.197795
0.192157
0.186898
0.18199
0.177448
0.173712
0.170632
0.169159
0.167395
0.163812
0.160121
0.156417
0.15289
0.149567
0.146442
0.143505
0.140739
0.138129
0.135664
0.133313
0.13105
0.12886
0.126732
0.124696
0.122733
0.231933
0.224222
0.21699
0.210196
0.203809
0.197808
0.192189
0.186983
0.182045
0.177653
0.173551
0.167197
0.1652
0.185593
0.326819
0.29984
0.29627
0.29976
0.302905
0.303879
0.302092
0.29745
0.290392
0.281619
0.271867
0.261843
0.25212
0.243269
0.235632
0.229767
0.231933
0.224221
0.216989
0.210196
0.203812
0.197818
0.192216
0.187037
0.182149
0.177933
0.174374
0.175635
0.316084
1.23336
2.11293
1.86321
1.67707
1.51693
1.37724
1.25488
1.14856
1.05622
0.975967
0.90616
0.845379
0.792452
0.746299
0.706297
0.671111
0.641272
0.231934
0.224224
0.216993
0.210201
0.203819
0.197829
0.192236
0.187039
0.182205
0.178256
0.17584
0.180711
0.690128
2.4871
2.65919
2.23236
1.97943
1.7761
1.60986
1.47329
1.35952
1.26356
1.18191
1.11206
1.05208
1.00044
0.955888
0.917245
0.883868
0.854154
0.231936
0.224227
0.216997
0.210206
0.203824
0.197827
0.192235
0.187038
0.182203
0.17825
0.176264
0.180466
3.32233
2.77645
2.31329
2.09416
1.90299
1.74309
1.61071
1.4989
1.40263
1.31846
1.24393
1.17721
1.11691
1.06198
1.01138
0.965036
0.920853
0.231936
0.224225
0.216994
0.210202
0.203818
0.197817
0.192214
0.187034
0.182145
0.177923
0.174791
0.175301
0.268796
1.70642
2.22472
1.9991
1.82616
1.67813
1.55112
1.44328
1.35105
1.27119
1.20106
1.1389
1.08324
1.03297
0.987239
0.94554
0.909352
0.876586
0.231935
0.224223
0.21699
0.210197
0.203809
0.197808
0.192188
0.18698
0.18204
0.177643
0.17376
0.16918
0.186224
0.380584
0.315953
0.29583
0.319771
0.354862
0.390334
0.423314
0.451978
0.475484
0.494019
0.508067
0.518309
0.525266
0.529226
0.530582
0.529205
0.526703
0.231934
0.224223
0.216991
0.210195
0.203804
0.197795
0.192155
0.186894
0.181984
0.17744
0.173684
0.170512
0.168849
0.166502
0.163005
0.159347
0.155742
0.153361
0.15307
0.154825
0.158339
0.163118
0.168678
0.174653
0.180769
0.186723
0.192205
0.197059
0.201077
0.204304
0.231934
0.224223
0.21699
0.210193
0.203798
0.19778
0.192122
0.186804
0.181902
0.177295
0.173091
0.169301
0.165833
0.162384
0.159
0.155528
0.15201
0.148586
0.145305
0.142214
0.139353
0.136752
0.134418
0.132341
0.1305
0.128869
0.127399
0.126049
0.124786
0.123526
0.231933
0.224223
0.216989
0.210189
0.203789
0.197762
0.192086
0.186734
0.181769
0.177175
0.172871
0.16889
0.165243
0.161734
0.158262
0.154787
0.151314
0.147939
0.144682
0.141546
0.138531
0.135637
0.132861
0.130199
0.127644
0.125193
0.122839
0.120578
0.118404
0.116313
0.231933
0.224222
0.216986
0.210183
0.203778
0.19774
0.192047
0.186669
0.181654
0.17698
0.172652
0.168634
0.164852
0.161229
0.157689
0.154198
0.150746
0.147401
0.14417
0.141057
0.138058
0.135172
0.132393
0.129721
0.127149
0.124673
0.122289
0.119992
0.117778
0.115644
0.231933
0.22422
0.216982
0.210176
0.203764
0.197716
0.192008
0.186607
0.181555
0.176825
0.172418
0.168313
0.164448
0.160765
0.157195
0.153703
0.150274
0.146956
0.143751
0.140662
0.137685
0.13482
0.132062
0.129409
0.126856
0.1244
0.122034
0.119754
0.117557
0.11544
0.231932
0.224218
0.216978
0.210167
0.203749
0.19769
0.191968
0.186549
0.181471
0.176706
0.172253
0.1681
0.164186
0.16047
0.156884
0.153393
0.149979
0.146679
0.143491
0.140417
0.137456
0.134604
0.13186
0.129218
0.126675
0.124226
0.121868
0.119595
0.117403
0.115293
0.231932
0.224216
0.216973
0.210158
0.203733
0.197666
0.191933
0.186502
0.181409
0.176627
0.172154
0.16798
0.164045
0.160315
0.156723
0.153234
0.14983
0.14654
0.14336
0.140293
0.137339
0.134496
0.131758
0.129123
0.126586
0.124143
0.121791
0.119524
0.117339
0.115235
0.238838
0.237492
0.236012
0.234424
0.23275
0.231008
0.22922
0.227416
0.225632
0.223912
0.222256
0.220561
0.218711
0.216781
0.214903
0.213092
0.211291
0.209476
0.207671
0.205875
0.20409
0.202318
0.200559
0.198815
0.19708
0.195363
0.193662
0.191975
0.190301
0.188645
0.238838
0.237492
0.236012
0.234424
0.23275
0.231009
0.229223
0.227426
0.225662
0.223985
0.222405
0.220794
0.21902
0.217135
0.215278
0.213478
0.211682
0.20987
0.208064
0.206267
0.204481
0.202708
0.200948
0.199201
0.197467
0.195751
0.19405
0.192362
0.190687
0.18903
0.238838
0.237492
0.236012
0.234425
0.232751
0.23101
0.229229
0.227451
0.225735
0.224172
0.222804
0.22142
0.219845
0.218079
0.21628
0.214509
0.21272
0.210911
0.209104
0.207306
0.205518
0.203744
0.201981
0.200233
0.198501
0.196784
0.195082
0.193391
0.191712
0.190048
0.238839
0.237492
0.236012
0.234425
0.232751
0.231014
0.229243
0.227503
0.225891
0.224591
0.223699
0.222832
0.221664
0.22014
0.218449
0.21671
0.214907
0.213073
0.211237
0.209412
0.2076
0.205803
0.204012
0.202241
0.200485
0.198741
0.19701
0.195287
0.19357
0.191859
0.238839
0.237494
0.236012
0.234425
0.232753
0.231021
0.229271
0.227602
0.226207
0.225457
0.225368
0.225312
0.224943
0.223921
0.22247
0.220807
0.218965
0.217065
0.21516
0.213273
0.211407
0.209561
0.207736
0.205937
0.204155
0.202387
0.200629
0.198878
0.197128
0.19538
0.238839
0.237495
0.236015
0.234426
0.232756
0.231033
0.22932
0.227785
0.226804
0.226855
0.228072
0.228938
0.229728
0.229602
0.228644
0.226979
0.224954
0.222789
0.220618
0.218489
0.216402
0.214362
0.212369
0.210412
0.208486
0.206583
0.204696
0.202816
0.200939
0.199064
0.238839
0.237495
0.236017
0.234429
0.23276
0.231052
0.229397
0.228099
0.227807
0.229079
0.232626
0.236433
0.239131
0.240233
0.240022
0.238498
0.236566
0.234566
0.232627
0.23075
0.228868
0.226969
0.225033
0.223052
0.221041
0.219018
0.217006
0.21503
0.213135
0.211355
0.238839
0.237495
0.236017
0.234433
0.232769
0.23108
0.229505
0.228567
0.22908
0.232535
0.234537
0.244236
0.251957
0.267052
0.311618
0.302084
0.292765
0.283926
0.276
0.268935
0.262571
0.256729
0.251319
0.246338
0.241848
0.23797
0.234883
0.232867
0.232158
0.23351
0.238839
0.237495
0.236017
0.234434
0.232777
0.231106
0.229626
0.22911
0.230515
0.237915
0.246813
0.28231
0.375886
0.810481
1.47395
1.23385
1.07844
0.960615
0.870204
0.801147
0.747381
0.704873
0.67117
0.644853
0.625163
0.611768
0.604595
0.603658
0.609406
0.621877
0.238839
0.237495
0.236017
0.234435
0.23278
0.231119
0.229708
0.229403
0.231733
0.24298
0.266389
0.830438
5.03798
4.71006
2.87065
2.33163
2.00508
1.75902
1.57146
1.42837
1.31701
1.22855
1.15744
1.10033
1.05512
1.02028
0.994731
0.976793
0.966852
0.961198
0.238839
0.237495
0.236017
0.234435
0.23278
0.23112
0.229709
0.229405
0.231732
0.242987
0.26828
4.47608
2.98739
2.5455
2.27135
2.04889
1.87827
1.75193
1.655
1.57577
1.50696
1.44424
1.38523
1.3286
1.27373
1.21981
1.16905
1.11588
0.238839
0.237495
0.236014
0.234434
0.232777
0.231107
0.229626
0.229111
0.230512
0.237918
0.255158
0.624515
5.19592
6.38003
1.70972
1.50414
1.4029
1.34445
1.31836
1.31915
1.33825
1.36351
1.38491
1.40163
1.41294
1.41922
1.42059
1.41402
1.39699
1.36502
0.238838
0.237495
0.236014
0.234433
0.232769
0.231079
0.229503
0.228565
0.229079
0.232534
0.237647
0.259439
0.279857
0.360076
0.310241
0.308296
0.30969
0.314026
0.32168
0.332956
0.347549
0.364763
0.383766
0.403768
0.424061
0.443117
0.459869
0.473947
0.484249
0.492595
0.238838
0.237495
0.236016
0.234429
0.23276
0.231051
0.229395
0.228096
0.227807
0.22907
0.232584
0.236225
0.238726
0.239624
0.239443
0.238561
0.237529
0.236139
0.234527
0.232952
0.231553
0.230555
0.229872
0.22946
0.22928
0.229258
0.229363
0.22961
0.229949
0.230459
0.238839
0.237495
0.236014
0.234425
0.232755
0.231032
0.229318
0.227781
0.226798
0.226845
0.228038
0.228857
0.229608
0.229426
0.22851
0.226778
0.224564
0.222106
0.219573
0.217051
0.214598
0.21223
0.209939
0.207706
0.205517
0.203362
0.201225
0.199114
0.197032
0.194972
0.238839
0.237493
0.236012
0.234425
0.232752
0.23102
0.229269
0.227599
0.2262
0.225438
0.225333
0.225252
0.224876
0.223851
0.222396
0.220636
0.218608
0.216475
0.214308
0.212142
0.209981
0.207825
0.205677
0.203541
0.201418
0.199317
0.197238
0.195187
0.193171
0.191205
0.238839
0.237492
0.236012
0.234424
0.232751
0.231013
0.229242
0.2275
0.225885
0.224576
0.223662
0.222762
0.221579
0.220051
0.218362
0.216583
0.214682
0.212717
0.210716
0.208703
0.206689
0.204682
0.20268
0.200696
0.198727
0.196778
0.194853
0.192954
0.191083
0.189254
0.238838
0.237492
0.236012
0.234424
0.23275
0.23101
0.229228
0.227449
0.22573
0.22416
0.222776
0.221367
0.219774
0.218001
0.216201
0.214407
0.212556
0.210665
0.20875
0.20683
0.204911
0.203
0.201097
0.199209
0.197339
0.195491
0.193666
0.191866
0.190094
0.18836
0.238838
0.237492
0.236012
0.234424
0.23275
0.231008
0.229222
0.227425
0.225658
0.223975
0.222382
0.220752
0.21896
0.21707
0.215212
0.213398
0.211563
0.2097
0.207821
0.20594
0.204062
0.202192
0.200333
0.198486
0.196655
0.194846
0.193058
0.191293
0.189553
0.187846
0.238838
0.237492
0.236012
0.234424
0.232749
0.231007
0.229219
0.227414
0.225628
0.223903
0.222234
0.22052
0.218653
0.216717
0.214837
0.213013
0.211179
0.209322
0.207457
0.205591
0.203729
0.201875
0.200035
0.198207
0.196393
0.194602
0.192833
0.191088
0.189367
0.187683
0.239048
0.238077
0.237093
0.236094
0.235083
0.234062
0.233047
0.23206
0.231154
0.23037
0.229687
0.228937
0.227942
0.226795
0.22567
0.224589
0.223493
0.222364
0.221216
0.220055
0.218885
0.217709
0.216528
0.215344
0.214153
0.212961
0.211769
0.210576
0.20938
0.208192
0.239048
0.238077
0.237093
0.236095
0.235084
0.234066
0.233056
0.232083
0.231213
0.230503
0.229945
0.229336
0.228459
0.22739
0.226306
0.225246
0.224157
0.223026
0.221874
0.220709
0.219534
0.218353
0.217168
0.215977
0.214781
0.213586
0.212389
0.211191
0.20999
0.208796
0.239049
0.238077
0.237093
0.236096
0.235087
0.234073
0.233076
0.23214
0.231357
0.230835
0.230597
0.230342
0.229753
0.228875
0.227892
0.226875
0.225792
0.224655
0.223489
0.222309
0.221119
0.219923
0.21872
0.217514
0.216303
0.215093
0.213881
0.212665
0.211446
0.210233
0.239049
0.238077
0.237094
0.236097
0.235091
0.234086
0.233112
0.232245
0.231638
0.231505
0.231692
0.23194
0.231885
0.23145
0.230714
0.229795
0.228721
0.227563
0.226368
0.225157
0.223938
0.222712
0.221477
0.220241
0.219002
0.217761
0.216516
0.215267
0.214011
0.212759
0.23905
0.238078
0.237094
0.236099
0.235097
0.234105
0.233172
0.232428
0.23215
0.232443
0.23336
0.234363
0.235081
0.235285
0.235111
0.234474
0.233442
0.232243
0.230988
0.229718
0.228442
0.227162
0.225878
0.224597
0.223315
0.222029
0.220737
0.219437
0.21813
0.216824
0.23905
0.238079
0.237096
0.236102
0.235106
0.234133
0.233264
0.232731
0.232864
0.233905
0.23623
0.238433
0.240285
0.241307
0.241568
0.241277
0.240361
0.239122
0.237783
0.236419
0.235047
0.23368
0.232315
0.230963
0.229609
0.22825
0.226882
0.2255
0.224102
0.222693
0.23905
0.23808
0.237098
0.236107
0.235116
0.234169
0.233396
0.233208
0.233876
0.236211
0.241039
0.246547
0.250363
0.253151
0.2544
0.254159
0.253149
0.251812
0.250387
0.248929
0.247438
0.245908
0.24433
0.242708
0.241041
0.239334
0.237604
0.235868
0.234155
0.232503
0.23905
0.238082
0.237101
0.236112
0.23513
0.234215
0.233561
0.233696
0.235166
0.239812
0.24332
0.257407
0.268336
0.275971
0.30259
0.305454
0.305386
0.3032
0.300137
0.29656
0.292604
0.288354
0.283945
0.27942
0.274852
0.270314
0.265888
0.261674
0.257803
0.254409
0.23905
0.238082
0.237103
0.236117
0.235145
0.234255
0.233739
0.234173
0.236602
0.245236
0.255032
0.299869
0.471185
0.457741
1.33163
1.12829
0.979607
0.866865
0.778445
0.708271
0.650929
0.603777
0.56409
0.530397
0.501759
0.477569
0.45753
0.441514
0.429801
0.423016
0.23905
0.238082
0.237104
0.23612
0.235153
0.234281
0.233857
0.234499
0.237904
0.250635
0.272604
0.77064
12.1603
6.67892
3.12424
2.40805
1.99056
1.6996
1.48162
1.31431
1.18087
1.07159
0.980199
0.902601
0.836113
0.778874
0.729594
0.687305
0.651538
0.621688
0.23905
0.238082
0.237104
0.236118
0.23515
0.23428
0.233855
0.234497
0.237901
0.250618
0.274053
2.45461
3.10445
2.40415
1.98435
1.69581
1.4853
1.32838
1.20692
1.11075
1.03172
0.965087
0.907678
0.857294
0.812379
0.771708
0.734906
0.700357
0.23905
0.238081
0.2371
0.236114
0.235141
0.234254
0.233737
0.234171
0.236598
0.245225
0.260066
0.640272
13.3153
4.54038
1.34369
1.1424
1.00803
0.914937
0.849627
0.805687
0.777484
0.760506
0.749114
0.739263
0.728186
0.712977
0.692233
0.666114
0.636069
0.60397
0.239049
0.23808
0.237097
0.236111
0.235129
0.234214
0.233559
0.233694
0.235163
0.23981
0.246428
0.275478
0.301014
0.315046
0.303892
0.307068
0.307143
0.305248
0.30278
0.300511
0.29889
0.298148
0.298289
0.299206
0.30078
0.302666
0.304599
0.306262
0.30744
0.307881
0.239049
0.23808
0.237098
0.236106
0.235115
0.234168
0.233394
0.233204
0.233873
0.236199
0.240999
0.246413
0.250126
0.25297
0.254612
0.254959
0.254692
0.253871
0.252792
0.251716
0.250731
0.249855
0.248999
0.248109
0.24713
0.245997
0.244694
0.243218
0.241594
0.239772
0.23905
0.238079
0.237096
0.236101
0.235105
0.234131
0.233262
0.232726
0.232856
0.233891
0.236192
0.238359
0.240192
0.241283
0.241698
0.241551
0.240729
0.239402
0.237871
0.236275
0.234659
0.233051
0.231457
0.229897
0.228355
0.226823
0.225284
0.223745
0.222211
0.22069
0.23905
0.238078
0.237094
0.236099
0.235096
0.234104
0.233169
0.232423
0.232139
0.232423
0.233321
0.234302
0.235019
0.235253
0.23515
0.234539
0.233454
0.232142
0.230753
0.229348
0.227944
0.226541
0.225136
0.223733
0.222329
0.220926
0.21952
0.218108
0.2167
0.215304
0.239049
0.238077
0.237093
0.236097
0.23509
0.234084
0.23311
0.232241
0.231628
0.231481
0.23165
0.231874
0.231808
0.231383
0.230675
0.229752
0.228635
0.227397
0.226098
0.224771
0.22343
0.222082
0.220729
0.219382
0.218038
0.216702
0.215375
0.214051
0.212736
0.211438
0.239048
0.238077
0.237093
0.236095
0.235086
0.234072
0.233074
0.232136
0.231349
0.230814
0.230552
0.230264
0.229652
0.228774
0.227804
0.226785
0.225671
0.224475
0.223235
0.221975
0.220704
0.219427
0.218147
0.216869
0.215591
0.214322
0.213059
0.211802
0.210553
0.209319
0.239048
0.238076
0.237092
0.236094
0.235083
0.234065
0.233054
0.23208
0.231205
0.230485
0.229906
0.229269
0.228371
0.2273
0.226228
0.225169
0.224058
0.222881
0.221677
0.220456
0.219223
0.217985
0.216743
0.215497
0.214251
0.21301
0.211775
0.210544
0.209321
0.208112
0.239048
0.238076
0.237092
0.236094
0.235082
0.234061
0.233045
0.232056
0.231146
0.230352
0.22965
0.228873
0.227857
0.226707
0.225592
0.224514
0.2234
0.222231
0.221038
0.21983
0.218611
0.217386
0.216157
0.214928
0.213696
0.212465
0.211243
0.210025
0.208813
0.207619
0.239057
0.23811
0.237168
0.236232
0.235304
0.234389
0.233495
0.232653
0.231902
0.231275
0.230746
0.230168
0.229398
0.228509
0.227641
0.226807
0.225959
0.225081
0.224186
0.22328
0.222364
0.221441
0.220514
0.219583
0.218648
0.217706
0.216765
0.21582
0.214873
0.213933
0.239057
0.23811
0.237168
0.236233
0.235306
0.234392
0.233505
0.232677
0.231959
0.231399
0.230984
0.230537
0.229878
0.229063
0.228243
0.227436
0.226599
0.225724
0.224832
0.223926
0.22301
0.222086
0.221157
0.220224
0.219285
0.218342
0.217396
0.216449
0.215499
0.214554
0.239057
0.23811
0.237168
0.236234
0.235308
0.234399
0.233526
0.232731
0.232094
0.231704
0.231576
0.231448
0.231058
0.230424
0.229714
0.228961
0.228142
0.227272
0.226378
0.225467
0.224544
0.223613
0.222676
0.221733
0.220781
0.219829
0.218872
0.217911
0.216946
0.215986
0.239057
0.23811
0.237169
0.236235
0.235312
0.234412
0.233562
0.23283
0.232352
0.232305
0.232585
0.232916
0.233013
0.232774
0.2323
0.231653
0.230861
0.229993
0.229088
0.228162
0.227223
0.226273
0.225317
0.224352
0.223381
0.222405
0.221426
0.220441
0.219449
0.21846
0.239058
0.23811
0.23717
0.236237
0.235318
0.234431
0.233618
0.232997
0.232809
0.233162
0.234045
0.235003
0.235737
0.236043
0.236045
0.235631
0.234903
0.234055
0.233148
0.232213
0.231262
0.230298
0.229322
0.228338
0.227345
0.226344
0.225335
0.224316
0.223287
0.222259
0.239058
0.23811
0.23717
0.23624
0.235327
0.234457
0.233703
0.233267
0.233469
0.234431
0.236396
0.238454
0.240047
0.241081
0.241539
0.241527
0.240999
0.240206
0.239306
0.238354
0.237366
0.236353
0.235321
0.234283
0.23323
0.232171
0.231099
0.230011
0.228907
0.227795
0.239058
0.238112
0.237171
0.236243
0.235336
0.23449
0.23382
0.233675
0.234326
0.236302
0.240218
0.244597
0.247833
0.250142
0.251398
0.251753
0.2516
0.250887
0.24997
0.248956
0.247869
0.246711
0.245489
0.244212
0.242879
0.241504
0.240092
0.238655
0.23721
0.235774
0.239059
0.238113
0.237174
0.236246
0.235347
0.234527
0.233961
0.234137
0.2354
0.239193
0.242438
0.253674
0.262192
0.267332
0.279524
0.280067
0.278959
0.2768
0.274417
0.271996
0.269559
0.26711
0.264647
0.262163
0.259668
0.257157
0.25464
0.252141
0.249688
0.247333
0.23906
0.238114
0.237176
0.23625
0.235361
0.234561
0.234105
0.234529
0.236545
0.243135
0.250669
0.278666
0.331811
0.347129
0.479934
0.456508
0.434999
0.41643
0.400343
0.386353
0.37375
0.362283
0.351651
0.341756
0.332403
0.323532
0.31513
0.307206
0.299833
0.293087
0.23906
0.238115
0.237178
0.236256
0.235372
0.234588
0.23421
0.234798
0.237512
0.247188
0.261382
0.676358
13.609
9.35595
2.44961
2.00896
1.70742
1.49226
1.32924
1.20291
1.09932
1.01165
0.936139
0.869234
0.809071
0.754435
0.704507
0.658736
0.61672
0.578014
0.239059
0.238114
0.237178
0.236254
0.235366
0.234587
0.234208
0.234796
0.237511
0.247184
0.262775
0.694231
11.5169
9.44171
2.77044
2.17829
1.78926
1.51756
1.31671
1.16238
1.04005
0.941439
0.860117
0.791827
0.734358
0.685295
0.64308
0.60646
0.574464
0.546353
0.239058
0.238112
0.237174
0.236248
0.235355
0.234559
0.234103
0.234528
0.236545
0.243144
0.253124
0.502914
18.8914
9.72914
0.870812
0.755317
0.669481
0.603757
0.551713
0.509478
0.474504
0.445131
0.420067
0.398328
0.379462
0.362804
0.34806
0.334877
0.323064
0.312468
0.239057
0.238112
0.237172
0.236245
0.235346
0.234526
0.23396
0.234136
0.235402
0.239201
0.244642
0.264206
0.279592
0.289318
0.283384
0.286191
0.287421
0.28689
0.285573
0.283933
0.28213
0.280205
0.278228
0.276173
0.274047
0.271826
0.269504
0.267035
0.264448
0.261587
0.239058
0.238112
0.237171
0.236242
0.235336
0.234489
0.233818
0.233672
0.234325
0.236302
0.240222
0.244603
0.247845
0.250269
0.251732
0.252289
0.252328
0.251687
0.25079
0.249822
0.248853
0.2479
0.24695
0.245988
0.244996
0.24395
0.24284
0.24165
0.240387
0.239033
0.239058
0.23811
0.23717
0.236239
0.235326
0.234455
0.233701
0.233263
0.233463
0.234422
0.23638
0.238434
0.240052
0.241162
0.241741
0.241853
0.241458
0.240679
0.239726
0.238702
0.237647
0.236577
0.235487
0.234387
0.233272
0.232149
0.231009
0.229858
0.2287
0.227541
0.239058
0.23811
0.237169
0.236237
0.235318
0.234429
0.233616
0.232993
0.232799
0.233147
0.234018
0.234965
0.235714
0.236065
0.236132
0.235758
0.235
0.234082
0.233093
0.232085
0.231077
0.230071
0.229062
0.228047
0.227025
0.225999
0.224968
0.223928
0.222882
0.221837
0.239057
0.23811
0.237169
0.236235
0.235312
0.234411
0.23356
0.232826
0.232343
0.232284
0.232552
0.232866
0.232961
0.23274
0.232291
0.231643
0.230819
0.229896
0.228927
0.227934
0.226928
0.225916
0.2249
0.223883
0.222866
0.22185
0.220841
0.219832
0.218826
0.217831
0.239057
0.23811
0.237168
0.236233
0.235308
0.234398
0.233524
0.232727
0.232086
0.231685
0.231537
0.231382
0.230975
0.230341
0.229641
0.228888
0.228047
0.227138
0.226194
0.225231
0.224258
0.223281
0.222301
0.221322
0.22034
0.219363
0.218388
0.217417
0.21645
0.215492
0.239057
0.238109
0.237168
0.236232
0.235305
0.234391
0.233503
0.232673
0.231951
0.231381
0.230948
0.230476
0.229799
0.22898
0.228168
0.227362
0.226512
0.225608
0.224679
0.223735
0.222781
0.221823
0.220862
0.2199
0.218936
0.217974
0.217013
0.216056
0.215102
0.21416
0.239057
0.238109
0.237168
0.236232
0.235304
0.234387
0.233493
0.232649
0.231893
0.231257
0.23071
0.230108
0.229317
0.228422
0.227561
0.22673
0.22587
0.224968
0.224042
0.223103
0.222155
0.221203
0.220249
0.219293
0.218338
0.217381
0.216427
0.215476
0.214529
0.213594
0.239057
0.238111
0.237173
0.236243
0.235323
0.234418
0.233536
0.232704
0.231948
0.231291
0.230709
0.230097
0.229356
0.228539
0.22774
0.226964
0.226178
0.225371
0.224553
0.223728
0.222898
0.222065
0.22123
0.220395
0.21956
0.218725
0.217888
0.217052
0.216216
0.21539
0.239057
0.238111
0.237173
0.236243
0.235324
0.234421
0.233544
0.232723
0.231994
0.23139
0.230894
0.230383
0.229729
0.228972
0.228214
0.227462
0.226689
0.225888
0.225076
0.224255
0.223427
0.222597
0.221764
0.22093
0.220095
0.21926
0.218422
0.217586
0.216749
0.215921
0.239058
0.238112
0.237173
0.236244
0.235326
0.234428
0.233561
0.232768
0.232103
0.231627
0.231348
0.231086
0.230639
0.230032
0.229369
0.228671
0.227925
0.227136
0.226332
0.225514
0.224689
0.223858
0.223024
0.222188
0.22135
0.220509
0.219666
0.218822
0.217977
0.21714
0.239058
0.238112
0.237174
0.236245
0.23533
0.234438
0.233592
0.232848
0.232306
0.232089
0.232218
0.232382
0.232332
0.232008
0.23152
0.23091
0.230199
0.229419
0.228615
0.227791
0.226956
0.226115
0.225269
0.22442
0.223569
0.222713
0.221856
0.220996
0.220134
0.219276
0.239058
0.238112
0.237174
0.236247
0.235335
0.234453
0.233639
0.23298
0.23266
0.232845
0.233419
0.234089
0.234524
0.234704
0.234591
0.234165
0.233528
0.232791
0.232005
0.231189
0.230353
0.229506
0.228651
0.227789
0.226921
0.226047
0.225168
0.224285
0.223395
0.222509
0.239058
0.238112
0.237175
0.236249
0.235342
0.234475
0.233706
0.233188
0.233244
0.233868
0.235216
0.236713
0.237832
0.238575
0.238921
0.238918
0.238486
0.237864
0.237128
0.236333
0.235501
0.234647
0.233779
0.2329
0.232008
0.231106
0.230192
0.229265
0.228322
0.227368
0.239058
0.238112
0.237176
0.236251
0.23535
0.234501
0.233796
0.233495
0.233893
0.235255
0.238017
0.240702
0.242913
0.244534
0.245456
0.245888
0.24598
0.245785
0.245271
0.244557
0.243709
0.242769
0.241766
0.240718
0.239635
0.238522
0.23739
0.236235
0.235063
0.233879
0.239058
0.238112
0.237178
0.236254
0.235358
0.234531
0.233906
0.233895
0.234742
0.237247
0.242467
0.24873
0.252925
0.255896
0.257509
0.258083
0.258223
0.257992
0.257441
0.256708
0.255818
0.254796
0.253644
0.252368
0.250981
0.249488
0.247905
0.246241
0.244517
0.242736
0.239059
0.238114
0.23718
0.236258
0.235368
0.234557
0.234008
0.234218
0.235567
0.239716
0.244226
0.25969
0.272181
0.2782
0.284915
0.2857
0.284784
0.282528
0.279959
0.277304
0.274627
0.272004
0.269393
0.26679
0.264158
0.261477
0.258723
0.2559
0.253023
0.250093
0.23906
0.238115
0.237182
0.236263
0.235377
0.234578
0.234078
0.234409
0.236201
0.241969
0.249762
0.293404
0.35976
0.363933
0.373035
0.373858
0.370029
0.365108
0.359814
0.354446
0.349066
0.343596
0.337715
0.331577
0.325248
0.3187
0.311987
0.305151
0.298275
0.291332
0.239059
0.238114
0.237181
0.236261
0.235374
0.234577
0.234078
0.234408
0.236201
0.241976
0.250176
0.311289
0.442494
0.484148
0.391121
0.393841
0.389023
0.381722
0.373381
0.364804
0.35615
0.347606
0.339077
0.330759
0.322645
0.314829
0.307299
0.30007
0.293161
0.286565
0.239058
0.238112
0.237177
0.236256
0.235365
0.234556
0.234007
0.234217
0.23557
0.239729
0.245934
0.271223
0.29685
0.305614
0.290715
0.293497
0.293347
0.29126
0.288517
0.285475
0.282276
0.278991
0.275657
0.272293
0.268918
0.26556
0.262222
0.258925
0.255683
0.252477
0.239058
0.238112
0.237176
0.236253
0.235358
0.23453
0.233905
0.233895
0.234747
0.23726
0.242529
0.248841
0.253103
0.25626
0.257992
0.258677
0.258973
0.258685
0.258063
0.257283
0.256445
0.255587
0.254672
0.253671
0.252577
0.251392
0.250113
0.248737
0.247281
0.245712
0.239058
0.238112
0.237175
0.236251
0.235349
0.2345
0.233795
0.233493
0.233892
0.235262
0.238035
0.240748
0.243006
0.244699
0.245717
0.24626
0.246434
0.246282
0.245751
0.245025
0.244194
0.243297
0.242359
0.241391
0.240401
0.23939
0.238357
0.237298
0.236215
0.235105
0.239058
0.238112
0.237175
0.236248
0.235341
0.234474
0.233704
0.233185
0.233239
0.233863
0.235213
0.236719
0.237875
0.238678
0.239095
0.239145
0.23874
0.238098
0.23732
0.236487
0.235626
0.234746
0.23385
0.232942
0.23202
0.231093
0.230157
0.229213
0.228264
0.227316
0.239058
0.238112
0.237174
0.236246
0.235334
0.234453
0.233637
0.232977
0.232653
0.232833
0.233401
0.234068
0.234521
0.234739
0.23468
0.234263
0.23359
0.232792
0.231939
0.231062
0.230179
0.229296
0.228414
0.227535
0.226657
0.225781
0.224907
0.224032
0.223157
0.222287
0.239057
0.238112
0.237173
0.236245
0.235329
0.234437
0.23359
0.232845
0.232298
0.232073
0.232192
0.232346
0.232293
0.231978
0.231502
0.230886
0.230148
0.229325
0.228475
0.227606
0.226729
0.22585
0.224971
0.224094
0.223221
0.22235
0.221486
0.220624
0.219767
0.218921
0.239057
0.238111
0.237173
0.236243
0.235326
0.234427
0.233559
0.232765
0.232096
0.231611
0.231317
0.231035
0.230574
0.229962
0.229303
0.228601
0.227838
0.227022
0.226185
0.225335
0.224478
0.22362
0.222763
0.221909
0.221057
0.220209
0.219364
0.218522
0.217687
0.216861
0.239057
0.238111
0.237173
0.236243
0.235323
0.23442
0.233542
0.23272
0.231987
0.231374
0.230864
0.230334
0.229662
0.228899
0.228143
0.22739
0.226607
0.225786
0.224951
0.224106
0.223256
0.222405
0.221556
0.220709
0.219864
0.219022
0.218182
0.217347
0.216516
0.215698
0.239057
0.238111
0.237173
0.236242
0.235322
0.234417
0.233534
0.2327
0.23194
0.231275
0.230679
0.230046
0.229287
0.228461
0.227663
0.226887
0.226093
0.225269
0.224432
0.223587
0.222738
0.221889
0.221041
0.220195
0.219352
0.218512
0.217675
0.216841
0.216012
0.215196
0.239058
0.238111
0.237173
0.236243
0.235324
0.234419
0.233533
0.232691
0.231908
0.231198
0.230541
0.229865
0.229109
0.228306
0.227514
0.226737
0.225954
0.225154
0.224349
0.22354
0.222729
0.221918
0.221108
0.2203
0.219494
0.218691
0.21789
0.217092
0.216295
0.215511
0.239058
0.238112
0.237173
0.236244
0.235325
0.234421
0.23354
0.232706
0.231943
0.23127
0.230673
0.230068
0.229374
0.228616
0.227855
0.227097
0.226324
0.22553
0.224731
0.223926
0.223118
0.22231
0.221503
0.220697
0.219893
0.219091
0.218292
0.217494
0.216698
0.215914
0.239058
0.238112
0.237174
0.236244
0.235326
0.234426
0.233553
0.232741
0.232024
0.231441
0.230992
0.230562
0.230018
0.229371
0.228681
0.227964
0.227215
0.226434
0.225643
0.224845
0.224042
0.223237
0.222433
0.221629
0.220826
0.220024
0.219224
0.218423
0.217625
0.216838
0.239058
0.238112
0.237174
0.236245
0.235329
0.234435
0.233576
0.232801
0.232171
0.231767
0.231616
0.231523
0.23126
0.230814
0.230249
0.229601
0.228884
0.228116
0.227333
0.226536
0.225732
0.224925
0.224117
0.22331
0.222503
0.221696
0.220888
0.220081
0.219274
0.218477
0.239058
0.238112
0.237174
0.236247
0.235333
0.234447
0.233613
0.232897
0.232421
0.232339
0.2326
0.23293
0.233104
0.233031
0.232689
0.232158
0.231491
0.230744
0.229966
0.229165
0.228354
0.227538
0.22672
0.225902
0.225084
0.224264
0.223443
0.222621
0.221798
0.220983
0.239058
0.238112
0.237175
0.236248
0.235339
0.234463
0.233662
0.233043
0.232821
0.233122
0.233891
0.234792
0.235436
0.235805
0.235882
0.2356
0.235051
0.234391
0.233653
0.232877
0.23208
0.231273
0.23046
0.229643
0.228823
0.227997
0.227166
0.226327
0.225483
0.224638
0.239058
0.238112
0.237175
0.23625
0.235345
0.234483
0.233727
0.233252
0.233382
0.234143
0.235756
0.237523
0.238867
0.239823
0.240362
0.240522
0.240333
0.239844
0.239181
0.238429
0.237623
0.236785
0.235926
0.235052
0.234165
0.233263
0.232348
0.231419
0.230475
0.229523
0.239058
0.238113
0.237178
0.236252
0.235351
0.234504
0.233802
0.233516
0.233947
0.235403
0.238428
0.241347
0.243697
0.245335
0.2464
0.247034
0.247275
0.247252
0.246886
0.246299
0.245567
0.244725
0.243805
0.242818
0.241767
0.240661
0.239503
0.238305
0.237066
0.235794
0.239059
0.238115
0.237181
0.236256
0.235357
0.234523
0.233874
0.23378
0.234534
0.236844
0.241657
0.247315
0.251067
0.253482
0.255105
0.256001
0.25635
0.256087
0.255315
0.254335
0.253233
0.252049
0.2508
0.249493
0.248107
0.24665
0.245125
0.243536
0.241888
0.240181
0.239059
0.238115
0.237183
0.236261
0.235363
0.234535
0.23392
0.233972
0.234946
0.238089
0.245007
0.253614
0.259403
0.262505
0.264659
0.2657
0.26562
0.264559
0.263099
0.261444
0.259686
0.257873
0.255985
0.254055
0.252061
0.250024
0.247946
0.245826
0.243672