/*--------------------------------*- C++ -*----------------------------------*\
| =========                 |                                                 |
| \\      /  F ield         | OpenFOAM: The Open Source CFD Toolbox           |
|  \\    /   O peration     | Version:  2512                                  |
|   \\  /    A nd           | Website:  www.openfoam.com                      |
|    \\/     M anipulation  |                                                 |
\*---------------------------------------------------------------------------*/
FoamFile
{
    version     2.0;
    format      ascii;
    arch        "LSB;label=32;scalar=64";
    class       volScalarField;
    location    "200";
    object      nut;
}
// * * * * * * * * * * * * * * * * * * * * * * * * * * * * * * * * * * * * * //

dimensions      [0 2 -1 0 0 0 0];

internalField   nonuniform List<scalar> 
84826
(
0.0144196
0.0141771
0.0139458
0.0137245
0.0135126
0.0133096
0.0131154
0.0129295
0.0127526
0.0125833
0.0124229
0.0122669
0.0121227
0.0119893
0.0118552
0.0117237
0.0115936
0.0114671
0.0113442
0.0112249
0.0111087
0.0109958
0.0108861
0.0107794
0.0106754
0.0105742
0.0104756
0.0103793
0.0102853
0.0101934
0.0144196
0.0141772
0.0139458
0.0137247
0.013513
0.0133103
0.0131166
0.0129312
0.0127549
0.0125862
0.0124266
0.0122713
0.0121279
0.0119952
0.0118613
0.0117297
0.0115993
0.0114724
0.0113492
0.0112297
0.0111132
0.0110002
0.0108903
0.0107834
0.0106794
0.0105781
0.0104794
0.0103831
0.010289
0.0101972
0.0144195
0.0141772
0.013946
0.0137249
0.0135135
0.0133111
0.0131174
0.0129329
0.0127579
0.0125906
0.0124328
0.0122788
0.0121374
0.0120064
0.0118732
0.0117418
0.0116106
0.0114832
0.0113601
0.0112404
0.0111239
0.011011
0.0109013
0.0107949
0.0106914
0.0105907
0.0104928
0.0103973
0.0103041
0.010213
0.0144195
0.0141772
0.013946
0.0137251
0.0135138
0.0133118
0.0131186
0.012935
0.0127615
0.0125963
0.0124414
0.0122916
0.0121533
0.0120239
0.0118922
0.0117612
0.0116295
0.0115015
0.0113779
0.0112577
0.0111408
0.0110274
0.0109173
0.0108105
0.0107067
0.0106057
0.0105072
0.0104112
0.0103172
0.0102252
0.0144196
0.0141772
0.0139461
0.0137253
0.0135141
0.0133123
0.0131197
0.0129372
0.0127656
0.0126033
0.0124493
0.0123248
0.0121912
0.0120426
0.0119136
0.0117838
0.011652
0.011523
0.0113994
0.0112801
0.0111647
0.0110535
0.0109463
0.0108428
0.0107427
0.0106457
0.0105514
0.0104594
0.0103694
0.0102808
0.0144195
0.0141773
0.0139461
0.0137253
0.0135144
0.0133128
0.0131207
0.0129396
0.0127703
0.0126076
0.0124574
0.0123202
0.0121951
0.0120705
0.0119446
0.0118152
0.0116827
0.011553
0.0114284
0.0113074
0.0111901
0.0110766
0.0109668
0.0108605
0.0107575
0.0106574
0.0105599
0.0104647
0.0103714
0.01028
0.0144195
0.0141772
0.0139461
0.0137254
0.0135146
0.0133133
0.0131219
0.012942
0.0127726
0.0126127
0.0103362
0.00955398
0.0096156
0.0106866
0.0121423
0.0120029
0.0118607
0.0117247
0.0115957
0.0114724
0.0113542
0.0112414
0.0111344
0.0110336
0.0109374
0.0108445
0.0107537
0.0106638
0.0105748
0.010485
0.0144195
0.0141772
0.013946
0.0137254
0.0135147
0.0133137
0.013123
0.0129439
0.0127736
0.0115323
0.00456316
0.00333069
0.00361459
0.00401999
0.00955515
0.00823469
0.00838152
0.00906001
0.00971791
0.0102812
0.010784
0.0112203
0.0115727
0.0118335
0.0120015
0.0120752
0.0120781
0.0119731
0.0119004
0.0115726
0.0144195
0.0141771
0.013946
0.0137254
0.0135147
0.013314
0.0131239
0.0129458
0.0127763
0.00795455
0.00299798
0.00215099
0.00273784
0.00957025
0.0178938
0.0184689
0.0200776
0.0217873
0.0227086
0.0228824
0.0227466
0.0225023
0.0221784
0.0217674
0.0212601
0.0206569
0.0199575
0.0191578
0.0183836
0.017116
0.0144195
0.014177
0.0139458
0.0137251
0.0135143
0.0133136
0.0131238
0.012945
0.0127752
0.00603218
0.00204721
0.00086423
0.00160088
0.00237337
0.0125625
0.013363
0.0152044
0.0171702
0.0184508
0.0190301
0.0192926
0.0194442
0.0195285
0.0195479
0.0194999
0.0193905
0.0191975
0.01897
0.0185904
0.0182712
0.0144195
0.0141769
0.0139456
0.0137248
0.013514
0.0133133
0.0131238
0.012945
0.0127752
0.0060384
0.00194403
0.00128719
0.00271861
0.0125556
0.0130938
0.0150083
0.0167858
0.0177438
0.0179648
0.0178947
0.017776
0.017676
0.0175958
0.0175339
0.0174883
0.0174397
0.0174537
0.0172834
0.0177858
0.0144195
0.014177
0.0139459
0.0137252
0.0135144
0.0133137
0.0131239
0.0129457
0.0127762
0.0079736
0.00248947
0.000906304
0.00111457
0.00217556
0.0176818
0.0175168
0.0181404
0.0185911
0.0181732
0.0172368
0.0162501
0.0153886
0.014668
0.0140871
0.0136268
0.0132855
0.0130604
0.0130025
0.0129451
0.0135183
0.0144195
0.0141771
0.0139461
0.0137256
0.0135148
0.0133137
0.013123
0.0129439
0.0127735
0.0115681
0.00389393
0.00299139
0.00307165
0.00566795
0.00862868
0.0072489
0.00767749
0.00862564
0.00939371
0.00991556
0.0103186
0.0106443
0.010892
0.0110768
0.0111801
0.011206
0.0111806
0.0111963
0.0111191
0.0112633
0.0144195
0.0141772
0.0139461
0.0137255
0.0135146
0.0133133
0.013122
0.012942
0.0127725
0.0126126
0.0104111
0.00972833
0.0097923
0.0109834
0.0121029
0.0119656
0.011827
0.0117228
0.0116996
0.0117565
0.0118823
0.0120565
0.0122595
0.0124774
0.0127012
0.0129221
0.0121899
0.0115093
0.0110093
0.0103971
0.0144195
0.0141773
0.0139462
0.0137254
0.0135145
0.0133129
0.0131208
0.0129396
0.0127703
0.0126075
0.0124572
0.0123193
0.0121928
0.0120665
0.0119407
0.01181
0.0116747
0.0115412
0.0114127
0.0112898
0.0111745
0.0110686
0.0109728
0.0108872
0.0108113
0.0107449
0.0106861
0.0106334
0.010586
0.0105397
0.0144196
0.0141773
0.0139461
0.0137253
0.0135142
0.0133124
0.0131197
0.0129372
0.0127656
0.0126033
0.0124493
0.0123247
0.0121909
0.012042
0.0119124
0.0117813
0.0116472
0.0115154
0.0113879
0.0112637
0.0111429
0.0110258
0.0109122
0.0108023
0.0106957
0.0105925
0.0104924
0.0103955
0.0103015
0.0102103
0.0144195
0.0141772
0.013946
0.0137252
0.0135139
0.0133118
0.0131187
0.0129351
0.0127616
0.0125964
0.0124415
0.0122915
0.0121531
0.0120233
0.0118909
0.0117588
0.0116253
0.0114944
0.0113677
0.0112442
0.0111238
0.0110068
0.010893
0.0107824
0.010675
0.0105706
0.0104689
0.0103701
0.0102739
0.0101803
0.0144195
0.0141772
0.013946
0.013725
0.0135135
0.0133111
0.0131175
0.012933
0.0127581
0.0125909
0.0124331
0.0122791
0.0121374
0.012006
0.0118721
0.0117397
0.0116069
0.011477
0.011351
0.0112282
0.0111085
0.0109923
0.0108792
0.0107694
0.0106627
0.0105589
0.010458
0.0103599
0.0102643
0.0101713
0.0144196
0.0141772
0.0139458
0.0137248
0.0135131
0.0133104
0.0131167
0.0129314
0.0127552
0.0125867
0.0124272
0.0122718
0.0121282
0.011995
0.0118603
0.0117278
0.0115958
0.0114665
0.0113407
0.0112184
0.0110993
0.0109835
0.0108709
0.0107615
0.0106551
0.0105516
0.010451
0.010353
0.0102577
0.010165
0.0144196
0.0141771
0.0139458
0.0137246
0.0135127
0.0133097
0.0131156
0.0129298
0.012753
0.0125839
0.0124236
0.0122675
0.0121231
0.0119892
0.0118543
0.0117217
0.01159
0.0114612
0.0113357
0.0112136
0.0110947
0.0109791
0.0108667
0.0107575
0.0106513
0.0105481
0.0104476
0.0103499
0.0102549
0.0101624
0.123118
0.114071
0.106847
0.10089
0.0958474
0.0914855
0.0876549
0.0842306
0.0810755
0.0782047
0.0756147
0.0733211
0.0713101
0.0696296
0.0682551
0.0671016
0.0660436
0.0650187
0.0640669
0.0631698
0.062319
0.0615098
0.0607384
0.0600009
0.0592924
0.0586127
0.0579608
0.0573318
0.0567235
0.0561343
0.123117
0.114068
0.106841
0.100879
0.0958277
0.0914516
0.0875968
0.0841473
0.0809461
0.0780152
0.0753573
0.0729934
0.0709329
0.0692285
0.0678658
0.0667406
0.0657185
0.0647256
0.0638005
0.0629272
0.0620981
0.0613088
0.0605553
0.0598338
0.0591408
0.0584766
0.0578383
0.0572218
0.0566251
0.0560462
0.123121
0.114062
0.106829
0.100858
0.0957906
0.0913845
0.0874726
0.0839712
0.0806711
0.0776114
0.0748066
0.0722971
0.0701296
0.06838
0.0670534
0.0660026
0.0650469
0.0641274
0.0632629
0.0624435
0.0616637
0.06092
0.060208
0.0595261
0.0588707
0.0582422
0.0576359
0.0570483
0.0564772
0.0559198
0.123125
0.114056
0.106814
0.10083
0.0957385
0.0912916
0.0873093
0.0837101
0.0802523
0.0769804
0.0738722
0.0711096
0.0686891
0.0668593
0.0655991
0.0646845
0.0638547
0.0630568
0.0622967
0.0615706
0.0608743
0.0602048
0.0595553
0.0589291
0.0583241
0.057739
0.0571698
0.0566114
0.0560617
0.0555066
0.123123
0.114057
0.106797
0.100795
0.0956746
0.0911744
0.0871013
0.0833603
0.0796751
0.0760267
0.0570618
0.0539156
0.0594727
0.0645593
0.0633558
0.0626264
0.061952
0.061324
0.0607184
0.0601355
0.0595723
0.0590278
0.0585004
0.0579924
0.0574999
0.0570186
0.0565441
0.0560715
0.0555971
0.0551129
0.12312
0.114056
0.106787
0.100757
0.095603
0.0910423
0.086859
0.0829284
0.0789014
0.0551946
0.0367062
0.0382441
0.0372765
0.0446994
0.0587104
0.0582061
0.057679
0.0571214
0.0565673
0.0560347
0.0555162
0.0550178
0.0545413
0.0540885
0.0536541
0.0532324
0.0528129
0.0523848
0.0519387
0.0514628
0.123119
0.114048
0.106777
0.100729
0.0955319
0.090908
0.0866016
0.0824155
0.0662986
0.0360564
0.022557
0.0209691
0.0232327
0.0256986
0.0364247
0.0465187
0.0461992
0.0459673
0.0458462
0.0458084
0.0458096
0.045832
0.0458495
0.0458341
0.0457788
0.0456813
0.0455376
0.0453423
0.0450891
0.0447585
0.123117
0.114041
0.106762
0.100706
0.095477
0.0907938
0.0863614
0.0818678
0.0465823
0.0227227
0.0161823
0.0119815
0.011321
0.00952223
0.0180242
0.0181392
0.0181861
0.0182476
0.0183489
0.0184872
0.018653
0.0188391
0.0190331
0.0192223
0.0193987
0.0195676
0.0197363
0.0199188
0.0201212
0.0203723
0.123116
0.114035
0.106749
0.100681
0.0954354
0.0907033
0.0861732
0.0777203
0.0349892
0.0139744
0.00784823
0.00475839
0.00680696
0.00991242
0.0133587
0.01394
0.0145036
0.0149655
0.0153952
0.0158614
0.0163639
0.0169037
0.0174857
0.018119
0.0188164
0.0195938
0.0204695
0.0214626
0.0225934
0.0238699
0.123109
0.114022
0.10673
0.100652
0.0953931
0.0906334
0.0860514
0.0689154
0.0275039
0.0103368
0.00389601
0.00152141
0.003604
0.00553724
0.0204035
0.0220657
0.0232023
0.0239252
0.0244711
0.0249665
0.0254541
0.0259515
0.026474
0.0270385
0.0276617
0.0283566
0.0291339
0.029987
0.0309343
0.0319195
0.123103
0.114012
0.106717
0.10064
0.0953808
0.0906416
0.0860623
0.0689178
0.0275353
0.0103407
0.00362618
0.0125432
0.0225721
0.0250011
0.0268035
0.0280691
0.029138
0.0301606
0.0311399
0.0320368
0.032821
0.0334758
0.033997
0.0343925
0.0346758
0.0348545
0.0349735
0.0349656
0.123103
0.114027
0.106733
0.100673
0.0954261
0.0907146
0.0861868
0.0777167
0.0350635
0.013997
0.00499311
0.00178759
0.00589311
0.0140608
0.0159805
0.0173705
0.0190674
0.0208228
0.02266
0.0246221
0.0266789
0.0277954
0.0283821
0.0291125
0.0298086
0.0303917
0.0308505
0.0313943
0.0315981
0.0324352
0.123101
0.114042
0.106758
0.100712
0.0954816
0.0907992
0.0863688
0.081883
0.0466124
0.0227868
0.01124
0.00870704
0.00817174
0.00791814
0.017961
0.0187573
0.018727
0.0187781
0.0189281
0.0176492
0.0163986
0.0155841
0.0152117
0.0151747
0.015344
0.0156548
0.0161019
0.0166177
0.0170121
0.0176388
0.123109
0.114048
0.10678
0.100732
0.0955357
0.0909134
0.0866109
0.0824339
0.0662456
0.0362499
0.0227508
0.0215205
0.0239164
0.0267166
0.0365811
0.0465973
0.0464319
0.0453411
0.0442067
0.0430357
0.0418333
0.0405384
0.0392598
0.0380537
0.0369428
0.035955
0.0350868
0.0342403
0.0321042
0.0294954
0.12312
0.114057
0.10679
0.10076
0.0956078
0.0910494
0.0868703
0.082948
0.0789406
0.0553662
0.0370553
0.0390031
0.0380475
0.0458536
0.0594309
0.0585797
0.057515
0.0563033
0.0550344
0.0537595
0.0524675
0.0511847
0.0499374
0.0487412
0.0476022
0.0465288
0.0455215
0.044593
0.0437352
0.042974
0.123123
0.114058
0.1068
0.100799
0.0956802
0.0911823
0.0871131
0.0833795
0.0797089
0.076089
0.0575809
0.0546876
0.0600191
0.0649335
0.0636685
0.0627264
0.0616739
0.0605915
0.059504
0.0584374
0.0573821
0.0563368
0.05531
0.0543096
0.0533425
0.0524161
0.0515355
0.0507093
0.0499364
0.0492347
0.123126
0.114058
0.106817
0.100834
0.0957446
0.0913
0.0873214
0.0837287
0.0802819
0.0770286
0.073952
0.0712351
0.0688628
0.067052
0.0657468
0.0647025
0.0636475
0.0626016
0.0615506
0.0605114
0.0594848
0.0584748
0.0574865
0.0565299
0.0556107
0.0547354
0.0539068
0.0531295
0.0524003
0.0517299
0.123122
0.114064
0.106833
0.100863
0.0957971
0.0913934
0.0874851
0.0839893
0.0806977
0.0776508
0.0748638
0.0723769
0.0702288
0.0684798
0.0671138
0.065976
0.0648816
0.0638224
0.0627786
0.0617595
0.0607675
0.0598053
0.0588746
0.0579802
0.0571249
0.0563129
0.0555442
0.0548202
0.0541382
0.0535082
0.123118
0.11407
0.106844
0.100884
0.0958347
0.0914612
0.0876098
0.0841655
0.0809714
0.0780498
0.0754032
0.0730509
0.0709965
0.0692832
0.0678841
0.0666925
0.0655833
0.0645089
0.0634684
0.0624595
0.0614821
0.0605389
0.0596302
0.0587557
0.0579172
0.0571183
0.0563587
0.0556381
0.0549555
0.054317
0.123119
0.114074
0.106851
0.100896
0.0958546
0.0914951
0.087668
0.0842484
0.0810993
0.0782356
0.0756531
0.0733648
0.0713523
0.0696565
0.0682429
0.0670256
0.0658958
0.064807
0.063769
0.0627648
0.0617942
0.0608606
0.0599636
0.0591024
0.058277
0.0574916
0.0567473
0.0560435
0.0553786
0.0547597
0.134469
0.133881
0.133113
0.132198
0.131159
0.130018
0.128811
0.127452
0.126054
0.124628
0.123189
0.12176
0.120308
0.118956
0.11775
0.116654
0.115595
0.114539
0.113502
0.112488
0.111493
0.110518
0.109561
0.108623
0.107697
0.106791
0.105901
0.105026
0.104165
0.103321
0.134469
0.133881
0.133113
0.132197
0.131155
0.130009
0.128792
0.127418
0.126008
0.124558
0.123096
0.121655
0.120146
0.118773
0.117564
0.116482
0.115433
0.114386
0.113359
0.112354
0.111368
0.110402
0.109454
0.108521
0.107606
0.106708
0.105826
0.10496
0.104106
0.103268
0.134469
0.13388
0.133111
0.132193
0.131148
0.129991
0.128744
0.127367
0.125926
0.124429
0.122916
0.121427
0.119844
0.118434
0.117231
0.116175
0.115154
0.114118
0.113108
0.112119
0.111149
0.110198
0.109263
0.108347
0.10745
0.106567
0.1057
0.104846
0.104004
0.103175
0.13447
0.13388
0.13311
0.132189
0.131138
0.129968
0.12869
0.12729
0.125798
0.124229
0.0935281
0.0894373
0.105623
0.11778
0.116595
0.115586
0.114586
0.113575
0.112585
0.111616
0.110666
0.109735
0.108817
0.107922
0.107041
0.106174
0.105321
0.104477
0.103638
0.102806
0.13447
0.13388
0.133108
0.132184
0.131125
0.129941
0.128631
0.127193
0.125641
0.0898207
0.0634404
0.060279
0.068787
0.085135
0.10544
0.113789
0.112853
0.111894
0.110948
0.11002
0.109113
0.108221
0.107348
0.106496
0.105659
0.104835
0.10402
0.103208
0.102394
0.101576
0.13447
0.13388
0.133107
0.132178
0.131112
0.129911
0.12857
0.127087
0.102152
0.0611021
0.0402871
0.0423157
0.044445
0.0539648
0.0737736
0.105632
0.106711
0.105818
0.104906
0.103997
0.103089
0.102191
0.101306
0.100447
0.0996013
0.0987628
0.0979219
0.0970661
0.096183
0.0952557
0.13447
0.13388
0.133106
0.132174
0.131098
0.129882
0.128512
0.126988
0.072891
0.0395003
0.0243822
0.0231795
0.027628
0.030444
0.0434097
0.0758967
0.0860722
0.0846819
0.0833494
0.0820702
0.080865
0.0797442
0.0787108
0.0777571
0.0768725
0.0760438
0.0752486
0.0744509
0.0736161
0.0727238
0.134469
0.133879
0.133105
0.132172
0.13109
0.129861
0.128463
0.103613
0.0510606
0.0244723
0.0173303
0.0120716
0.0172997
0.0158165
0.0175534
0.0253683
0.0301546
0.0296262
0.0292574
0.0289955
0.0288111
0.0286972
0.0286371
0.0286167
0.0286163
0.0286151
0.0285887
0.0285142
0.0283734
0.028159
0.134469
0.133879
0.133104
0.132169
0.131085
0.129848
0.128439
0.0843683
0.0377258
0.0148555
0.00759872
0.00407099
0.0106794
0.0107856
0.0169736
0.0174167
0.017691
0.017877
0.0180346
0.0181859
0.0183409
0.0185041
0.0186775
0.018863
0.0190638
0.0192855
0.0195379
0.0198374
0.0202076
0.0206819
0.134469
0.133878
0.133102
0.132166
0.13108
0.129837
0.12843
0.0745054
0.0295226
0.0105896
0.0036087
0.00136023
0.0295408
0.0149963
0.0238617
0.0245966
0.0249791
0.0251052
0.025124
0.0250952
0.0250401
0.0249669
0.0248825
0.0247936
0.0247081
0.0246346
0.0245838
0.0245657
0.0245981
0.0246878
0.134469
0.133878
0.133102
0.132165
0.131077
0.129834
0.128427
0.0745238
0.0295266
0.0106008
0.00336693
0.00716995
0.0236875
0.0244833
0.0248482
0.0249852
0.0250605
0.0251454
0.0252525
0.0253786
0.0255143
0.0256518
0.0257838
0.0259043
0.026009
0.0260933
0.0261652
0.0262031
0.134469
0.133878
0.133102
0.132168
0.131082
0.129843
0.128436
0.0843483
0.0377485
0.0148732
0.00477128
0.00175419
0.0263772
0.016943
0.0171872
0.0175739
0.0178696
0.0181708
0.0185437
0.0190282
0.0196282
0.0203321
0.0210703
0.0217915
0.0224397
0.0229592
0.0233147
0.023501
0.0235456
0.023486
0.134468
0.133879
0.133104
0.132172
0.131089
0.12986
0.128463
0.103576
0.0510492
0.0244797
0.011302
0.00803813
0.0119244
0.00995971
0.0173407
0.0250595
0.0295218
0.0283712
0.0273578
0.0264549
0.0256719
0.0249976
0.0244601
0.0240498
0.0237598
0.023577
0.0234827
0.0234601
0.0234929
0.0235794
0.134469
0.13388
0.133108
0.132175
0.131098
0.129883
0.128513
0.126993
0.0727964
0.0396027
0.0244733
0.0234883
0.0280239
0.0301169
0.0393497
0.0593128
0.0816865
0.0841375
0.0818638
0.0795907
0.0773475
0.0751431
0.0730258
0.0709753
0.0689947
0.0670984
0.0652998
0.0636239
0.0620733
0.060681
0.13447
0.13388
0.133107
0.132178
0.131112
0.129913
0.128573
0.127092
0.102251
0.0612292
0.0405189
0.0427086
0.0446445
0.0529823
0.068266
0.0919367
0.106841
0.105354
0.103708
0.101971
0.100165
0.0983307
0.0964902
0.0946754
0.0929039
0.0911892
0.0895308
0.0879671
0.0865017
0.0851686
0.13447
0.13388
0.133108
0.132184
0.131126
0.129943
0.128634
0.127198
0.125651
0.0901924
0.0638813
0.0608036
0.0687964
0.0832672
0.0994015
0.113914
0.112769
0.11146
0.110098
0.108719
0.107329
0.105929
0.104524
0.10314
0.101783
0.100471
0.099199
0.0979718
0.0968054
0.0957196
0.13447
0.13388
0.13311
0.13219
0.131139
0.12997
0.128693
0.127295
0.125807
0.124255
0.0944305
0.0906084
0.106373
0.117891
0.116673
0.115569
0.114443
0.113231
0.111991
0.110735
0.109466
0.108192
0.106911
0.105648
0.104407
0.103203
0.102046
0.100931
0.0998637
0.0988594
0.134469
0.13388
0.133112
0.132194
0.131149
0.129992
0.128747
0.127372
0.125933
0.124441
0.122932
0.121452
0.119877
0.118466
0.117234
0.116109
0.114998
0.113827
0.112657
0.111482
0.110304
0.109129
0.107961
0.106808
0.105677
0.104583
0.103524
0.102507
0.101533
0.100606
0.134469
0.133881
0.133113
0.132197
0.131157
0.130011
0.128795
0.127423
0.126014
0.124567
0.123107
0.121667
0.120158
0.118777
0.117541
0.116404
0.115287
0.114117
0.11298
0.111847
0.110717
0.109592
0.108478
0.107377
0.106292
0.105237
0.104215
0.103225
0.102269
0.101358
0.134469
0.133881
0.133114
0.132199
0.13116
0.13002
0.128814
0.127456
0.12606
0.124634
0.123196
0.121763
0.120306
0.11894
0.117704
0.116561
0.115442
0.114276
0.11315
0.112033
0.110919
0.109814
0.108722
0.107645
0.106584
0.105548
0.104549
0.103583
0.10265
0.101765
0.134739
0.134632
0.134511
0.134371
0.13421
0.134028
0.133823
0.133591
0.133352
0.133106
0.132849
0.132554
0.132198
0.131816
0.131451
0.131099
0.130735
0.130355
0.129958
0.129551
0.129133
0.128706
0.12827
0.127826
0.127375
0.126914
0.126449
0.125978
0.1255
0.12502
0.134739
0.134632
0.134511
0.134371
0.13421
0.134027
0.133823
0.133592
0.133356
0.133119
0.132879
0.132615
0.132257
0.131883
0.131525
0.131179
0.130816
0.130436
0.130038
0.12963
0.129212
0.128784
0.128347
0.127902
0.127449
0.12699
0.126524
0.126052
0.125573
0.125093
0.134739
0.134632
0.134511
0.134371
0.13421
0.134027
0.133826
0.133595
0.13337
0.133158
0.132961
0.132756
0.132405
0.132054
0.131713
0.131375
0.131012
0.130629
0.130228
0.129815
0.129392
0.12896
0.128519
0.128071
0.127612
0.12715
0.126681
0.126204
0.125721
0.125234
0.134739
0.134632
0.134511
0.134371
0.13421
0.134027
0.133826
0.133606
0.133405
0.133244
0.107484
0.103278
0.121842
0.132215
0.131911
0.131585
0.131218
0.13082
0.130404
0.129977
0.12954
0.129094
0.128641
0.128178
0.127709
0.127233
0.126751
0.12626
0.12576
0.125255
0.134739
0.134632
0.134511
0.134371
0.13421
0.134028
0.13383
0.133629
0.133473
0.102528
0.0742571
0.0702239
0.0811286
0.0995693
0.124097
0.130942
0.130582
0.130172
0.129742
0.129299
0.128844
0.12838
0.127906
0.127424
0.126936
0.126439
0.125932
0.125415
0.124883
0.12434
0.134739
0.134632
0.134511
0.134371
0.134211
0.134031
0.13384
0.133671
0.115777
0.0711347
0.0486337
0.0482967
0.053025
0.0645285
0.083417
0.115863
0.126872
0.126405
0.125892
0.125346
0.124771
0.124174
0.12356
0.122938
0.122308
0.12167
0.12102
0.120353
0.11966
0.118934
0.134739
0.134632
0.134511
0.134371
0.134212
0.134035
0.133858
0.133742
0.0838812
0.0477239
0.030051
0.0291225
0.0335489
0.0401328
0.0525711
0.079232
0.112486
0.111145
0.10976
0.108385
0.107042
0.105732
0.104483
0.1033
0.102193
0.101161
0.100203
0.0992872
0.0983619
0.0973835
0.134739
0.134633
0.134511
0.134371
0.134213
0.13404
0.133882
0.117789
0.0609952
0.0301734
0.0201352
0.0140457
0.0205142
0.0224914
0.0255866
0.0428799
0.0587221
0.0568309
0.0552638
0.0539543
0.0528517
0.0519491
0.0512148
0.0506384
0.050193
0.0498685
0.0496329
0.0494187
0.0491379
0.0486949
0.134739
0.134633
0.134511
0.134372
0.134215
0.134045
0.13391
0.09698
0.0458251
0.0195378
0.00953226
0.00513641
0.0103571
0.0117334
0.0157273
0.0164613
0.0170413
0.0175311
0.0179743
0.0183832
0.018772
0.0191431
0.0194992
0.0198359
0.0201547
0.0204516
0.0207224
0.0209657
0.0211843
0.0213667
0.134739
0.134633
0.134512
0.134373
0.134216
0.134051
0.133931
0.0866251
0.0374005
0.0142189
0.00487889
0.00256084
0.0197139
0.0196003
0.0250391
0.025623
0.0259243
0.0260765
0.0261534
0.0261877
0.026181
0.0261339
0.026049
0.0259255
0.0257658
0.0255731
0.0253517
0.0251067
0.024845
0.0245679
0.134739
0.134633
0.134512
0.134372
0.134215
0.13405
0.13393
0.086634
0.0373849
0.0142192
0.00444516
0.00164222
0.0330226
0.0385134
0.0272565
0.027228
0.0270131
0.0267175
0.0264039
0.0261005
0.0258151
0.0255527
0.0253139
0.0250988
0.0249101
0.0247457
0.0246039
0.0244809
0.0243762
0.0242782
0.134739
0.134632
0.134511
0.134371
0.134214
0.134045
0.133909
0.0968903
0.0458108
0.0195083
0.00655987
0.00223042
0.0166108
0.0289152
0.0197255
0.0198198
0.0198353
0.0198066
0.0197668
0.0197312
0.019707
0.0197036
0.0197269
0.0197824
0.0198681
0.019986
0.0201299
0.0202967
0.020487
0.0206839
0.134739
0.134632
0.134511
0.134371
0.134213
0.13404
0.133882
0.117714
0.0608734
0.0301318
0.0138475
0.00965985
0.0156903
0.0137671
0.0227344
0.0340135
0.0480947
0.0490218
0.047407
0.0458586
0.0443864
0.04302
0.0417654
0.0406325
0.0396334
0.0387722
0.0380567
0.0374841
0.0370357
0.0367165
0.134739
0.134632
0.134511
0.134371
0.134211
0.134035
0.133858
0.133742
0.0836927
0.0476995
0.0299987
0.0290853
0.033611
0.0387409
0.049338
0.0724151
0.108606
0.1099
0.107831
0.105724
0.103607
0.101505
0.0994539
0.0974694
0.0955659
0.0937533
0.0920526
0.0904759
0.0890146
0.0876639
0.134739
0.134632
0.134511
0.134371
0.13421
0.13403
0.13384
0.133671
0.115774
0.0711496
0.0487043
0.048318
0.052653
0.0622927
0.077751
0.103008
0.126944
0.126336
0.125575
0.124708
0.123751
0.122721
0.121633
0.12051
0.119365
0.118214
0.117063
0.115931
0.114826
0.113778
0.134739
0.134632
0.134511
0.134371
0.13421
0.134028
0.13383
0.133629
0.133472
0.102791
0.0745694
0.0704476
0.0803788
0.0962351
0.116148
0.130996
0.130583
0.130086
0.129524
0.128918
0.128274
0.127598
0.126893
0.126165
0.12542
0.124669
0.123916
0.123165
0.122421
0.121701
0.134739
0.134632
0.134511
0.134371
0.13421
0.134027
0.133826
0.133606
0.133404
0.133242
0.108277
0.104145
0.121791
0.132234
0.131927
0.131574
0.131165
0.130703
0.130205
0.129675
0.129116
0.128531
0.127924
0.1273
0.126662
0.126017
0.125374
0.124734
0.124099
0.123483
0.134739
0.134632
0.134511
0.134371
0.13421
0.134027
0.133826
0.133595
0.133369
0.133156
0.132955
0.132746
0.132394
0.132041
0.131693
0.131335
0.130942
0.130507
0.13005
0.129568
0.129063
0.128537
0.127995
0.127439
0.126873
0.1263
0.125728
0.125159
0.124595
0.124044
0.134739
0.134632
0.134511
0.134371
0.13421
0.134027
0.133823
0.133592
0.133355
0.133116
0.132873
0.132603
0.132241
0.131863
0.131498
0.131136
0.130749
0.130336
0.129895
0.129436
0.128957
0.12846
0.127948
0.127424
0.126891
0.12635
0.125807
0.125265
0.124726
0.124198
0.134739
0.134632
0.134511
0.134371
0.13421
0.134028
0.133823
0.133591
0.13335
0.133102
0.132842
0.132541
0.132178
0.13179
0.131417
0.131052
0.130666
0.130258
0.129823
0.129373
0.128904
0.12842
0.127921
0.127411
0.126893
0.126369
0.125842
0.125316
0.124793
0.124283
0.134745
0.134656
0.134566
0.134476
0.134386
0.134296
0.134207
0.134125
0.134057
0.134006
0.133967
0.133913
0.13382
0.133705
0.133593
0.133484
0.133368
0.133241
0.133105
0.132962
0.132812
0.132656
0.132493
0.132324
0.13215
0.131969
0.131782
0.131589
0.13139
0.131189
0.134745
0.134656
0.134566
0.134476
0.134386
0.134296
0.134209
0.13413
0.134068
0.13403
0.134012
0.133982
0.13391
0.133809
0.133707
0.133605
0.133492
0.133367
0.133232
0.13309
0.132941
0.132785
0.132622
0.132453
0.132278
0.132097
0.131909
0.131716
0.131516
0.131314
0.134745
0.134656
0.134566
0.134476
0.134387
0.134298
0.134213
0.134141
0.134094
0.134087
0.13412
0.134149
0.134124
0.134058
0.133979
0.133889
0.133781
0.133657
0.133523
0.13338
0.133229
0.133071
0.132906
0.132734
0.132556
0.132371
0.13218
0.131982
0.131778
0.13157
0.134745
0.134656
0.134566
0.134477
0.134387
0.1343
0.134221
0.13416
0.134143
0.134198
0.128176
0.123748
0.134446
0.134436
0.134391
0.134313
0.134205
0.134075
0.133932
0.133779
0.133617
0.133448
0.133272
0.13309
0.132901
0.132704
0.132501
0.132291
0.132073
0.13185
0.134745
0.134656
0.134567
0.134477
0.134389
0.134304
0.134232
0.134192
0.134229
0.121835
0.0908395
0.0860011
0.0987107
0.117529
0.134359
0.134317
0.134218
0.134086
0.133934
0.133769
0.133593
0.133408
0.133214
0.133013
0.132802
0.132583
0.132356
0.132119
0.131871
0.131616
0.134745
0.134656
0.134567
0.134478
0.13439
0.134309
0.134248
0.134244
0.134366
0.0876363
0.0614344
0.0583812
0.0661706
0.0773612
0.0948929
0.125276
0.132622
0.132486
0.132313
0.132111
0.131884
0.131638
0.131375
0.131097
0.1308
0.130489
0.130161
0.129814
0.129446
0.129057
0.134745
0.134656
0.134567
0.134478
0.134392
0.134316
0.13427
0.134319
0.102163
0.0603817
0.0395207
0.0428718
0.0443653
0.0514922
0.0646809
0.0830645
0.106377
0.126306
0.125911
0.125413
0.124837
0.124205
0.12353
0.122823
0.122093
0.121347
0.120586
0.119811
0.119017
0.118201
0.134745
0.134656
0.134567
0.134479
0.134394
0.134323
0.134298
0.134414
0.0760748
0.0410454
0.0243624
0.0222482
0.0276933
0.0319118
0.0436708
0.0649761
0.0879946
0.103596
0.101806
0.099999
0.0982104
0.0964707
0.0947817
0.0931777
0.0916673
0.0902591
0.0889488
0.0877162
0.0865204
0.0853218
0.134745
0.134656
0.134567
0.13448
0.134396
0.13433
0.134323
0.117362
0.0595393
0.0286796
0.0162805
0.0118773
0.0153941
0.017059
0.0245555
0.0383786
0.0519167
0.0503748
0.0490012
0.0478147
0.0467533
0.0457663
0.0448515
0.0440035
0.0432388
0.0425613
0.0419739
0.0414704
0.041041
0.0406782
0.134745
0.134656
0.134568
0.13448
0.134398
0.134334
0.13434
0.106399
0.0501644
0.0225289
0.00987834
0.00659127
0.0109635
0.0151036
0.0222214
0.022151
0.0221033
0.0220277
0.0219617
0.0219083
0.021858
0.0218172
0.0218045
0.0218109
0.0218302
0.021863
0.0219061
0.0219563
0.0220146
0.0220736
0.134745
0.134656
0.134568
0.13448
0.134398
0.134334
0.13434
0.106395
0.0501445
0.0225005
0.00927086
0.00624281
0.0118436
0.0158485
0.0214654
0.0216472
0.0217783
0.0218408
0.0218883
0.0219268
0.0219648
0.0220002
0.0220408
0.0220809
0.0221226
0.022162
0.0222004
0.0222358
0.0222702
0.0222949
0.134745
0.134656
0.134567
0.134479
0.134396
0.13433
0.134323
0.117287
0.0594271
0.0286227
0.0123505
0.00811481
0.0145267
0.0145502
0.0232157
0.0358927
0.0439802
0.0430257
0.0422694
0.0416557
0.041144
0.0407082
0.0403403
0.0400305
0.039783
0.0395881
0.0394485
0.0393521
0.0392969
0.0392585
0.134745
0.134656
0.134567
0.134479
0.134394
0.134323
0.134298
0.134414
0.0758267
0.0409462
0.0241466
0.0221207
0.0275834
0.0304835
0.0433589
0.0667664
0.0922048
0.0987542
0.0960351
0.0935442
0.0911078
0.0886063
0.0861679
0.0838792
0.0817619
0.0798271
0.078092
0.0765756
0.0752581
0.074153
0.134745
0.134656
0.134567
0.134478
0.134392
0.134316
0.13427
0.134318
0.10196
0.0601914
0.0394075
0.0424544
0.0439729
0.0498438
0.0622606
0.0786871
0.100703
0.125707
0.125049
0.124225
0.123279
0.122248
0.121162
0.120045
0.118911
0.117769
0.116631
0.115512
0.114421
0.113383
0.134745
0.134656
0.134567
0.134478
0.13439
0.134309
0.134248
0.134243
0.134365
0.0875857
0.0613707
0.05812
0.0651727
0.0748145
0.0902601
0.117595
0.132642
0.132487
0.132268
0.131988
0.131656
0.131278
0.130859
0.130404
0.12992
0.12941
0.128882
0.128341
0.127792
0.12725
0.134745
0.134656
0.134566
0.134477
0.134389
0.134304
0.134231
0.134191
0.134228
0.122055
0.0911121
0.0860559
0.0974659
0.1135
0.134386
0.134345
0.134232
0.134074
0.133889
0.133681
0.133454
0.13321
0.132951
0.132677
0.13239
0.132091
0.131783
0.131467
0.131144
0.130823
0.134745
0.134656
0.134566
0.134477
0.134387
0.1343
0.13422
0.134159
0.134141
0.134194
0.128977
0.124476
0.134443
0.134435
0.134391
0.134307
0.134185
0.134036
0.133869
0.133687
0.133492
0.133285
0.133066
0.132837
0.132599
0.132353
0.132101
0.131843
0.131582
0.131322
0.134745
0.134656
0.134566
0.134476
0.134386
0.134298
0.134213
0.13414
0.134092
0.134083
0.134113
0.134136
0.134108
0.13404
0.13396
0.133865
0.133748
0.133611
0.13346
0.133297
0.133123
0.132938
0.132744
0.132542
0.132332
0.132116
0.131893
0.131666
0.131436
0.131207
0.134745
0.134656
0.134566
0.134476
0.134386
0.134296
0.134208
0.134129
0.134066
0.134026
0.134004
0.133969
0.133892
0.133789
0.133686
0.13358
0.13346
0.133325
0.133178
0.133021
0.132854
0.132679
0.132495
0.132303
0.132104
0.1319
0.131689
0.131474
0.131255
0.131037
0.134745
0.134656
0.134566
0.134476
0.134386
0.134295
0.134206
0.134124
0.134055
0.134002
0.133959
0.1339
0.133802
0.133683
0.13357
0.133458
0.133336
0.133201
0.133053
0.132898
0.132733
0.13256
0.132379
0.132191
0.131997
0.131797
0.131592
0.131382
0.131169
0.130957
0.134745
0.134656
0.134568
0.134481
0.134394
0.13431
0.13423
0.134159
0.134101
0.13406
0.134031
0.133995
0.133936
0.133863
0.133793
0.133724
0.133652
0.133575
0.133493
0.133409
0.133321
0.133232
0.13314
0.133046
0.13295
0.132852
0.132752
0.13265
0.132545
0.132441
0.134745
0.134657
0.134568
0.134481
0.134395
0.134311
0.134232
0.134163
0.13411
0.134079
0.134065
0.134048
0.134005
0.133945
0.133883
0.13382
0.133752
0.133677
0.133598
0.133515
0.133429
0.133341
0.13325
0.133157
0.133062
0.132965
0.132866
0.132764
0.13266
0.132556
0.134745
0.134657
0.134568
0.134481
0.134395
0.134312
0.134235
0.134172
0.134131
0.134123
0.134148
0.134176
0.134173
0.134142
0.1341
0.134049
0.133988
0.133917
0.133841
0.133761
0.133677