/*--------------------------------*- C++ -*----------------------------------*\
| =========                 |                                                 |
| \\      /  F ield         | OpenFOAM: The Open Source CFD Toolbox           |
|  \\    /   O peration     | Version:  2512                                  |
|   \\  /    A nd           | Website:  www.openfoam.com                      |
|    \\/     M anipulation  |                                                 |
\*---------------------------------------------------------------------------*/
FoamFile
{
    version     2.0;
    format      ascii;
    arch        "LSB;label=32;scalar=64";
    class       volScalarField;
    location    "200";
    object      nut;
}
// * * * * * * * * * * * * * * * * * * * * * * * * * * * * * * * * * * * * * //

dimensions      [0 2 -1 0 0 0 0];

internalField   nonuniform List<scalar> 
90398
(
0.0144199
0.0141783
0.0139485
0.0137278
0.0135171
0.0133144
0.0131148
0.0129408
0.0127642
0.0126007
0.0124467
0.0122984
0.0121637
0.0120424
0.0119258
0.0118187
0.0109715
0.00896544
0.00737581
0.00615613
0.00543694
0.00835094
0.0271861
0.0536027
0.0870332
0.116484
0.138913
0.155398
0.167472
0.177342
0.0144199
0.0141783
0.0139485
0.0137278
0.0135171
0.0133148
0.0131167
0.0129424
0.0127665
0.0126043
0.0124491
0.0123012
0.0121672
0.0120459
0.0119291
0.0118216
0.011029
0.00899225
0.00738556
0.00618411
0.00634672
0.0174041
0.0403551
0.0680349
0.0974085
0.122458
0.141989
0.156784
0.167947
0.177243
0.01442
0.0141784
0.0139487
0.0137281
0.013518
0.0133166
0.0131214
0.0129441
0.0127684
0.0126073
0.0124538
0.0123069
0.0121739
0.0120533
0.011936
0.0118279
0.0110787
0.00899356
0.00736512
0.00628029
0.00890082
0.0274921
0.0528633
0.0811376
0.106417
0.127592
0.144363
0.157461
0.167645
0.176334
0.01442
0.0141785
0.0139486
0.0137288
0.0135195
0.0133191
0.0131234
0.0129422
0.0127718
0.0126127
0.012461
0.0123174
0.0121862
0.0120653
0.0119471
0.011838
0.0111587
0.00900808
0.0073588
0.00662239
0.0137926
0.0363093
0.0636767
0.0895973
0.111907
0.130375
0.145207
0.15706
0.166493
0.174665
0.01442
0.0141786
0.0139484
0.0137296
0.0135214
0.0133233
0.0131276
0.0129448
0.0127771
0.0126199
0.0124684
0.0123528
0.0122261
0.0120827
0.0119641
0.0118572
0.01126
0.00906812
0.00745325
0.00739565
0.0201426
0.0429559
0.0694658
0.0935031
0.113974
0.130876
0.144577
0.155676
0.164634
0.172407
0.0144202
0.0141786
0.0139486
0.0137296
0.0135214
0.013328
0.0131454
0.012952
0.0127837
0.0126451
0.0124911
0.0123555
0.0122481
0.0121333
0.0120345
0.0119991
0.0120204
0.00979375
0.00833567
0.00899207
0.0233111
0.0459825
0.070758
0.0935298
0.113142
0.129452
0.142747
0.153557
0.162305
0.169785
0.0144205
0.0141791
0.0139492
0.0137307
0.0135218
0.0133292
0.01315
0.0129597
0.0127896
0.0126232
0.0109629
0.0105888
0.0123507
0.0125701
0.0129043
0.0137034
0.0144364
0.0127466
0.011836
0.0122085
0.0229958
0.0429266
0.0665585
0.0896958
0.109966
0.126769
0.140325
0.151201
0.159901
0.167107
0.0144205
0.01418
0.0139529
0.0137389
0.0135276
0.0133272
0.01315
0.0129694
0.0127895
0.0062177
0.00430492
0.00435652
0.00589034
0.00730573
0.00970415
0.0117785
0.0138403
0.0155352
0.0171223
0.0190067
0.0247265
0.0406034
0.0621802
0.0861369
0.107537
0.12501
0.13879
0.149589
0.15808
0.164836
0.0144206
0.01418
0.0139543
0.0137443
0.0135371
0.0133309
0.0131449
0.0129625
0.00638241
0.00379075
0.00326559
0.00843223
0.00879767
0.00894401
0.0290512
0.0293675
0.0304581
0.0306368
0.0309768
0.0331753
0.0362797
0.045261
0.0646492
0.0878969
0.109013
0.12609
0.139335
0.149523
0.15741
0.163426
0.0144206
0.0141797
0.0139515
0.0137392
0.0135363
0.0133314
0.0131394
0.0129586
0.0063885
0.00143466
0.00140048
0.00516683
0.00579352
0.00495086
0.0237595
0.0228292
0.0221052
0.0211524
0.020802
0.0231402
0.0362166
0.0508124
0.0727255
0.0956011
0.115252
0.130746
0.142569
0.15151
0.158304
0.163228
0.0144206
0.0141796
0.0139514
0.0137389
0.0135359
0.0133308
0.0131384
0.0129574
0.00638836
0.00105523
0.00591468
0.00636589
0.00465944
0.0147324
0.0161941
0.0176681
0.0184439
0.0195427
0.0262743
0.0413343
0.0631946
0.0872897
0.108563
0.125518
0.138423
0.148062
0.155198
0.160479
0.164064
0.0144205
0.0141798
0.0139539
0.0137436
0.0135359
0.0133291
0.0131421
0.0129587
0.00638213
0.00257658
0.0019199
0.00697277
0.00525562
0.00320785
0.00748262
0.00989439
0.011303
0.0114081
0.0142064
0.0292613
0.0533192
0.0798237
0.102984
0.121383
0.135379
0.145769
0.153369
0.158832
0.162703
0.16512
0.0144205
0.0141797
0.0139522
0.0137377
0.0135257
0.0133244
0.0131455
0.0129636
0.0127802
0.00538384
0.00368084
0.00398311
0.00395658
0.00351886
0.00971488
0.0112521
0.0102555
0.00981033
0.0174925
0.038752
0.0666939
0.0924613
0.113516
0.129789
0.141967
0.150856
0.157197
0.161544
0.164396
0.165893
0.0144204
0.0141788
0.0139484
0.0137292
0.0135194
0.0133255
0.0131443
0.0129508
0.012777
0.0126063
0.0124681
0.0123269
0.0116998
0.0115396
0.0120588
0.0119907
0.0119329
0.0113306
0.0165647
0.0395015
0.0703006
0.0970031
0.118091
0.134031
0.145722
0.154053
0.159781
0.163457
0.1656
0.166374
0.0144201
0.0141782
0.0139477
0.013728
0.0135188
0.0133239
0.013139
0.0129421
0.0127692
0.012625
0.0124597
0.0122994
0.0121749
0.0120695
0.0119774
0.0118965
0.0118241
0.0118508
0.0155253
0.0371074
0.0704195
0.0983782
0.120065
0.136244
0.14795
0.156125
0.161548
0.164789
0.166409
0.166605
0.0144199
0.0141782
0.0139475
0.013728
0.0135187
0.013319
0.0131209
0.0129344
0.0127613
0.0125971
0.0124378
0.0123082
0.0121768
0.0120402
0.0119358
0.0118432
0.0117598
0.0117419
0.0144412
0.0340077
0.0688335
0.0978995
0.120373
0.137072
0.149071
0.157331
0.162666
0.165644
0.16688
0.166621
0.0144199
0.0141781
0.0139478
0.0137273
0.013517
0.013315
0.0131169
0.0129319
0.0127559
0.0125889
0.0124266
0.0122717
0.0121347
0.0120157
0.0119043
0.0118044
0.0117138
0.011667
0.0134832
0.0304909
0.0655522
0.0957118
0.119183
0.136667
0.149211
0.157767
0.163186
0.166056
0.167029
0.166444
0.0144199
0.0141781
0.0139481
0.0137269
0.0135159
0.0133129
0.0131152
0.012934
0.0127528
0.0125839
0.0124201
0.0122621
0.012121
0.0119965
0.0118787
0.0117735
0.0116776
0.0116126
0.0126934
0.0267049
0.0608347
0.091955
0.116574
0.135074
0.148397
0.157455
0.16312
0.166027
0.166879
0.166104
0.0144199
0.0141782
0.0139481
0.013727
0.0135154
0.0133116
0.0131109
0.0129327
0.0127512
0.0125814
0.0124162
0.0122579
0.0121139
0.0119848
0.0118622
0.0117525
0.0116527
0.0115756
0.0121353
0.0230631
0.0556119
0.0872556
0.112938
0.132524
0.146754
0.156453
0.162501
0.165574
0.166516
0.165658
0.01442
0.0141783
0.0139484
0.0137273
0.0135158
0.0133116
0.0131093
0.0129312
0.012749
0.012578
0.0124147
0.0122561
0.0121104
0.0119785
0.011852
0.0117383
0.0116345
0.01155
0.0118052
0.0200619
0.0508631
0.082823
0.109211
0.129696
0.144728
0.155036
0.161501
0.164811
0.165982
0.165167
0.123152
0.114136
0.106939
0.101008
0.0960033
0.0917102
0.087873
0.0845135
0.0814984
0.078822
0.0764544
0.0744307
0.0727141
0.0712886
0.0700283
0.0689014
0.0679067
0.0670433
0.0582149
0.0529783
0.0815808
0.295559
0.702687
1.15748
1.61865
1.75012
1.76184
1.74644
1.72833
1.71258
0.123151
0.114136
0.106936
0.101002
0.0960021
0.0916902
0.087809
0.0844137
0.0813508
0.0786302
0.0762035
0.0741329
0.0723957
0.0709731
0.0697197
0.0686005
0.0676115
0.0667619
0.0576821
0.0579498
0.154916
0.5419
1.08925
1.4011
1.64172
1.72177
1.73192
1.72278
1.71068
1.69918
0.123151
0.11413
0.106927
0.100986
0.095988
0.0916394
0.0876824
0.0842091
0.0810472
0.0782048
0.0756295
0.0734449
0.0716709
0.0702651
0.0690341
0.0679381
0.0669565
0.0661542
0.0575345
0.0747713
0.274604
0.783623
1.27434
1.53224
1.6494
1.68739
1.69455
1.69108
1.68517
1.67843
0.123149
0.114123
0.106914
0.10096
0.0959505
0.0915612
0.0875028
0.0839021
0.0805805
0.077454
0.0746032
0.0722636
0.0703961
0.0690066
0.067828
0.0667718
0.0658024
0.0649433
0.0582048
0.108919
0.418271
1.01939
1.41799
1.56937
1.62855
1.65099
1.65805
1.65894
1.65772
1.65466
0.123148
0.114116
0.106896
0.100926
0.0959124
0.0915123
0.0873103
0.0835062
0.0798734
0.0732472
0.0620351
0.0705342
0.0685937
0.0671736
0.0659917
0.0648493
0.0636724
0.0627088
0.0610024
0.156941
0.563097
1.16764
1.45284
1.55184
1.59387
1.61355
1.62297
1.62763
1.62986
1.62926
0.123145
0.114108
0.106879
0.100889
0.0958414
0.0915788
0.0872392
0.0830128
0.0761944
0.0512829
0.0434554
0.0510891
0.0645674
0.0630011
0.0614727
0.0594719
0.056936
0.0544208
0.0618918
0.198227
0.654069
1.15053
1.38529
1.49001
1.54245
1.57066
1.58644
1.59574
1.60108
1.60215
0.123152
0.11411
0.106909
0.100914
0.0957387
0.091466
0.0872643
0.0824202
0.0531354
0.0326785
0.0274684
0.028724
0.0457182
0.0520355
0.0484256
0.0435643
0.0389682
0.0353578
0.0385597
0.117622
0.448097
0.887129
1.18599
1.36024
1.45823
1.51266
1.54294
1.56017
1.56967
1.5724
0.123163
0.114148
0.107062
0.101176
0.0956551
0.0910769
0.0869321
0.0711709
0.0338457
0.0223476
0.0174568
0.0137599
0.0173904
0.0249913
0.0224375
0.021667
0.021235
0.0211858
0.0229966
0.0485806
0.185922
0.487754
0.850861
1.1439
1.3297
1.43394
1.48976
1.51951
1.53486
1.53967
0.123165
0.114159
0.107075
0.101269
0.0957577
0.0906977
0.0862033
0.0561619
0.0280196
0.011533
0.0124584
0.0103272
0.0167956
0.0173701
0.0173947
0.0180581
0.01864
0.0193774
0.0212627
0.0327918
0.0937926
0.285145
0.619746
0.970543
1.22233
1.3676
1.44379
1.48255
1.50132
1.50668
0.123165
0.114132
0.106998
0.101218
0.0959702
0.0906899
0.0858895
0.0466975
0.0193061
0.00567873
0.0042151
0.00517398
0.00928488
0.0143978
0.0163267
0.0170161
0.0176527
0.0183817
0.0208668
0.0404897
0.136557
0.378454
0.724517
1.04218
1.25495
1.3738
1.43459
1.46417
1.47692
1.47773
0.123165
0.114133
0.107
0.101219
0.095972
0.0906941
0.0858912
0.0472544
0.0169257
0.00352398
0.00594928
0.0175377
0.0179272
0.0183531
0.0192564
0.0267776
0.0834939
0.285854
0.641001
0.993044
1.22951
1.35816
1.42102
1.44919
1.45974
1.46067
1.45243
0.123165
0.114162
0.107077
0.101271
0.0957714
0.0907262
0.0862314
0.0580708
0.0229583
0.00657311
0.00468563
0.00280977
0.00484938
0.00806704
0.0131041
0.0139689
0.0148998
0.018762
0.0614661
0.303206
0.744606
1.10937
1.31076
1.40839
1.45082
1.46526
1.46572
1.45916
1.44852
1.42839
0.123164
0.114153
0.107066
0.101195
0.0956926
0.0911353
0.0869996
0.0759938
0.034379
0.0146839
0.0113798
0.00959588
0.0166327
0.0161667
0.0280321
0.0434035
0.0456218
0.0757417
0.336272
0.90121
1.24837
1.4089
1.47673
1.50154
1.50347
1.4931
1.47725
1.45869
1.43871
1.40716
0.123153
0.114117
0.106927
0.100948
0.0957935
0.091549
0.0873784
0.0825861
0.0570781
0.0333174
0.0266302
0.0260518
0.0292961
0.0322949
0.0441574
0.0568127
0.0545202
0.0822708
0.33234
0.966488
1.41469
1.51745
1.54783
1.54859
1.53397
1.51161
1.48574
1.45811
1.43057
1.38846
0.123147
0.114118
0.106902
0.10093
0.0959098
0.0916851
0.0873943
0.0832281
0.0792066
0.0578626
0.046051
0.0447269
0.0442325
0.0478658
0.0588609
0.0667867
0.0612393
0.0819467
0.298364
0.867649
1.47461
1.56516
1.58422
1.57609
1.55396
1.52477
1.49206
1.45745
1.42331
1.37164
0.123151
0.114127
0.106922
0.100974
0.0959917
0.0916352
0.0874932
0.0837752
0.0803002
0.0770458
0.0744687
0.0676692
0.0618397
0.0610585
0.0654564
0.0681102
0.0601708
0.0710581
0.248266
0.759469
1.49189
1.5868
1.60516
1.5944
1.56903
1.53501
1.49679
1.45662
1.41692
1.35653
0.123152
0.114136
0.106944
0.101014
0.0960387
0.0916979
0.0877088
0.0842083
0.0810453
0.0782248
0.0759602
0.0744276
0.0730913
0.0720765
0.0713084
0.070482
0.0598655
0.0629253
0.202003
0.65668
1.46533
1.58818
1.61517
1.60629
1.58004
1.54331
1.50081
1.45571
1.41126
1.34304
0.123153
0.114144
0.106959
0.101044
0.0960823
0.091786
0.0879032
0.0845392
0.0815415
0.0789632
0.0768529
0.0751711
0.0737538
0.0725981
0.0716951
0.0711192
0.0589791
0.0560708
0.156979
0.551542
1.41155
1.57494
1.61539
1.61278
1.58771
1.54956
1.50409
1.45507
1.40581
1.33104
0.123154
0.11415
0.106969
0.101062
0.0961008
0.0918434
0.0880401
0.084759
0.0818648
0.079402
0.0773442
0.0755798
0.0740725
0.0728505
0.0718808
0.0712558
0.0585142
0.0516465
0.118828
0.449691
1.28334
1.55078
1.6083
1.61397
1.59235
1.55385
1.50642
1.45468
1.40064
1.32077
0.123155
0.114152
0.106975
0.101072
0.0961074
0.0918713
0.0881151
0.0848742
0.0820316
0.0796128
0.0775376
0.0757398
0.0742063
0.0729648
0.0719709
0.071338
0.05768
0.0489689
0.0893061
0.352208
1.13421
1.52661
1.59691
1.61132
1.59388
1.55593
1.50777
1.4547
1.39717
1.31324
0.13447
0.133883
0.13312
0.132212
0.131184
0.130064
0.128866
0.127614
0.126337
0.125074
0.12384
0.122675
0.121536
0.120506
0.11956
0.112161
0.0874492
0.0720575
0.0620018
0.0708049
0.23942
0.654292
1.14865
1.95318
3.39433
4.74417
4.57099
4.41243
4.28062
4.17651
0.13447
0.133883
0.133119
0.132212
0.13118
0.130056
0.12885
0.127585
0.126291
0.125007
0.123749
0.122575
0.121378
0.120323
0.11936
0.113088
0.0872582
0.0714599
0.0633731
0.114573
0.443644
1.01831
1.76177
2.80245
4.18311
4.6092
4.47375
4.34181
4.22826
4.13584
0.13447
0.133883
0.133118
0.132211
0.131171
0.130039
0.128816
0.127526
0.126196
0.124872
0.11949
0.122346
0.121068
0.119962
0.118961
0.113783
0.0867324
0.0709245
0.0709114
0.20299
0.655872
1.37333
2.54679
4.10935
4.52715
4.45604
4.34959
4.24503
4.15241
4.07399
0.13447
0.133882
0.133117
0.132208
0.13116
0.130014
0.128767
0.127438
0.126052
0.112402
0.0960931
0.106165
0.120472
0.119256
0.118197
0.11165
0.0844486
0.0703355
0.0897015
0.324067
0.869099
1.81075
3.5257
4.37309
4.37217
4.30611
4.22278
4.14124
4.06704
4.00131
0.13447
0.133882
0.133115
0.132204
0.131184
0.129977
0.1287
0.127319
0.120072
0.0848692
0.0713256
0.0811626
0.11913
0.117756
0.116587
0.106191
0.0822566
0.0718566
0.123065
0.455456
1.10325
2.33861
4.07513
4.1948
4.19634
4.15295
4.0943
4.03403
3.9761
3.92128
0.134469
0.133882
0.133115
0.132199
0.131197
0.129942
0.128634
0.127188
0.0900588
0.0588688
0.0486634
0.0590127
0.089053
0.113698
0.112175
0.0953027
0.0803969
0.0773146
0.167845
0.576173
1.34261
2.86772
3.74166
3.91722
3.97792
3.98088
3.95612
3.91988
3.87834
3.83371
0.13447
0.133881
0.133123
0.132209
0.131168
0.129946
0.128561
0.1132
0.0621255
0.0408362
0.0312367
0.0326078
0.0480956
0.071152
0.0884015
0.085006
0.0781612
0.075694
0.185959
0.613474
1.45444
2.61343
3.17271
3.50914
3.69188
3.77526
3.80067
3.79512
3.77213
3.73797
0.13447
0.133885
0.133123
0.13221
0.131188
0.129939
0.128475
0.0854121
0.0434669
0.0243388
0.0230381
0.0161394
0.0249216
0.0295189
0.0324544
0.0374268
0.032179
0.0324666
0.0794859
0.357906
0.997743
1.76143
2.46964
3.0139
3.36202
3.55106
3.63753
3.66583
3.6613
3.63665
0.13447
0.133887
0.133131
0.132189
0.131164
0.129908
0.128449
0.0704972
0.0378989
0.016658
0.0135227
0.00661544
0.00982688
0.0129705
0.0161025
0.0171646
0.0183394
0.0205977
0.0394418
0.167867
0.555655
1.2113
1.98412
2.66311
3.12631
3.38583
3.50905
3.555
3.55844
3.53701
0.134471
0.133884
0.133137
0.132225
0.131173
0.129904
0.128492
0.0598052
0.0275364
0.00918842
0.00761027
0.00221651
0.025802
0.0193019
0.0199587
0.0206519
0.0213337
0.0231671
0.0427778
0.173446
0.566729
1.25526
2.05954
2.72495
3.14576
3.36427
3.45802
3.48459
3.47541
3.44579
0.134471
0.133884
0.133137
0.132225
0.131174
0.129904
0.128486
0.0604455
0.0254819
0.00611858
0.00426851
0.017365
0.0200985
0.0206267
0.0211942
0.0249676
0.0724673
0.339594
0.990368
1.85803
2.61194
3.09376
3.34039
3.44026
3.46196
3.44542
3.4099
3.36225
0.13447
0.133887
0.133131
0.13219
0.131166
0.129907
0.128431
0.0735458
0.0318028
0.0115925
0.00957428
0.00245803
0.0218851
0.0160824
0.0144306
0.0155195
0.0178303
0.0452075
0.294566
1.10569
2.12527
2.88078
3.30418
3.49228
3.54341
3.52603
3.47789
3.41797
3.35474
3.28482
0.13447
0.133885
0.133124
0.132213
0.131193
0.129943
0.12846
0.0939225
0.0448274
0.0237933
0.0156761
0.00909055
0.0188529
0.0194667
0.03539
0.0668675
0.0838615
0.277467
0.953279
2.18539
3.29071
3.64033
3.75121
3.74158
3.6728
3.58226
3.48543
3.3918
3.30424
3.21331
0.13447
0.133882
0.133125
0.132214
0.131175
0.129955
0.128557
0.126992
0.0694132
0.0419999
0.0306336
0.0291154
0.0336888
0.0388702
0.0565248
0.0844065
0.0925986
0.251552
0.788123
1.94374
3.84708
3.99739
3.97155
3.87237
3.74534
3.61288
3.4839
3.36554
3.2569
3.14743
0.134469
0.133883
0.133118
0.132205
0.131206
0.129956
0.128643
0.12717
0.112722
0.0679507
0.0520911
0.0506275
0.0491561
0.0533275
0.0670267
0.0788441
0.0791707
0.203795
0.675838
1.71845
4.00432
4.146
4.07714
3.94182
3.78632
3.62862
3.47795
3.33969
3.21337
3.0874
0.13447
0.133883
0.133118
0.132211
0.131196
0.129996
0.128722
0.12733
0.125846
0.113576
0.0868604
0.0756364
0.068056
0.0675527
0.0734097
0.0762838
0.0720474
0.165892
0.581008
1.52256
3.67381
4.20383
4.12833
3.98289
3.81143
3.63719
3.47061
3.31596
3.17429
3.03356
0.13447
0.133883
0.13312
0.132216
0.131174
0.130036
0.128797
0.127471
0.126086
0.124732
0.123537
0.114825
0.0935322
0.0834676
0.0807407
0.0753224
0.0666676
0.131302
0.488877
1.33105
3.2807
4.21026
4.14965
4.00726
3.82951
3.64299
3.46318
3.29576
3.14045
2.98673
0.13447
0.133884
0.133122
0.13222
0.131187
0.130064
0.128853
0.127575
0.126259
0.124973
0.123806
0.122805
0.121921
0.0992292
0.0860928
0.0744665
0.0628935
0.101402
0.395734
1.13807
2.86483
4.17718
4.14967
4.01774
3.84188
3.6479
3.45765
3.28008
3.11269
2.94806
0.13447
0.133885
0.133123
0.132221
0.131196
0.130083
0.12889
0.127643
0.126372
0.125134
0.123972
0.122892
0.121942
0.1118
0.0895753
0.0740538
0.0606508
0.0792218
0.306554
0.952071
2.49818
4.10514
4.13058
4.01791
3.84818
3.65253
3.45513
3.27043
3.09252
2.91927
0.13447
0.133885
0.133124
0.132222
0.131202
0.130094
0.128911
0.127679
0.126431
0.125218
0.124045
0.12293
0.121959
0.118158
0.0906796
0.0732302
0.059112
0.0646131
0.22482
0.784399
2.2567
4.02762
4.09074
4.01287
3.85195
3.65789
3.45682
3.268
3.08303
2.90382
0.134738
0.134631
0.13451
0.134371
0.134215
0.13404
0.133854
0.133663
0.133483
0.133327
0.133192
0.133054
0.132894
0.132735
0.132622
0.111812
0.0877845
0.0722518
0.0654151
0.142224
0.518152
0.996831
1.68146
3.08097
5.69471
7.47881
7.25428
7.0323
6.83287
6.66793
0.134738
0.134631
0.13451
0.134371
0.134215
0.13404
0.133853
0.133664
0.133488
0.13334
0.133215
0.133089
0.1329
0.132718
0.132587
0.113046
0.0877597
0.0718699
0.0806263
0.281239
0.82122
1.50657
2.54646
4.12945
6.30139
7.31148
7.12654
6.93268
6.75461
6.60387
0.134738
0.134631
0.13451
0.134371
0.134214
0.134039
0.133854
0.133668
0.133504
0.133378
0.132257
0.13316
0.132919
0.132691
0.132523
0.114444
0.0872465
0.0732807
0.122722
0.464476
1.08499
2.09266
3.86811
5.98946
7.15981
7.08916
6.94332
6.78461
6.63362
6.50141
0.134738
0.134631
0.13451
0.134371
0.134213
0.134039
0.133855
0.133678
0.133538
0.127408
0.109611
0.119559
0.132867
0.132572
0.13235
0.113988
0.0858437
0.0794547
0.199086
0.652207
1.39152
2.8798
5.51527
6.81691
6.90394
6.84875
6.73672
6.61184
6.4879
6.37466
0.134738
0.134631
0.13451
0.134371
0.134214
0.13404
0.13386
0.133701
0.133608
0.0999235
0.0841386
0.0945107
0.13247
0.132089
0.131792
0.110482
0.0855863
0.0943201
0.300096
0.839066
1.78709
3.84909
6.23516
6.53111
6.61377
6.58831
6.51442
6.42313
6.32556
6.23062
0.134738
0.134632
0.13451
0.134371
0.134216
0.134041
0.133871
0.133745
0.107114
0.072426
0.0602186
0.0702589
0.106022
0.130373
0.129904
0.103247
0.0863665
0.116779
0.401551
1.01982
2.2312
4.78344
5.82012
6.13534
6.27061
6.30034
6.27472
6.22031
6.14958
6.07246
0.134739
0.134632
0.134511
0.134372
0.134218
0.134045
0.13389
0.133274
0.0783881
0.0502046
0.0381255
0.0419448
0.0581631
0.0912825
0.103599
0.0945356
0.0855318
0.132998
0.466448
1.16011
2.59305
4.57122
5.22138
5.63773
5.87604
5.98855
6.02192
6.00773
5.96383
5.90353
0.134739
0.134632
0.134512
0.134371
0.13422
0.13405
0.133916
0.10575
0.0560243
0.0336652
0.0271043
0.0197873
0.0314022
0.03844
0.050476
0.0750665
0.069114
0.132345
0.484762
1.22535
2.72739
3.78183
4.55664
5.12248
5.48612
5.6884
5.77914
5.80028
5.77789
5.7304
0.134739
0.134632
0.134512
0.134374
0.134218
0.134055
0.133943
0.0862789
0.0418267
0.0212033
0.014572
0.00702294
0.014396
0.0204465
0.0255845
0.0238218
0.0239381
0.0530406
0.296706
1.05772
2.13831
3.19709
4.10195
4.78198
5.22597
5.47502
5.5902
5.62332
5.60671
5.56248
0.134739
0.134632
0.134512
0.134377
0.134222
0.13407
0.133956
0.0753862
0.0343259
0.0170296
0.00764184
0.0019703
0.00458821
0.0056585
0.0174241
0.0171901
0.0177507
0.0352938
0.211753
0.899231
2.02658
3.19272
4.14363
4.80638
5.20461
5.40768
5.48695
5.49461
5.46096
5.40668
0.134739
0.134632
0.134512
0.134377
0.134221
0.134066
0.133944
0.0761686
0.0345415
0.015442
0.00720416
0.00163974
0.0211621
0.0183466
0.0143957
0.0151979
0.0186296
0.0736369
0.463806
1.5225
2.80123
3.89726
4.67017
5.13517
5.36606
5.44977
5.44952
5.40531
5.33831
5.26223
0.134739
0.134632
0.134512
0.134373
0.134215
0.134045
0.13391
0.0911027
0.0427653
0.0209819
0.0100447
0.00168708
0.00460815
0.00787261
0.03554
0.0443165
0.0764065
0.389753
1.38801
2.88057
4.08614
4.88214
5.32646
5.52277
5.56408
5.52053
5.43537
5.33468
5.22933
5.12743
0.134738
0.134632
0.134511
0.13437
0.134216
0.134037
0.133874
0.119103
0.0597853
0.0336588
0.0192957
0.0126033
0.0244737
0.0272671
0.057819
0.111132
0.20009
0.625957
1.49088
3.38027
5.14438
5.63044
5.80849
5.80493
5.709
5.5696
5.41789
5.26913
5.12778
5.0009
0.134738
0.134631
0.13451
0.13437
0.134214
0.134029
0.133843
0.133697
0.0899927
0.0532796
0.0381535
0.0364026
0.0397283
0.0489887
0.0727092
0.108679
0.154456
0.525868
1.33365
3.11048
5.68208
6.03176
6.07755
5.96984
5.79299
5.59079
5.39117
5.20414
5.03204
4.8826
0.134738
0.134631
0.134509
0.13437
0.134211
0.134025
0.133825
0.13363
0.133501
0.0853115
0.0643614
0.0585187
0.0563045
0.0617633
0.078332
0.0906393
0.120517
0.434136
1.19281
2.84316
5.8723
6.20635
6.20692
6.05434
5.83405
5.59293
5.3582
5.14123
4.94285
4.77346
0.134738
0.134631
0.134509
0.13437
0.134208
0.134024
0.133818
0.133599
0.133394
0.133261
0.101109
0.0848168
0.0754927
0.0753604
0.0819948
0.0823886
0.0993293
0.35783
1.05221
2.57346
5.50913
6.25352
6.25986
6.09283
5.85049
5.58416
5.32372
5.08324
4.86207
4.67529
0.134738
0.134631
0.134509
0.13437
0.134208
0.134024
0.133817
0.133589
0.133354
0.133141
0.132996
0.123448
0.0994897
0.0885204
0.0843483
0.0766279
0.081693
0.281786
0.901468
2.27007
4.89754
6.22229
6.26273
6.10442
5.85421
5.57226
5.29166
5.03207
4.79209
4.59059
0.134738
0.134631
0.134509
0.13437
0.134208
0.134025
0.133818
0.133589
0.133345
0.133101
0.132891
0.132745
0.126637
0.100993
0.0866224
0.0737083
0.0698108
0.211871
0.747505
1.95099
4.24297
6.12822
6.22433
6.0952
5.85054
5.56071
5.26628
4.99072
4.73558
4.52214
0.134738
0.134631
0.13451
0.13437
0.134209
0.134026
0.133819
0.133591
0.133346
0.133093
0.132851
0.132646
0.132549
0.11057
0.0882131
0.0721943
0.0626591
0.153552
0.595782
1.64866
3.64047
5.38763
6.08302
6.0651
5.84322
5.55273
5.2506
4.96321
4.69635
4.47384
0.134739
0.134632
0.13451
0.13437
0.134211
0.134027
0.133822
0.133594
0.13335
0.133096
0.132839
0.132609
0.132481
0.115217
0.0885774
0.0709922
0.0588634
0.109686
0.451349
1.40963
3.20894
4.66607
5.40777
5.90017
5.83796
5.55376
5.24811
4.95413
4.67981
4.45142
0.134745
0.134655
0.134565
0.134476
0.134388
0.134305
0.134232
0.134178
0.134154
0.134173
0.134229
0.134301
0.134367
0.134442
0.134569
0.109653
0.0867249
0.0713405
0.0826033
0.30123
0.796913
1.34746
2.37575
4.59685
8.42501
9.56769
9.41218
9.21415
9.01139
8.83002
0.134745
0.134655
0.134565
0.134476
0.134388
0.134306
0.134233
0.134181
0.134164
0.134193
0.134263
0.134341
0.134399
0.134458
0.134577
0.110835
0.0863498
0.0735211
0.139291
0.543339
1.19366
2.05397
3.47077
5.63724
8.5467
9.41594
9.2808
9.10429
8.91874
8.75067
0.134745
0.134655
0.134565
0.134476
0.134389
0.134307
0.134236
0.134191
0.134188
0.134244
0.134345
0.134439
0.134483
0.134509
0.134605
0.111987
0.0854776
0.0839398
0.250646
0.777851
1.55973
2.99798
5.36934
7.79597
9.16899
9.1798
9.07511
8.92797
8.76741
8.61805
0.134745
0.134655
0.134565
0.134476
0.134389
0.134308
0.134242
0.134209
0.134235
0.134338
0.126853
0.13456
0.134578
0.134557
0.134619
0.111407
0.0853625
0.110915
0.399746
1.01138
2.04555
4.2892
7.65158
8.6581
8.88067
8.89947
8.82514
8.70914
8.57663
8.44783
0.134745
0.134655
0.134565
0.134476
0.13439
0.134311
0.134252
0.13424
0.134313
0.119589
0.10138
0.112377
0.134535
0.134475
0.134512
0.10797
0.0877234
0.158037
0.557045
1.27726
2.70552
5.77969
7.89473
8.35392
8.54631
8.5859
8.54493
8.46207
8.35842
8.25052
0.134745
0.134655
0.134566
0.134477
0.134391
0.134315
0.134268
0.134289
0.129709
0.092056
0.0756091
0.0854965
0.127028
0.133961
0.133951
0.100673
0.0920351
0.216301
0.702997
1.57354
3.47076
6.79967
7.54189
7.95798
8.16568
8.24449
8.24338
8.19656
8.12141
8.03374
0.134745
0.134655
0.134566
0.134477
0.134393
0.134321
0.134289
0.134363
0.101465
0.0657384
0.0529231
0.0637147
0.0786693
0.102506
0.104994
0.0880809
0.0922747
0.266375
0.822463
1.8739
4.23625
6.39682
7.06978
7.50439
7.76261
7.89337
7.93603
7.92431
7.87496
7.80511
0.134745
0.134655
0.134566
0.134477
0.134394
0.134327
0.134316
0.133525
0.0758294
0.0471802
0.0321729
0.0327053
0.0427628
0.0549711
0.0727386
0.0764823
0.0908528
0.308158
0.93312
2.17469
4.85511
5.89035
6.58489
7.07741
7.39461
7.57223
7.65067
7.66384
7.63173
7.57385
0.134745
0.134655
0.134566
0.134478
0.134395
0.134332
0.134339
0.112921
0.0596642
0.0340489
0.0236613
0.0167879
0.0253037
0.0275014
0.0473892
0.0675027
0.10293
0.397805
1.12678
2.57201
4.5368
5.51763
6.27044
6.80544
7.14668
7.33658
7.42123
7.43655
7.4055
7.34951
0.134745
0.134655
0.134566
0.134479
0.134396
0.134335
0.13435
0.101831
0.0519131
0.0269922
0.0153285
0.00921933
0.0169777
0.0212088
0.0319773
0.0385933
0.0738441
0.432125
1.38633
3.13368
4.50517
5.54353
6.29581
6.78888
7.07722
7.21994
7.26683
7.25434
7.20439
7.13812
0.134745
0.134655
0.134566
0.134478
0.134395
0.134331
0.134341
0.104167
0.0522307
0.0270733
0.0138291
0.00839304
0.0160615
0.0198433
0.0390404
0.0597225
0.145505
0.717727
1.72541
3.83092
5.12352
6.04095
6.64099
6.98601
7.15088
7.19638
7.17255
7.11028
7.02645
6.93936
0.134745
0.134655
0.134566
0.134477
0.134392
0.134323
0.134312
0.121435
0.0621935
0.0340782
0.0177078
0.0116355
0.0239174
0.0282561
0.0629019
0.115885
0.306616
0.877193
1.98395
4.52901
5.97821
6.6954
7.0854
7.24865
7.27011
7.20808
7.10678
6.98798
6.86389
6.75197
0.134745
0.134655
0.134565
0.134476
0.13439
0.134314
0.134276
0.134357
0.0828563
0.0483738
0.0314396
0.0295666
0.0353613
0.0466911
0.0849678
0.141694
0.317958
0.91573
2.02768
4.5762
6.63432
7.20902
7.43848
7.45985
7.36543
7.21479
7.04526
6.87463
6.71155
6.57465
0.134745
0.134655
0.134565
0.134475
0.134387
0.134305
0.134244
0.134252
0.119777
0.0711328
0.0522767
0.0505829
0.0496307
0.0586832
0.0866361
0.119279
0.254096
0.822568
1.93519
4.35338
6.97474
7.50216
7.65028
7.58749
7.41732
7.20262
6.97917
6.76552
6.56753
6.40767
0.134745
0.134655
0.134565
0.134475
0.134385
0.134298
0.134221
0.134178
0.134218
0.111005
0.0802868
0.0691731
0.0648529
0.0694694
0.0845042
0.0953302
0.198152
0.712532
1.79164
4.0766
7.0748
7.62257
7.74986
7.64811
7.43252
7.17431
6.90998
6.6609
6.43295
6.25307
0.134745
0.134655
0.134565
0.134474
0.134383
0.134293
0.134207
0.134135
0.134101
0.134146
0.120002
0.0967969
0.0833061
0.0808859
0.0846692
0.0833624
0.154626
0.602597
1.60837
3.74076
6.82436
7.62563
7.77288
7.66378
7.4254
7.1367
6.84247
6.5642
6.31113
6.11398
0.134745
0.134655
0.134564
0.134474
0.134382
0.134289
0.134198
0.134112
0.13404
0.134005
0.134038
0.132387
0.104302
0.0910371
0.0840613
0.0752391
0.11712
0.487613
1.39512
3.31945
6.08738
7.54359
7.73912
7.64874
7.40627
7.09788
6.78118
6.47972
6.2059
5.99435
0.134745
0.134655
0.134564
0.134473
0.134381
0.134288
0.134193
0.1341
0.134011
0.133938
0.133902
0.133943
0.126501
0.100092
0.0843609
0.0708839
0.0897029
0.377155
1.17273
2.84983
5.2614
6.74012
7.26108
7.58917
7.38021
7.0649
6.73143
6.41209
6.12179
5.89887
0.134745
0.134655
0.134564
0.134473
0.134381
0.134287
0.134191
0.134094
0.133999
0.13391
0.133842
0.133832
0.133941
0.107008
0.0848488
0.0685477
0.0717794
0.277402
0.951012
2.39797
4.45054
5.79177
6.42275
6.89394
7.35243
7.04224
6.69943
6.36689
6.0647
5.83323
0.134745
0.134655
0.134565
0.134474
0.134381
0.134287
0.134191
0.134093
0.133995
0.133901
0.13382
0.133788
0.133874
0.109921
0.0845898
0.0669877
0.0614506
0.192804
0.746026
2.06171
3.82351
5.03517
5.80504
6.4185
6.98812
7.03797
6.6916
6.35059
6.04141
5.80454
0.134745
0.134655
0.134567
0.13448
0.134397
0.134319
0.134253
0.134206
0.134188
0.13421
0.13427
0.134354
0.134448
0.134566
0.134726
0.107118
0.085017
0.072108
0.133087
0.516316
1.05771
1.75169
3.22237
6.34236
10.9706
11.1219
11.0714
10.9346
10.7622
10.5933
0.134745
0.134655
0.134567
0.13448
0.134397
0.134319
0.134254
0.134208
0.134195
0.134224
0.134293
0.134381
0.134469
0.134574
0.134739
0.107994
0.0843653
0.0834476
0.261949
0.836181
1.57346
2.66429
4.47693
7.20277
10.6281
10.9939
10.9473
10.8221
10.6633
10.5051
0.134745
0.134655
0.134567
0.13448
0.134397
0.13432
0.134256
0.134215
0.134212
0.134259
0.134351
0.134452
0.134531
0.134615
0.134774
0.108156
0.0843886
0.117929
0.447488
1.10739
2.11515
4.04757
6.85002
9.38713
10.6564
10.7716
10.738
10.633
10.495
10.3529
0.134745
0.134656
0.134567
0.13448
0.134397
0.134321
0.134261
0.134228
0.134245
0.134326
0.134458
0.134579
0.134646
0.1347
0.134846
0.106748
0.0882201
0.186524
0.648723
1.41047
2.8577
5.90769
9.31065
10.0434
10.3818
10.4877
10.4704
10.3904
10.2762
10.1529
0.134745
0.134656
0.134567
0.134481
0.134398
0.134324
0.134268
0.134249
0.134298
0.134434
0.124092
0.134195
0.134766
0.134792
0.134934
0.103602
0.098521
0.28358
0.851845
1.8001
3.84885
7.83755
9.19523
9.76951
10.0539
10.1603
10.1641
10.1113
10.0217
9.91832
0.134745
0.134656
0.134567
0.134481
0.134399
0.134326
0.134278
0.134281
0.134381
0.117064
0.0979475
0.108185
0.134729
0.134758
0.134897
0.0988271
0.115834
0.390513
1.0564
2.26156
4.99279
8.11755
8.93755
9.42336
9.68687
9.80604
9.83607
9.81012
9.74455
9.66017
0.134745
0.134656
0.134567
0.134481
0.1344
0.13433
0.134291
0.134327
0.129886
0.0906322
0.072795
0.0812518
0.104641
0.118325
0.106866
0.089603
0.135123
0.493025
1.26212
2.7686
6.13392
7.90021
8.60218
9.04681
9.31164
9.4505
9.50591
9.50288
9.45765
9.38901
0.134745
0.134656
0.134567
0.134481
0.134401
0.134334
0.134307
0.134384
0.105409
0.0668377
0.0518768
0.0615143
0.0689319
0.0814582
0.085499
0.0807745
0.157689
0.594491
1.48507
3.31375
6.68722
7.63599
8.27727
8.70626
8.97678
9.12976
9.199
9.20815
9.17427
9.11524