/*--------------------------------*- C++ -*----------------------------------*\
| =========                 |                                                 |
| \\      /  F ield         | OpenFOAM: The Open Source CFD Toolbox           |
|  \\    /   O peration     | Version:  2512                                  |
|   \\  /    A nd           | Website:  www.openfoam.com                      |
|    \\/     M anipulation  |                                                 |
\*---------------------------------------------------------------------------*/
FoamFile
{
    version     2.0;
    format      ascii;
    arch        "LSB;label=32;scalar=64";
    class       volScalarField;
    location    "200";
    object      omega;
}
// * * * * * * * * * * * * * * * * * * * * * * * * * * * * * * * * * * * * * //

dimensions      [0 0 -1 0 0 0 0];

internalField   nonuniform List<scalar> 
84826
(
16.0845
15.8153
15.5584
15.3126
15.0772
14.8512
14.634
14.4244
14.225
14.0364
13.8578
13.6945
13.5338
13.3748
13.2253
13.0792
12.9367
12.798
12.6623
12.5296
12.4002
12.274
12.1509
12.0308
11.9135
11.7991
11.6873
11.5779
11.471
11.3664
16.0846
15.8154
15.5586
15.313
15.078
14.8524
14.6355
14.4262
14.2275
14.0396
13.8618
13.6994
13.5396
13.3812
13.232
13.0859
12.9431
12.8045
12.6686
12.5358
12.4064
12.2801
12.1569
12.0367
11.9194
11.8049
11.693
11.5836
11.4767
11.3719
16.0846
15.8155
15.5588
15.3134
15.0786
14.8535
14.6377
14.429
14.2309
14.0445
13.8686
13.7086
13.551
13.3936
13.2453
13.0995
12.9571
12.8185
12.6822
12.5493
12.4199
12.2938
12.1709
12.0511
11.9342
11.8202
11.7088
11.5998
11.4932
11.3888
16.0846
15.8156
15.559
15.3137
15.0792
14.8545
14.6394
14.4315
14.2349
14.0507
13.8781
13.7211
13.567
13.4132
13.2665
13.1214
12.9792
12.8408
12.7045
12.5716
12.442
12.3156
12.1924
12.0721
11.9546
11.8397
11.7272
11.6169
11.5089
11.4032
16.0846
15.8157
15.5591
15.314
15.0797
14.8555
14.6412
14.4342
14.2394
14.0585
13.887
13.7048
13.5566
13.4342
13.2907
13.1471
13.0054
12.8679
12.7327
12.6017
12.4744
12.3508
12.2309
12.114
12.0002
11.8889
11.7798
11.6726
11.567
11.4624
16.0847
15.8157
15.5592
15.3142
15.08
14.8564
14.6427
14.4369
14.2447
14.0633
13.896
13.7448
13.6043
13.4624
13.3227
13.1801
13.0378
12.8988
12.7618
12.6286
12.4991
12.3731
12.2505
12.131
12.0143
11.9001
11.7883
11.6787
11.5711
11.466
16.0847
15.8157
15.5592
15.3143
15.0803
14.857
14.6439
14.4412
14.2486
14.069
13.9203
13.8193
13.7513
13.6376
13.491
13.3402
13.1878
13.04
12.8985
12.7647
12.6389
12.5197
12.4056
12.2956
12.1887
12.0844
11.9829
11.8843
11.7918
11.7056
16.0846
15.8157
15.5593
15.3143
15.0805
14.8575
14.6452
14.4457
14.2516
14.0771
27.8287
27.3128
27.1366
28.4434
18.1583
17.4408
17.1511
17.1421
17.1702
17.1701
17.1152
16.9964
16.8221
16.6105
16.3815
16.1564
15.953
15.7918
15.6811
15.644
16.0846
15.8157
15.5593
15.3144
15.0807
14.8579
14.6462
14.4477
14.2568
14.0961
27.8948
28.0037
37.8153
72.0958
47.7926
44.6499
42.3478
40.2737
38.3959
36.6863
35.1389
33.7417
32.4826
31.3507
30.335
29.427
28.6174
27.9044
27.2664
26.7334
16.0848
15.816
15.5598
15.3151
15.0817
14.8591
14.6479
14.4487
14.2624
14.1278
28.0502
57.6153
118.828
215.327
54.3026
49.7017
46.8402
44.4222
42.347
40.567
39.0272
37.6843
36.5072
35.4725
34.5613
33.7566
33.0442
32.4077
31.8424
31.3155
16.0849
15.8163
15.5603
15.3158
15.0825
14.8594
14.6478
14.4486
14.2623
14.1276
28.112
60.0165
245.66
55.777
50.7932
48.3945
46.1681
44.2064
42.5057
41.0086
39.671
38.4585
37.3467
36.3175
35.3566
34.454
33.5976
32.7917
32.0008
16.0849
15.8161
15.5597
15.315
15.0815
14.8581
14.6461
14.4476
14.2566
14.0957
27.9277
55.939
76.2206
183.384
49.6011
46.9701
44.9146
43.0923
41.4695
40.0372
38.7637
37.62
36.5794
35.6243
34.7395
33.9147
33.1444
32.443
31.8028
31.1843
16.0848
15.8158
15.5592
15.3142
15.0805
14.8574
14.6451
14.4455
14.2513
14.0765
27.8447
27.4765
29.2626
40.4884
18.1446
17.7102
18.622
19.759
20.8098
21.7196
22.4686
23.0584
23.5099
23.8421
24.0746
24.2201
24.2869
24.2881
24.2224
24.1193
16.0847
15.8157
15.5592
15.3143
15.0803
14.8569
14.6438
14.4409
14.2481
14.0684
13.9187
13.8141
13.7421
13.6124
13.4682
13.3171
13.1683
13.0823
13.0834
13.1693
13.3256
13.5294
13.759
13.9976
14.2324
14.4499
14.6388
14.7954
14.9135
14.9964
16.0847
15.8157
15.5592
15.3142
15.08
14.8563
14.6425
14.4366
14.2442
14.0627
13.8949
13.7427
13.6008
13.4574
13.3158
13.1691
13.0205
12.8744
12.7319
12.5967
12.4706
12.355
12.2501
12.1557
12.0707
11.9936
11.922
11.854
11.7878
11.72
16.0846
15.8157
15.5591
15.314
15.0796
14.8554
14.641
14.4339
14.239
14.0578
13.886
13.7034
13.5546
13.4308
13.2855
13.1384
12.9915
12.8471
12.7049
12.5665
12.4322
12.3019
12.1755
12.0529
11.9342
11.819
11.7074
11.5991
11.4939
11.3917
16.0846
15.8156
15.559
15.3137
15.0792
14.8545
14.6392
14.4313
14.2345
14.0501
13.8771
13.7195
13.5646
13.4097
13.2613
13.1134
12.9671
12.8237
12.6825
12.5449
12.4111
12.2807
12.154
12.0307
11.9109
11.7944
11.6812
11.571
11.4638
11.3596
16.0846
15.8155
15.5588
15.3134
15.0786
14.8534
14.6375
14.4288
14.2306
14.0439
13.8677
13.7073
13.5488
13.3904
13.2407
13.0926
12.947
12.8044
12.6642
12.5275
12.3945
12.2649
12.1389
12.0163
11.8972
11.7814
11.6689
11.5595
11.453
11.3496
16.0846
15.8154
15.5586
15.313
15.0779
14.8523
14.6354
14.426
14.2272
14.0391
13.861
13.6981
13.5376
13.3781
13.2276
13.0795
12.9339
12.7919
12.6527
12.5167
12.3842
12.2552
12.1297
12.0075
11.8887
11.7732
11.6609
11.5517
11.4454
11.3421
16.0845
15.8153
15.5583
15.3126
15.0772
14.8512
14.6339
14.4242
14.2248
14.0359
13.8569
13.6931
13.5316
13.3716
13.2208
13.0727
12.9275
12.7857
12.6467
12.511
12.3788
12.2501
12.1249
12.003
11.8845
11.7693
11.6573
11.5483
11.4423
11.3393
1.9399
2.08196
2.20887
2.32355
2.42834
2.52507
2.61503
2.69992
2.78299
2.86316
2.93932
3.00815
3.06704
3.11335
3.14852
3.17566
3.19927
3.22179
3.24147
3.25907
3.27493
3.28919
3.30202
3.31353
3.32387
3.33312
3.34127
3.34849
3.35488
3.36061
1.93992
2.08203
2.20901
2.32383
2.42884
2.52602
2.61679
2.70271
2.7878
2.87104
2.95134
3.02484
3.0877
3.13649
3.17211
3.19862
3.22105
3.24245
3.26116
3.27786
3.29287
3.30634
3.31843
3.32924
3.33894
3.34751
3.35504
3.36169
3.36753
3.37275
1.93987
2.08213
2.20924
2.3243
2.42979
2.52789
2.62058
2.70868
2.79821
2.88839
2.9784
3.06264
3.13484
3.18922
3.22548
3.25
3.27026
3.28894
3.30532
3.31989
3.33289
3.34446
3.35472
3.36378
3.37181
3.37873
3.38473
3.38996
3.3945
3.39858
1.93981
2.08224
2.20956
2.32495
2.43111
2.53051
2.62565
2.71774
2.81477
2.91751
3.02819
3.13364
3.22707
3.29258
3.33006
3.35026
3.36556
3.37906
3.39082
3.40118
3.41031
3.41838
3.42559
3.43194
3.43742
3.44207
3.44605
3.4496
3.4528
3.45651
1.93985
2.08224
2.20991
2.32577
2.43275
2.53384
2.63223
2.73034
2.83912
2.96549
3.10052
3.24013
3.37356
3.46845
3.51144
3.52578
3.53443
3.53965
3.54357
3.54654
3.54875
3.55021
3.55103
3.5511
3.55052
3.54949
3.5482
3.54686
3.54566
3.54509
1.93989
2.08227
2.21015
2.32664
2.43461
2.53765
2.64014
2.74676
2.87453
3.02321
3.22093
3.44395
3.69145
3.8387
3.89445
3.89957
3.90009
3.90028
3.90011
3.89917
3.89799
3.89623
3.89372
3.89015
3.88574
3.88077
3.87586
3.87166
3.86877
3.8681
1.93991
2.08241
2.21037
2.32732
2.43647
2.5416
2.64888
2.76767
2.91192
3.11448
3.46848
4.00284
4.65644
4.99986
5.10878
5.12693
5.12056
5.10288
5.07407
5.03729
4.99607
4.9522
4.90808
4.8665
4.82847
4.79448
4.76543
4.74237
4.72698
4.72213
1.93993
2.08254
2.21068
2.3279
2.43796
2.54511
2.65749
2.7919
2.95531
3.28025
3.69374
5.33979
8.07614
11.9256
17.2889
16.6536
16.0983
15.5597
15.0418
14.5471
14.0766
13.6275
13.2044
12.8152
12.4672
12.1614
11.9011
11.6908
11.538
11.4622
1.93995
2.08265
2.21095
2.32848
2.43911
2.54794
2.6647
2.80985
3.00694
3.58042
4.65283
13.7756
38.792
81.7641
110.337
88.5114
74.3567
64.1888
56.5243
50.5091
45.6725
41.6994
38.384
35.5899
33.2244
31.2225
29.5364
28.1261
26.9728
26.0527
1.94006
2.08288
2.21136
2.32915
2.44022
2.55005
2.66942
2.81692
3.05333
3.91552
7.6659
545.834
1397.88
850.615
140.694
105.668
86.4172
73.5217
64.2168
57.2116
51.7408
47.3404
43.7199
40.695
38.1439
35.9804
34.1434
32.5739
31.255
30.1132
1.94016
2.08306
2.21161
2.32944
2.44054
2.54983
2.6691
2.81642
3.05223
3.91223
8.21055
356.853
132.349
101.815
84.7405
72.9944
64.461
58.0868
53.1473
49.1863
45.9146
43.1427
40.7457
38.6304
36.7325
34.9972
33.4267
31.9137
1.94016
2.08279
2.21127
2.32866
2.43934
2.54762
2.66428
2.80917
3.00519
3.57405
5.8177
299.082
881.694
453.747
106.988
86.5921
73.5756
64.5664
58.1799
53.5757
50.1614
47.5278
45.4238
43.6877
42.2169
40.962
39.8735
38.8562
37.8683
36.7468
1.94018
2.08252
2.21074
2.32777
2.43784
2.54495
2.65724
2.79137
2.95374
3.2743
3.88879
7.84628
14.5414
25.8521
16.5179
16.4361
16.5371
16.723
16.9949
17.3685
17.8299
18.341
18.8693
19.3878
19.879
20.3073
20.6405
20.868
20.9793
20.9913
1.94006
2.08241
2.21031
2.32725
2.43636
2.54144
2.64857
2.76701
2.91028
3.10966
3.45206
3.94204
4.53068
4.82088
4.94797
5.02839
5.11566
5.20805
5.30522
5.413
5.53513
5.68733
5.85514
6.0299
6.20635
6.37625
6.537
6.68824
6.8315
6.96433
1.93989
2.08225
2.21007
2.32656
2.43448
2.53744
2.63978
2.74607
2.87302
3.0198
3.21189
3.42168
3.64987
3.78339
3.84497
3.87128
3.90445
3.94481
3.98974
4.03745
4.09011
4.14635
4.20405
4.26141
4.31737
4.37067
4.42044
4.46515
4.50511
4.53699
1.93983
2.08221
2.20985
2.32567
2.43261
2.53361
2.63186
2.72968
2.83783
2.96282
3.09519
3.22957
3.35674
3.44738
3.49302
3.51744
3.54458
3.5727
3.60158
3.63025
3.65936
3.68898
3.71862
3.74778
3.77595
3.80259
3.82723
3.84914
3.86834
3.88354
1.9398
2.0822
2.20949
2.32485
2.43095
2.53026
2.62527
2.71711
2.81365
2.91548
3.02442
3.12714
3.21768
3.28179
3.32125
3.34737
3.37299
3.39795
3.42345
3.44899
3.47465
3.50035
3.52569
3.55025
3.57353
3.59508
3.61463
3.63176
3.64661
3.65851
1.93986
2.08209
2.20917
2.32418
2.42962
2.52764
2.62019
2.70807
2.79724
2.88677
2.97575
3.05854
3.1294
3.18344
3.22141
3.24976
3.27605
3.30079
3.32518
3.34895
3.37205
3.39435
3.41568
3.4358
3.45452
3.47152
3.4867
3.49992
3.51127
3.5202
1.9399
2.08198
2.20894
2.3237
2.42866
2.52575
2.61639
2.70211
2.78689
2.86964
2.94924
3.02189
3.0841
3.13307
3.17029
3.19973
3.22587
3.25071
3.27441
3.29718
3.31905
3.33987
3.3596
3.37816
3.39545
3.41127
3.42553
3.43817
3.4492
3.45833
1.93989
2.08192
2.20879
2.32343
2.42815
2.5248
2.61463
2.69933
2.78212
2.8619
2.93754
3.0058
3.06442
3.11123
3.14812
3.17808
3.20474
3.22992
3.25326
3.27558
3.29689
3.31701
3.33593
3.35363
3.36999
3.38488
3.3981
3.40964
3.41951
3.42739
1.77772
1.77827
1.78113
1.78591
1.79235
1.80023
1.80921
1.82076
1.83376
1.84847
1.8645
1.88023
1.89465
1.90654
1.91652
1.92526
1.93342
1.94139
1.94901
1.95625
1.96321
1.96989
1.97632
1.9825
1.98848
1.99417
1.99968
2.00498
2.01008
2.01501
1.77772
1.77827
1.78114
1.78594
1.79241
1.80038
1.80955
1.82143
1.83491
1.85057
1.86801
1.88514
1.90151
1.91449
1.92496
1.93374
1.94187
1.94977
1.95727
1.96441
1.97124
1.97781
1.98411
1.99018
1.996
2.00158
2.00696
2.01212
2.01708
2.02189
1.77772
1.77828
1.78116
1.78599
1.79253
1.80069
1.81039
1.82261
1.83725
1.85514
1.87606
1.89696
1.9171
1.93251
1.94395
1.95287
1.96078
1.96862
1.97589
1.9828
1.9894
1.99571
2.00177
2.00757
2.01306
2.01839
2.02347
2.02835
2.03306
2.03764
1.77772
1.77829
1.78119
1.78606
1.7927
1.8011
1.81143
1.82454
1.84135
1.86337
1.88947
1.91656
1.9442
1.96511
1.97877
1.98809
1.99606
2.00364
2.01064
2.01725
2.02354
2.02954
2.03532
2.04075
2.04597
2.05098
2.05577
2.06043
2.06498
2.06953
1.77772
1.77829
1.78122
1.78614
1.79292
1.80163
1.81272
1.82736
1.84773
1.87551
1.91496
1.95737
2.00305
2.03298
2.05039
2.0606
2.06855
2.07556
2.08195
2.08795
2.09363
2.09906
2.10417
2.10897
2.11355
2.11789
2.12206
2.12617
2.1303
2.1346
1.77773
1.7783
1.78125
1.78625
1.79317
1.80225
1.81429
1.83127
1.8562
1.89748
1.97998
2.07055
2.16169
2.2122
2.23474
2.24443
2.25246
2.25975
2.26664
2.27332
2.28004
2.28669
2.2932
2.29934
2.30528
2.31109
2.31697
2.32316
2.32995
2.33785
1.77773
1.77831
1.78127
1.78633
1.79344
1.80294
1.81615
1.83646
1.86926
1.94818
2.15527
2.4605
2.70469
2.83585
2.88539
2.90827
2.94112
2.97362
3.00406
3.03312
3.05989
3.08371
3.10415
3.12136
3.13559
3.14732
3.15759
3.1681
3.18076
3.19706
1.77773
1.77833
1.7813
1.78639
1.79365
1.80357
1.81812
1.84153
1.89075
2.0733
2.28852
3.65318
4.96199
5.72407
9.55208
9.91408
10.1273
10.2342
10.2585
10.2278
10.1559
10.0482
9.91528
9.76422
9.60472
9.44653
9.30044
9.17698
9.08609
9.03473
1.77773
1.77834
1.78134
1.78647
1.79383
1.80408
1.81984
1.84683
1.92389
2.37026
3.4051
14.9902
44.1207
42.4399
78.4528
64.7822
55.3733
48.4904
43.1639
38.9461
35.4905
32.6293
30.2016
28.1184
26.32
24.7632
23.4176
22.2567
21.2693
20.4535
1.77773
1.77835
1.78137
1.78654
1.79397
1.80443
1.82089
1.85028
1.96223
2.79005
6.78772
566.552
411.643
353.367
130.931
97.902
79.6892
67.6992
58.9725
52.3728
47.1593
42.9206
39.3932
36.4046
33.8397
31.617
29.6779
27.9782
26.4874
25.182
1.77774
1.77835
1.78136
1.78655
1.79399
1.80446
1.82091
1.85026
1.96209
2.78764
7.29974
298.33
131.058
98.1955
79.859
67.8726
59.2687
52.828
47.7939
43.7671
40.437
37.6226
35.2034
33.0947
31.2345
29.5749
28.0871
26.728
1.77773
1.77834
1.78134
1.78647
1.79385
1.80413
1.81988
1.84682
1.92364
2.36824
4.5419
364.996
453.767
267.98
78.18
65.0058
56.4103
50.3522
45.8175
42.3418
39.6105
37.4042
35.553
33.9244
32.4509
31.0542
29.6908
28.344
27.0143
25.7161
1.77773
1.77833
1.7813
1.78639
1.79366
1.80358
1.81811
1.84147
1.89051
2.0721
2.55995
6.97115
11.3028
12.9569
9.52892
9.99989
10.4039
10.759
11.0674
11.3593
11.6427
11.9271
12.1949
12.4411
12.6592
12.8373
12.9712
13.0546
13.0865
13.0572
1.77773
1.77831
1.78125
1.78632
1.79343
1.80292
1.8161
1.83635
1.86899
1.94709
2.15022
2.44146
2.66661
2.79091
2.84994
2.8895
2.94911
3.01733
3.08796
3.16263
3.24162
3.32506
3.40974
3.49571
3.58186
3.66621
3.74724
3.82275
3.89207
3.95135
1.77773
1.7783
1.78124
1.78624
1.79315
1.80222
1.81423
1.83115
1.85593
1.89676
1.97753
2.0642
2.1501
2.1991
2.22317
2.23695
2.25315
2.27236
2.29366
2.31708
2.34273
2.37007
2.39877
2.42826
2.45798
2.48739
2.51627
2.54351
2.56886
2.59122
1.77772
1.77829
1.78121
1.78613
1.7929
1.80159
1.81266
1.82725
1.84749
1.87497
1.91365
1.95465
1.99865
2.02762
2.04614
2.05891
2.07019
2.08274
2.09588
2.10956
2.1238
2.1386
2.15392
2.16921
2.18434
2.19891
2.21293
2.22623
2.23851
2.24932
1.77772
1.77829
1.78118
1.78605
1.79268
1.80107
1.81137
1.82443
1.84114
1.86294
1.88863
1.91504
1.94204
1.96269
1.9771
1.98801
1.99781
2.00826
2.0189
2.02982
2.04109
2.05267
2.0646
2.07654
2.08834
2.09976
2.11057
2.12078
2.13026
2.13877
1.77772
1.77828
1.78116
1.78598
1.79251
1.80066
1.81033
1.82251
1.83708
1.85481
1.87544
1.89593
1.91573
1.93113
1.94317
1.95322
1.96239
1.97207
1.98155
1.99113
2.00086
2.0107
2.02061
2.03045
2.04009
2.04931
2.05805
2.06621
2.07375
2.08058
1.77772
1.77827
1.78114
1.78592
1.79239
1.80034
1.8095
1.82134
1.83475
1.85029
1.86752
1.8844
1.90058
1.91367
1.92468
1.93438
1.94349
1.9531
1.9621
1.97105
1.98004
1.98905
1.99803
2.00693
2.01568
2.0241
2.03211
2.03968
2.04676
2.05324
1.77771
1.77827
1.78112
1.7859
1.79233
1.8002
1.80916
1.82067
1.83362
1.84823
1.8641
1.87965
1.89399
1.90606
1.91661
1.92615
1.93516
1.94468
1.9535
1.9622
1.9709
1.97957
1.98817
1.99663
2.00495
2.01297
2.02051
2.0276
2.03422
2.04018
1.77422
1.76859
1.76319
1.75806
1.75325
1.74881
1.74481
1.74153
1.73903
1.73753
1.7369
1.73641
1.73526
1.73354
1.73176
1.73004
1.72837
1.72668
1.72506
1.72349
1.72197
1.72052
1.71914
1.71782
1.71657
1.71538
1.71424
1.71316
1.71214
1.71119
1.77422
1.76859
1.76319
1.75807
1.75327
1.74884
1.74488
1.74169
1.73939
1.73828
1.7383
1.73839
1.73811
1.73686
1.73536
1.73378
1.7322
1.73054
1.72897
1.72742
1.72592
1.72449
1.72312
1.72181
1.72056
1.71937
1.71822
1.71715
1.71612
1.71515
1.77422
1.76859
1.7632
1.75808
1.75329
1.7489
1.745
1.74206
1.74023
1.74006
1.74169
1.74341
1.74508
1.74493
1.74405
1.7428
1.74138
1.73983
1.73832
1.73683
1.73538
1.73398
1.73263
1.73133
1.73009
1.72889
1.72774
1.72666
1.72562
1.72465
1.77422
1.76859
1.7632
1.75809
1.75332
1.74899
1.74527
1.74266
1.74171
1.74345
1.74817
1.75376
1.75836
1.76057
1.76104
1.76048
1.75938
1.75809
1.75675
1.7554
1.75407
1.75278
1.75152
1.75032
1.74915
1.74801
1.74694
1.74593
1.74498
1.74413
1.77423
1.7686
1.7632
1.7581
1.75336
1.74911
1.74563
1.74361
1.74424
1.74937
1.76234
1.77683
1.79009
1.79623
1.79885
1.7995
1.7989
1.79805
1.79701
1.79594
1.79489
1.79387
1.79289
1.79195
1.79102
1.79014
1.78933
1.78859
1.78797
1.78751
1.77423
1.7686
1.76321
1.75812
1.75341
1.74928
1.74613
1.74508
1.74825
1.76203
1.79863
1.84066
1.87254
1.88954
1.8958
1.89829
1.89955
1.90029
1.90088
1.90156
1.90241
1.9034
1.9045
1.9057
1.90691
1.9082
1.90959
1.91115
1.91297
1.9153
1.77423
1.76861
1.76321
1.75814
1.75347
1.74947
1.74677
1.74721
1.75568
1.79139
1.89652
2.03865
2.12785
2.17709
2.19914
2.21469
2.23672
2.25729
2.27743
2.29696
2.31562
2.33336
2.34957
2.36409
2.37668
2.38733
2.39606
2.40368
2.4116
2.42109
1.77424
1.76861
1.76323
1.75816
1.75354
1.74967
1.74751
1.7499
1.76861
1.86482
1.98788
2.66732
3.18761
3.38763
4.43139
4.59223
4.7505
4.87059
4.96558
5.04123
5.10029
5.14176
5.16739
5.17715
5.17339
5.15669
5.13046
5.10213
5.08138
5.07924
1.77424
1.76862
1.76324
1.75818
1.75361
1.74986
1.74823
1.75315
1.78862
2.02657
2.5867
7.56061
17.717
18.5308
30.516
27.7322
25.5261
23.7539
22.2731
21.0166
19.91
18.925
18.0341
17.2292
16.4926
15.8193
15.2072
14.6528
14.1535
13.717
1.77424
1.76863
1.76326
1.75822
1.75367
1.75
1.74874
1.75563
1.81055
2.26696
4.20361
264.116
577.932
409.847
97.8316
78.4047
65.8617
57.2264
50.8246
45.9342
41.9891
38.7103
35.9377
33.5281
31.401
29.5011
27.7893
26.2375
24.8227
23.5272
1.77424
1.76862
1.76326
1.75821
1.75365
1.74999
1.74873
1.75561
1.81056
2.26664
4.57444
422.74
348.757
245.154
101.643
80.0018
66.237
56.8004
49.8681
44.5348
40.2884
36.8431
33.9781
31.5484
29.4803
27.6934
26.1373
24.7728
23.5665
22.5038
1.77423
1.76861
1.76323
1.75817
1.75359
1.74985
1.74822
1.75314
1.78861
2.02693
3.06853
144.314
762.656
311.535
44.1466
38.1092
33.752
30.4826
27.9111
25.821
24.078
22.5914
21.2941
20.1355
19.099
18.1529
17.2907
16.4991
15.7692
15.1069
1.77423
1.76861
1.76322
1.75815
1.75353
1.74967
1.74751
1.7499
1.76865
1.86496
2.14305
4.08189
5.91103
6.58957
5.06594
5.41343
5.66281
5.8523
6.02386
6.19149
6.35622
6.51338
6.66167
6.79685
6.91453
7.01085
7.08163
7.12394
7.14035
7.12451
1.77423
1.7686
1.76321
1.75813
1.75347
1.74946
1.74676
1.74718
1.75567
1.79132
1.89629
2.03779
2.12549
2.17507
2.20265
2.22419
2.25627
2.29015
2.32578
2.36297
2.4019
2.44224
2.48306
2.52374
2.56363
2.60205
2.63806
2.67088
2.70053
2.72669
1.77423
1.7686
1.76321
1.75812
1.75341
1.74927
1.74612
1.74506
1.7482
1.7619
1.79822
1.83982
1.8713
1.88857
1.8957
1.89921
1.90208
1.90507
1.90902
1.91409
1.92038
1.92776
1.93604
1.94496
1.95428
1.96381
1.97337
1.98272
1.99171
1.99987
1.77423
1.7686
1.7632
1.7581
1.75336
1.74911
1.74562
1.74358
1.74418
1.74924
1.762
1.77621
1.78931
1.79556
1.79849
1.79973
1.79962
1.79944
1.79961
1.80025
1.80143
1.8031
1.80516
1.80753
1.81011
1.81279
1.81549
1.81811
1.82062
1.8228
1.77422
1.76859
1.7632
1.75808
1.75331
1.74898
1.74525
1.74263
1.74165
1.74333
1.7479
1.75331
1.7578
1.76006
1.76076
1.76056
1.75976
1.75892
1.7582
1.75773
1.75755
1.75767
1.75808
1.75871
1.75954
1.76048
1.76146
1.76241
1.76332
1.76406
1.77422
1.76859
1.76319
1.75807
1.75328
1.74889
1.74499
1.74204
1.74018
1.73996
1.74147
1.74304
1.7446
1.74447
1.74376
1.74278
1.74159
1.74042
1.73929
1.73833
1.73759
1.73709
1.7368
1.73669
1.7367
1.73684
1.737
1.73713
1.73723
1.73722
1.77422
1.76859
1.76319
1.75807
1.75326
1.74883
1.74487
1.74167
1.73935
1.73819
1.73811
1.73809
1.73772
1.73649
1.73515
1.7338
1.73241
1.73097
1.7297
1.72854
1.72757
1.72679
1.72618
1.72573
1.72539
1.72515
1.72497
1.72479
1.7246
1.72434
1.77422
1.76859
1.76319
1.75806
1.75325
1.7488
1.7448
1.74151
1.73898
1.73744
1.73673
1.73613
1.73491
1.73322
1.7316
1.73008
1.7286
1.72709
1.72575
1.7245
1.72341
1.7225
1.72176
1.72114
1.72064
1.72021
1.71984
1.71947
1.71908
1.71862
1.77415
1.7683
1.7625
1.75676
1.7511
1.74554
1.74012
1.73497
1.73022
1.72597
1.72213
1.71826
1.71391
1.70928
1.70473
1.7003
1.6959
1.69145
1.68703
1.68264
1.67829
1.67399
1.66975
1.66557
1.66145
1.65739
1.6534
1.64947
1.6456
1.64183
1.77415
1.7683
1.7625
1.75676
1.7511
1.74555
1.74015
1.73506
1.73043
1.7264
1.72294
1.71951
1.71555
1.71119
1.70682
1.7025
1.69815
1.69373
1.68935
1.68498
1.68065
1.67637
1.67215
1.66799
1.66388
1.65984
1.65585
1.65193
1.64808
1.64431
1.77415
1.7683
1.7625
1.75677
1.75111
1.74558
1.74023
1.73525
1.7309
1.72744
1.72493
1.72261
1.7196
1.71592
1.71198
1.70792
1.70372
1.69939
1.69507
1.69076
1.68648
1.68225
1.67806
1.67393
1.66985
1.66583
1.66187
1.65796
1.65413
1.65038
1.77415
1.7683
1.7625
1.75677
1.75113
1.74562
1.74036
1.7356
1.73177
1.72946
1.72902
1.72911
1.72807
1.72579
1.72273
1.71919
1.71528
1.71112
1.70695
1.70274
1.69856
1.6944
1.69029
1.68623
1.68223
1.67827
1.67437
1.67053
1.66676
1.66307
1.77415
1.7683
1.7625
1.75678
1.75115
1.74569
1.74056
1.73617
1.7333
1.73325
1.73767
1.74359
1.74684
1.7474
1.74601
1.74338
1.73991
1.73614
1.73223
1.72826
1.72429
1.72033
1.71641
1.71254
1.70871
1.70494
1.70123
1.6976
1.69404
1.69059
1.77415
1.7683
1.76251
1.75679
1.75118
1.74578
1.74085
1.73705
1.73588
1.74085
1.7579
1.77858
1.79227
1.79954
1.80167
1.8008
1.79825
1.79538
1.79218
1.7889
1.78567
1.78251
1.77947
1.77655
1.77375
1.77107
1.76852
1.76611
1.76384
1.76176
1.77415
1.7683
1.76251
1.7568
1.75121
1.7459
1.74123
1.73837
1.74039
1.75731
1.81034
1.86662
1.9057
1.92893
1.93831
1.94162
1.9435
1.94595
1.94798
1.95002
1.95222
1.95458
1.95714
1.95989
1.96272
1.96561
1.96863
1.97173
1.97503
1.97866
1.77415
1.7683
1.76252
1.75681
1.75125
1.74602
1.7417
1.74011
1.7481
1.79271
1.94954
2.19329
2.30711
2.36253
2.39302
2.41601
2.45144
2.49037
2.52873
2.56711
2.60479
2.64118
2.67609
2.70846
2.73795
2.76413
2.78705
2.80725
2.82612
2.84495
1.77415
1.76831
1.76254
1.75683
1.75129
1.74613
1.74213
1.74215
1.7587
1.86089
2.04967
3.23616
4.22557
4.40359
5.15488
5.32151
5.4854
5.60853
5.7133
5.79954
5.87396
5.94333
6.00632
6.06293
6.10927
6.14353
6.16391
6.17068
6.16513
6.14808
1.77416
1.76832
1.76255
1.75686
1.75134
1.74622
1.74244
1.74364
1.7694
1.94919
2.48706
9.50012
18.9957
19.1988
16.7872
16.8777
16.7409
16.575
16.3837
16.1786
15.9697
15.7489
15.4883
15.2023
14.899
14.5771
14.242
13.8981
13.549
13.1982
1.77415
1.76831
1.76254
1.75685
1.75133
1.74622
1.74243
1.74364
1.76942
1.94952
2.55887
12.4138
26.9987
30.5485
18.221
18.1936
17.8629
17.4775
17.0585
16.6373
16.2146
15.8001
15.384
14.9794
14.5844
14.2058
13.842
13.4949
13.1638
12.8533
1.77415
1.7683
1.76252
1.75682
1.75128
1.74613
1.74213
1.74215
1.75877
1.86131
2.19577
5.3159
9.0572
9.77459
6.16347
6.47964
6.66998
6.76945
6.82565
6.8532
6.86067
6.85343
6.83331
6.80214
6.75963
6.70807
6.6472
6.57969
6.50644
6.43113
1.77415
1.7683
1.76251
1.75681
1.75125
1.74602
1.7417
1.74011
1.74817
1.79299
1.9524
2.20089
2.32024
2.38101
2.41917
2.47115
2.54618
2.61948
2.68717
2.75039
2.81474
2.88452
2.95554
3.02424
3.08918
3.14921
3.2028
3.24825
3.28578
3.31359
1.77415
1.7683
1.76251
1.7568
1.75121
1.74589
1.74123
1.73836
1.7404
1.75744
1.81082
1.86825
1.90816
1.93198
1.9424
1.94794
1.95311
1.95918
1.96524
1.97243
1.98084
1.99019
2.00028
2.01084
2.02169
2.03271
2.04368
2.05431
2.06443
2.07355
1.77415
1.7683
1.76251
1.75679
1.75118
1.74578
1.74084
1.73704
1.73586
1.74083
1.7579
1.77878
1.79288
1.80057
1.80311
1.80236
1.79987
1.79714
1.79424
1.79173
1.78972
1.78816
1.78705
1.78631
1.78587
1.78574
1.78579
1.78596
1.78621
1.78638
1.77415
1.7683
1.7625
1.75678
1.75115
1.74569
1.74056
1.73615
1.73327
1.73319
1.73754
1.74342
1.74677
1.74751
1.74631
1.74374
1.7402
1.7363
1.73232
1.72846
1.72478
1.72131
1.71804
1.71496
1.71204
1.70928
1.70665
1.7041
1.70161
1.69915
1.77415
1.7683
1.7625
1.75677
1.75113
1.74562
1.74035
1.73559
1.73174
1.72939
1.72887
1.72889
1.72782
1.72558
1.7226
1.71909
1.71515
1.71092
1.70671
1.70252
1.69845
1.69449
1.69067
1.68699
1.68343
1.67997
1.67664
1.67338
1.6702
1.66706
1.77415
1.7683
1.7625
1.75677
1.75111
1.74558
1.74022
1.73524
1.73087
1.72737
1.7248
1.72239
1.71932
1.71562
1.71172
1.70769
1.70349
1.69912
1.69478
1.69048
1.68625
1.68214
1.67814
1.67425
1.67048
1.66679
1.66319
1.65967
1.65622
1.65282
1.77415
1.7683
1.7625
1.75676
1.7511
1.74555
1.74014
1.73505
1.7304
1.72634
1.72282
1.71931
1.71528
1.7109
1.70656
1.70227
1.69793
1.6935
1.6891
1.68474
1.68046
1.67627
1.67219
1.6682
1.66432
1.66052
1.6568
1.65316
1.64959
1.64608
1.77415
1.7683
1.7625
1.75676
1.7511
1.74554
1.74011
1.73496
1.73019
1.72591
1.72201
1.71805
1.71363
1.70897
1.70445
1.70006
1.69566
1.6912
1.68678
1.6824
1.67809
1.67387
1.66975
1.66573
1.66179
1.65794
1.65417
1.65047
1.64683
1.64326
1.77414
1.76829
1.76247
1.75671
1.75099
1.74536
1.7398
1.73444
1.72935
1.72459
1.72006
1.71548
1.71059
1.70551
1.7005
1.69556
1.69061
1.68561
1.6806
1.6756
1.67062
1.66566
1.66072
1.65582
1.65096
1.64613
1.64133
1.63658
1.63186
1.62722
1.77414
1.76829
1.76248
1.75671
1.751
1.74536
1.73982
1.73451
1.7295
1.72488
1.7206
1.71631
1.71168
1.70679
1.70189
1.69702
1.69211
1.68713
1.68214
1.67716
1.67218
1.66723
1.6623
1.65741
1.65255
1.64773
1.64295
1.6382
1.63349
1.62885
1.77414
1.76829
1.76248
1.75671
1.75101
1.74538
1.73988
1.73465
1.72983
1.72558
1.72192
1.71835
1.71434
1.7099
1.7053
1.7006
1.69578
1.69085
1.6859
1.68094
1.67599
1.67106
1.66616
1.66128
1.65644
1.65163
1.64686
1.64211
1.63741
1.63278
1.77414
1.76829
1.76248
1.75672
1.75102
1.74542
1.73997
1.73489
1.73043
1.72692
1.72454
1.72248
1.71972
1.71619
1.71216
1.7078
1.70317
1.69834
1.69347
1.68858
1.68368
1.67879
1.67393
1.6691
1.6643
1.65953
1.65479
1.65008
1.64541
1.64081
1.77414
1.76829
1.76248
1.75672
1.75103
1.74547
1.74013
1.73528
1.73145
1.72935
1.72966
1.73081
1.73058
1.72883
1.7259
1.72219
1.7179
1.71332
1.70863
1.70386
1.69908
1.6943
1.68954
1.68482
1.68012
1.67545
1.67081
1.66621
1.66165
1.65717
1.77414
1.76829
1.76248
1.75673
1.75105
1.74553
1.74033
1.73588
1.73312
1.73375
1.74022
1.74884
1.75403
1.75586
1.75494
1.75234
1.74864
1.74466
1.74037
1.73598
1.73156
1.72715
1.72278
1.71846
1.7142
1.70998
1.70583
1.70172
1.6977
1.69377
1.77414
1.76829
1.76248
1.75674
1.75108
1.74561
1.74059
1.73674
1.73577
1.74211
1.76377
1.78949
1.80643
1.81616
1.82003
1.81981
1.81747
1.81471
1.81149
1.80817
1.80492
1.8018
1.79884
1.79606
1.79346
1.79104
1.78879
1.78671
1.78481
1.78311
1.77415
1.7683
1.7625
1.75674
1.75111
1.7457
1.7409
1.73784
1.73984
1.75796
1.81808
1.88157
1.92342
1.94572
1.95698
1.96281
1.9664
1.97113
1.97572
1.98057
1.98591
1.9915
1.99749
2.00373
2.01018
2.0167
2.02319
2.02965
2.03602
2.04232
1.77415
1.76831
1.76252
1.75676
1.75113
1.74577
1.74119
1.73898
1.74514
1.78334
1.91755
2.12131
2.21583
2.25478
2.28488
2.31649
2.35934
2.40516
2.44881
2.49257
2.53654
2.57924
2.62174
2.66308
2.70224
2.73892
2.77262
2.80307
2.83002
2.85287
1.77416
1.76831
1.76253
1.75679
1.75116
1.74583
1.74138
1.73982
1.74939
1.81319
2.08218
2.56388
2.87239
2.93108
3.08916
3.26295
3.44346
3.60512
3.75493
3.89179
4.01458
4.12289
4.21899
4.30132
4.3697
4.4255
4.46937
4.5017
4.5232
4.53498
1.77416
1.76831
1.76251
1.75678
1.75116
1.74583
1.74138
1.73982
1.74942
1.81336
2.0838
2.56806
2.90653
2.97515
3.16004
3.35817
3.54486
3.7037
3.84397
3.96562
4.07216
4.16316
4.24261
4.30973
4.36586
4.41233
4.44965
4.47926
4.50146
4.51802
1.77415
1.7683
1.76249
1.75675
1.75113
1.74577
1.74119
1.73898
1.7452
1.78359
1.91942
2.12706
2.2298
2.27359
2.31027
2.36623
2.43507
2.50738
2.5721
2.63005
2.6812
2.72532
2.76249
2.79302
2.8183
2.83952
2.8584
2.87559
2.891
2.90486
1.77415
1.76829
1.76249
1.75674
1.7511
1.7457
1.7409
1.73784
1.73988
1.7582
1.81903
1.88441
1.92805
1.95191
1.96308
1.97098
1.97886
1.98887
1.99861
2.00835
2.01818
2.02806
2.0381
2.04918
2.06071
2.07243
2.08418
2.09565
2.10648
2.11618
1.77415
1.76829
1.76248
1.75673
1.75108
1.74561
1.74059
1.73673
1.73577
1.74219
1.7641
1.79044
1.80816
1.81851
1.82255
1.8225
1.82043
1.81802
1.81514
1.8123
1.80975
1.80776
1.80629
1.80525
1.80458
1.80423
1.80409
1.80411
1.80421
1.80427
1.77414
1.76829
1.76248
1.75673
1.75105
1.74553
1.74032
1.73587
1.73311
1.73374
1.74024
1.74899
1.75447
1.7566
1.75585
1.75323
1.74938
1.74518
1.74067
1.73614
1.73174
1.72753
1.72352
1.71968
1.716
1.71246
1.70907
1.70578
1.70258
1.69943
1.77414
1.76829
1.76248
1.75672
1.75103
1.74546
1.74012
1.73527
1.73143
1.72931
1.72958
1.73072
1.73056
1.72891
1.72606
1.72233
1.71794
1.71318
1.70833
1.70343
1.69859
1.69382
1.68914
1.68455
1.68005
1.67563
1.67129
1.66703
1.66282
1.65868
1.77414
1.76829
1.76248
1.75671
1.75102
1.74542
1.73997
1.73488
1.73041
1.72687
1.72444
1.72233
1.71955
1.71602
1.71201
1.70763
1.70293
1.698
1.69303
1.68805
1.6831
1.67819
1.67334
1.66856
1.66383
1.65918
1.65458
1.65003
1.64555
1.64114
1.77414
1.76829
1.76248
1.75671
1.751
1.74538
1.73987
1.73464
1.72981
1.72554
1.72182
1.71819
1.71412
1.70966
1.70505
1.70034
1.69548
1.69048
1.68547
1.68045
1.67546
1.67051
1.66561
1.66076
1.65597
1.65124
1.64657
1.64194
1.63737
1.63287
1.77414
1.76829
1.76247
1.75671
1.751
1.74536
1.73982
1.7345
1.72947
1.72483
1.72051
1.71616
1.71146
1.70653
1.70163
1.69676
1.69182
1.68679
1.68176
1.67673
1.67173
1.66676
1.66184
1.65697
1.65215
1.64739
1.64268
1.63801
1.6334
1.62886
1.77414
1.76829
1.76247
1.75671
1.75099
1.74535
1.73979
1.73443
1.72933
1.72453
1.71996
1.71531
1.71035
1.70523
1.70021
1.69526
1.69029
1.68525
1.68021
1.67518
1.67017
1.6652
1.66027
1.65539
1.65057
1.64579
1.64106
1.63639
1.63175
1.6272
1.77414
1.76829
1.76247
1.7567
1.75099
1.74534
1.73976
1.73435
1.72914
1.72416
1.71935
1.71451
1.70949
1.70435
1.69924
1.69418
1.68911
1.68399
1.67888
1.67377
1.66867
1.66359
1.65852
1.65349
1.64847
1.64349
1.63854
1.63361
1.62871
1.62387
1.77414
1.76829
1.76247
1.75671
1.75099
1.74535
1.73978
1.7344
1.72925
1.72438
1.71973
1.71508
1.71022
1.70521
1.70019
1.69517
1.69013
1.68502
1.67992
1.67482
1.66973
1.66465
1.65959
1.65456
1.64955
1.64457
1.63962
1.6347
1.6298
1.62496
1.77414
1.76829
1.76248
1.75671
1.751
1.74536
1.73982
1.7345
1.72948
1.72486
1.7206
1.71641
1.71197
1.70726
1.70244
1.69754
1.69256
1.68749
1.68241
1.67732
1.67224
1.66717
1.66212
1.6571
1.6521
1.64712
1.64217
1.63725
1.63235
1.62752
1.77414
1.76829
1.76248
1.75671
1.75101
1.74539