/*--------------------------------*- C++ -*----------------------------------*\
| =========                 |                                                 |
| \\      /  F ield         | OpenFOAM: The Open Source CFD Toolbox           |
|  \\    /   O peration     | Version:  2512                                  |
|   \\  /    A nd           | Website:  www.openfoam.com                      |
|    \\/     M anipulation  |                                                 |
\*---------------------------------------------------------------------------*/
FoamFile
{
    version     2.0;
    format      ascii;
    arch        "LSB;label=32;scalar=64";
    class       volScalarField;
    location    "200";
    object      omega;
}
// * * * * * * * * * * * * * * * * * * * * * * * * * * * * * * * * * * * * * //

dimensions      [0 0 -1 0 0 0 0];

internalField   nonuniform List<scalar> 
90398
(
16.0849
15.8156
15.5572
15.3107
15.0753
14.8524
14.6455
14.431
14.2408
14.0571
13.8865
13.733
13.5842
13.4411
13.314
13.1981
13.0942
13.0027
12.9209
12.8653
13.3247
19.7357
40.5747
74.5038
111.133
141.279
163.625
180.038
192.168
202.327
16.0849
15.8158
15.5578
15.3116
15.0766
14.8535
14.6455
14.4319
14.2415
14.0571
13.8892
13.7366
13.5883
13.4451
13.3178
13.2016
13.0974
13.0059
12.9266
12.9486
15.1765
29.3549
56.2974
88.622
120.21
146.187
165.991
180.954
192.315
201.969
16.0849
15.816
15.5584
15.3127
15.0775
14.8541
14.6432
14.4342
14.245
14.0612
13.8946
13.7439
13.597
13.4536
13.3259
13.2092
13.1051
13.0143
12.944
13.2445
19.1088
40.5863
70.688
101.667
128.54
150.48
167.653
181.056
191.541
200.648
16.085
15.8161
15.5593
15.3134
15.0779
14.854
14.6442
14.4409
14.2484
14.0661
13.9029
13.7541
13.6097
13.4673
13.3388
13.2212
13.1173
13.0289
12.9863
13.9701
24.5752
50.9338
81.8814
109.644
133.212
152.425
167.749
180.005
189.817
198.456
16.0851
15.8163
15.5601
15.3137
15.0775
14.8519
14.6431
14.4436
14.2515
14.0711
13.9102
13.7395
13.6016
13.487
13.3587
13.244
13.1501
13.0861
13.1293
15.2346
30.1491
58.4589
87.4899
113.043
134.523
152.127
166.362
177.931
187.328
195.603
16.0852
15.8164
15.5602
15.3148
15.0789
14.8485
14.6273
14.4417
14.2539
14.0552
13.9132
13.8005
13.6885
13.5608
13.4509
13.4023
13.4398
13.5791
13.9366
17.0521
33.6298
60.7377
87.8645
112.114
132.746
149.811
163.717
175.074
184.325
192.337
16.0852
15.8165
15.5597
15.3141
15.0796
14.8488
14.6258
14.4395
14.252
14.0984
14.0335
14.1627
14.2589
14.1838
14.4811
15.1958
16.1115
17.0831
18.1185
20.5366
32.8145
56.0353
82.2672
106.982
128.373
146.065
160.373
171.915
181.209
188.99
16.0852
15.8161
15.5566
15.3066
15.0745
14.8527
14.629
14.4303
14.2579
28.1677
27.7418
31.2026
34.0261
34.0919
24.9726
26.6812
27.868
28.6252
29.0696
29.6219
33.9848
50.0529
75.1658
101.368
124.383
143.118
157.912
169.547
178.732
186.095
16.0852
15.8161
15.5558
15.302
15.066
14.8498
14.6366
14.4387
28.5128
27.8621
31.4086
74.2664
96.4424
99.9146
53.0639
49.4636
46.231
43.2998
40.801
39.3356
41.6817
54.049
77.0977
102.934
125.778
144.088
158.276
169.218
177.73
184.266
16.0851
15.8164
15.5585
15.3068
15.0668
14.8494
14.6435
14.4455
28.5182
55.9233
68.3068
288.419
271.62
230.014
57.6963
51.5143
46.8175
43.0527
40.1008
39.1885
45.0385
62.5379
87.4425
112.179
132.993
149.305
161.772
171.252
178.509
183.81
16.0851
15.8163
15.5583
15.3065
15.0663
14.8486
14.6422
14.4438
28.519
56.0599
309.547
276.172
219.985
43.0099
39.2969
36.196
33.5791
32.0422
35.9122
51.9229
77.1552
103.423
126.025
143.854
157.39
167.521
175.054
180.664
184.546
16.0851
15.8158
15.5553
15.3011
15.0645
14.8476
14.633
14.4338
28.5011
27.9484
95.3427
185.161
141.987
96.6566
18.3165
18.0048
17.7677
17.8067
21.4745
38.8418
67.1551
96.1216
120.711
139.991
154.559
165.35
173.247
178.932
182.975
185.549
16.0851
15.8158
15.5558
15.3052
15.0722
14.8492
14.6234
14.4235
14.2457
28.1231
28.6438
29.847
28.4808
27.3495
13.9643
13.8749
13.8405
14.6957
24.9107
52.4086
83.3856
110.704
132.622
149.399
161.887
170.977
177.441
181.855
184.74
186.265
16.0851
15.816
15.5587
15.3124
15.0768
14.8444
14.6188
14.4282
14.2364
14.0736
13.937
13.781
13.6611
13.5389
13.4541
13.3828
13.3483
14.11
24.2053
55.0989
88.3777
116.278
137.983
154.253
166.126
174.541
180.282
183.917
185.976
186.669
16.0851
15.816
15.5592
15.3129
15.0758
14.8435
14.6194
14.4293
14.2358
14.03
13.8682
13.72
13.5843
13.4674
13.3669
13.2789
13.2208
13.7827
22.6629
53.5903
89.1064
118.173
140.415
156.871
168.697
176.883
182.243
185.355
186.793
186.811
16.085
15.8158
15.559
15.3119
15.0743
14.8468
14.6349
14.4307
14.2315
14.0425
13.8711
13.685
13.5408
13.4332
13.3189
13.2181
13.1422
13.5042
20.7577
50.0145
87.5362
117.875
140.962
157.954
170.056
178.292
183.508
186.282
187.252
186.732
16.0849
15.8158
15.5585
15.3117
15.075
14.8491
14.6362
14.4282
14.2286
14.0362
13.8593
13.6973
13.5462
13.4058
13.284
13.1748
13.0867
13.291
18.8502
45.4542
84.3184
115.853
139.954
157.739
170.374
178.877
184.132
186.739
187.398
186.472
16.0849
15.8157
15.5577
15.3113
15.075
14.8496
14.6356
14.4219
14.2258
14.0322
13.8526
13.6889
13.5324
13.3844
13.256
13.1408
13.0442
13.1326
17.08
40.2724
79.5081
112.207
137.493
156.299
169.703
178.68
184.141
186.737
187.28
186.073
16.0849
15.8156
15.5573
15.3106
15.0745
14.8496
14.6386
14.4202
14.2229
14.0291
13.8493
13.684
13.5239
13.3714
13.2375
13.1172
13.0134
13.0249
15.6373
35.0909
73.725
107.358
133.866
153.82
168.145
177.75
183.569
186.298
186.898
185.565
16.0849
15.8156
15.557
15.3101
15.0738
14.8491
14.6391
14.4196
14.2225
14.0296
13.8478
13.6818
13.5198
13.3639
13.2255
13.1006
12.9917
12.9572
14.6222
30.6798
68.5532
102.643
130.026
150.967
166.13
176.349
182.578
185.537
186.352
185.035
1.93937
2.08078
2.20698
2.32087
2.42451
2.51935
2.60958
2.69308
2.7727
2.84776
2.91763
2.97818
3.02818
3.06798
3.10409
3.13976
3.17676
3.21558
3.25042
3.28684
3.41161
4.31675
7.78008
14.9893
23.8497
32.1541
39.6242
45.9781
51.2639
55.2849
1.93938
2.08079
2.20706
2.32101
2.42456
2.51991
2.6115
2.69638
2.77814
2.85576
2.9292
2.99265
3.04399
3.08364
3.1194
3.15506
3.19238
3.23153
3.26707
3.3163
3.67454
5.68021
10.8166
18.3645
26.3684
34.0659
41.0085
46.9661
51.9686
55.8133
1.93939
2.08089
2.20724
2.3214
2.42494
2.52134
2.61533
2.70327
2.78968
2.87418
2.95663
3.02742
3.08174
3.12087
3.15587
3.19147
3.22978
3.26943
3.30709
3.40131
4.1824
7.48801
13.7039
21.1907
28.7041
35.856
42.264
47.7998
52.496
56.1553
1.93941
2.08102
2.20752
2.32201
2.4259
2.52355
2.62089
2.71393
2.80843
2.90844
3.00902
3.09238
3.15399
3.19327
3.22694
3.26318
3.30421
3.34724
3.3948
3.59465
4.96644
9.38908
15.99
23.2215
30.3967
37.0901
43.0746
48.2797
52.7355
56.2572
1.93943
2.08116
2.20791
2.32282
2.42695
2.52505
2.62711
2.72847
2.83879
2.96286
3.08678
3.19771
3.27071
3.31368
3.35027
3.39563
3.45392
3.52524
3.62573
4.02617
6.05119
11.039
17.5632
24.5835
31.437
37.7813
43.4639
48.4411
52.7334
56.1707
1.93948
2.0813
2.20825
2.32369
2.42879
2.52357
2.63027
2.74803
2.88409
3.04714
3.23849
3.40628
3.53383
3.59544
3.664
3.7828
3.96339
4.20586
4.55255
5.32275
7.83417
12.7511
18.992
25.6436
32.1481
38.1983
43.6533
48.4668
52.642
56.0201
1.93938
2.08128
2.20766
2.32315
2.43146
2.52701
2.63131
2.77438
2.94525
3.20317
3.59591
4.02827
4.37428
4.54197
4.90103
5.55899
6.41404
7.41431
8.52481
9.78117
12.0245
16.0374
21.395
27.3085
33.2438
38.8803
44.0429
48.6518
52.6795
55.9662
1.93922
2.0806
2.20455
2.31727
2.43363
2.53796
2.64338
2.80722
3.05284
3.44735
4.63234
7.07444
9.87799
11.7419
15.6222
17.2617
19.1378
20.9883
22.5781
23.6602
24.3793
25.5642
27.9132
31.487
35.8609
40.5165
45.0653
49.2781
53.0371
56.1471
1.93919
2.08042
2.20432
2.31521
2.43115
2.54866
2.66762
2.85003
3.17238
4.49034
8.93092
28.6757
59.6582
74.5281
84.5736
75.3566
68.3397
62.4538
57.2237
52.3832
47.5266
42.0961
38.2875
37.6003
39.4981
42.7878
46.5599
50.2953
53.7305
56.6196
1.93919
2.08091
2.20591
2.31641
2.42602
2.54921
2.67952
2.87808
3.29365
5.62014
39.9174
336.975
333.545
243.558
152.903
112.69
89.4579
73.8803
62.674
54.1794
47.0719
41.2236
38.1697
38.2924
40.6431
44.0826
47.8216
51.4252
54.6807
57.3964
1.93919
2.08089
2.20585
2.31635
2.42593
2.54891
2.679
2.87806
3.33196
7.2311
662.753
140.372
101.635
79.4056
64.7183
53.7836
44.801
37.4719
33.8114
34.0751
36.8886
40.8533
45.0845
49.1173
52.7403
55.8762
58.4753
1.93918
2.08036
2.20425
2.31512
2.43069
2.54745
2.66536
2.84947
3.20889
5.70482
45.0873
165.885
138.97
136.314
42.2864
37.2291
32.6976
28.4253
24.3458
21.4377
21.9934
25.6219
30.7044
36.1701
41.4544
46.2717
50.5005
54.1091
57.1233
59.6876
1.9392
2.08049
2.20444
2.31678
2.43252
2.53578
2.63938
2.80608
3.0559
3.6574
6.23101
7.86287
7.61291
7.02002
5.33031
5.34782
5.23571
5.28491
6.55598
10.711
16.8142
23.6395
30.3937
36.745
42.4881
47.512
51.7939
55.3542
58.2556
60.8136
1.93936
2.08113
2.20726
2.32232
2.42987
2.52409
2.62585
2.76292
2.93087
3.17451
3.45655
3.55462
3.5932
3.58972
3.56499
3.53833
3.51327
3.5983
4.72657
9.39343
16.2552
23.6619
30.8302
37.4614
43.3862
48.5247
52.8556
56.3956
59.2144
61.7914
1.93945
2.08112
2.20777
2.32267
2.42686
2.52
2.62371
2.73566
2.86206
3.00955
3.14373
3.1943
3.2298
3.24711
3.25369
3.25603
3.25572
3.33854
4.29417
8.71085
15.935
23.6502
31.0873
37.9272
44.0109
49.2597
53.6615
57.22
59.9975
62.6177
1.9394
2.08095
2.20736
2.32164
2.42473
2.52104
2.61991
2.71531
2.81352
2.91841
3.01163
3.06023
3.10079
3.12849
3.14816
3.16097
3.16759
3.23594
4.02654
7.98732
15.3984
23.3075
30.9704
38.0248
44.3084
49.7215
54.2279
57.836
60.6072
63.2967
1.93938
2.08079
2.20691
2.32072
2.42347
2.51919
2.61319
2.70037
2.78418
2.86421
2.93146
2.97692
3.021
3.05712
3.08524
3.10437
3.11447
3.16751
3.80577
7.22008
14.6557
22.6432
30.4908
37.7754
44.2902
49.906
54.5625
58.2565
61.0543
63.8379
1.93935
2.08065
2.20659
2.32002
2.42235
2.51674
2.60735
2.68951
2.76608
2.83403
2.88994
2.93417
2.97411
3.01002
3.04115
3.0648
3.07737
3.11724
3.61127
6.43585
13.6763
21.6797
29.6858
37.2144
43.9916
49.8395
54.6772
58.487
61.3691
64.2589
1.93934
2.08054
2.20638
2.31958
2.42188
2.51516
2.60333
2.6825
2.75485
2.81735
2.86905
2.91326
2.95278
2.98807
3.0201
3.04553
3.05841
3.08721
3.45306
5.71147
12.5758
20.5251
28.6621
36.4303
43.4794
49.5718
54.6002
58.5399
61.5661
64.5666
1.93933
2.08052
2.20627
2.31938
2.42173
2.51444
2.60119
2.67894
2.74929
2.80973
2.86116
2.90543
2.94446
2.9792
3.01147
3.03717
3.04996
3.07141
3.3373
5.12528
11.5567
19.4315
27.6668
35.6227
42.8934
49.188
54.3757
58.4312
61.6056
64.7374
1.7777
1.77821
1.78102
1.78571
1.79207
1.79989
1.80922
1.82016
1.83288
1.84725
1.8628
1.87757
1.89107
1.90276
1.91487
1.92826
1.94313
1.96114
1.98394
2.05998
2.69675
3.74469
5.55887
9.07835
13.7222
18.2431
22.2816
25.8772
29.009
31.41
1.7777
1.77822
1.78102
1.78571
1.79212
1.80001
1.80951
1.82076
1.83405
1.84934
1.86605
1.88143
1.89571
1.90726
1.91923
1.93276
1.94788
1.96654
1.99786
2.23869
3.26911
4.43975
6.93004
10.7519
15.1037
19.236
23.0618
26.5056
29.5258
31.8552
1.7777
1.77822
1.78104
1.78573
1.79225
1.80029
1.81013
1.82209
1.83671
1.85413
1.87299
1.89051
1.906
1.91743
1.92926
1.94321
1.95888
1.97931
2.03679
2.59343
3.64347
5.34503
8.48934
12.4093
16.3833
20.2529
23.8691
27.1477
30.0418
32.2924
1.7777
1.77823
1.78107
1.78578
1.79243
1.80071
1.81111
1.82429
1.84135
1.86185
1.88523
1.90611
1.92494
1.9373
1.94973
1.96517
1.98329
2.00901
2.12776
3.01763
4.12141
6.43663
9.89619
13.6327
17.4303
21.1148
24.5614
27.7005
30.4865
32.6729
1.7777
1.77824
1.7811
1.78586
1.79218
1.80137
1.81257
1.8277
1.84849
1.87532
1.90915
1.93799
1.96502
1.98023
1.99538
2.0158
2.043
2.08933
2.32872
3.47127
4.90712
7.65924
11.102
14.7051
18.343
21.8586
25.1561
28.1756
30.8705
33.0068
1.7777
1.77825
1.78112
1.78595
1.79209
1.80207
1.81436
1.83256
1.85924
1.90238
1.9681
2.02128
2.06479
2.08755
2.11348
2.16164
2.24474
2.39302
2.85514
4.14342
6.26094
9.26982
12.5343
15.9312
19.3378
22.6439
25.771
28.6613
31.2616
33.3458
1.7777
1.77825
1.78102
1.78584
1.79256
1.80236
1.81672
1.83869
1.87863
1.96308
2.11357
2.26601
2.36688
2.40997
2.51654
2.80149
3.27974
3.95215
4.98758
6.82964
9.43658
12.1721
14.9467
17.8173
20.7594
23.7043
26.568
29.2735
31.7446
33.7535
1.7777
1.77821
1.78102
1.78582
1.79238
1.80286
1.81964
1.84666
1.91504
2.11939
2.27829
2.94036
3.48805
3.84938
6.05116
8.1479
10.4378
12.564
14.2221
15.8437
17.2544
18.2996
19.3942
20.8885
22.8597
25.1687
27.6249
30.0678
32.3645
34.2684
1.7777
1.7782
1.78093
1.78611
1.79274
1.80362
1.82192
1.85669
1.91982
2.27419
3.3831
7.35729
24.0919
26.0118
58.7764
54.2838
50.6571
47.106
42.5018
37.5398
32.1363
27.6781
25.0283
24.2958
25.0329
26.6658
28.7371
30.9445
33.0829
34.8859
1.7777
1.77824
1.78088
1.7857
1.7927
1.80393
1.8228
1.86551
1.95924
2.54822
12.6998
528.271
459.483
310.064
160.865
118.912
94.0253
76.9626
62.461
49.7322
38.2341
30.1529
26.1003
25.0489
25.7933
27.4734
29.5597
31.7441
33.8326
35.5858
1.7777
1.77824
1.78087
1.78568
1.79264
1.80378
1.82243
1.86475
1.97444
2.8693
279.263
276.058
153.816
111.04
85.2597
66.7938
50.2689
36.8573
27.7839
23.5958
22.667
23.5942
25.4734
27.7705
30.1685
32.4859
34.6056
36.3661
1.7777
1.77819
1.78091
1.78606
1.79261
1.80326
1.82093
1.85471
1.92997
2.55177
5.79873
280.359
518.386
250.694
36.7631
32.0587
27.6042
22.678
18.2826
15.7926
15.7203
17.1884
19.5035
22.2633
25.1777
28.0528
30.7581
33.2185
35.381
37.1762
1.7777
1.7782
1.78099
1.78574
1.79216
1.80228
1.81815
1.84422
1.90952
2.1138
2.45055
3.7904
4.09257
4.02082
3.58082
3.86303
3.97199
4.38671
5.75878
8.25171
11.3294
14.7324
18.2689
21.8282
25.27
28.4763
31.3785
33.9367
36.131
37.9585
1.7777
1.77824
1.78098
1.78572
1.79226
1.80164
1.81495
1.83542
1.87063
1.94463
2.06348
2.14581
2.19398
2.21541
2.21654
2.21966
2.27083
2.8124
4.06486
6.63822
10.2431
14.0749
17.9995
21.8689
25.5484
28.942
31.9764
34.6022
36.8256
38.6799
1.7777
1.77823
1.78106
1.7858
1.79174
1.80125
1.81246
1.82823
1.85174
1.88569
1.93115
1.958
1.98478
2.00338
2.01225
2.01871
2.06538
2.63079
3.82606
6.17856
9.89645
13.8637
17.97
22.0192
25.8522
29.3666
32.4971
35.1848
37.438
39.3217
1.7777
1.77823
1.78104
1.7857
1.79179
1.80048
1.81062
1.82347
1.84029
1.86132
1.88378
1.90012
1.91737
1.9324
1.94422
1.95501
1.99845
2.54561
3.87623
5.95866
9.64785
13.6762
17.8911
22.0761
26.0598
29.701
32.9168
35.6649
37.9552
39.8748
1.7777
1.77821
1.781
1.7856
1.79201
1.79979
1.80916
1.82025
1.83331
1.84796
1.86285
1.87545
1.88858
1.90163
1.9139
1.92634
1.96376
2.45762
3.91498
5.74107
9.30759
13.3848
17.6839
21.9939
26.1226
29.9024
33.2223
36.033
38.3704
40.3336
1.7777
1.77821
1.78097
1.78554
1.79181
1.79934
1.80818
1.81821
1.82929
1.84079
1.85159
1.86176
1.87394
1.8856
1.89767
1.91092
1.94224
2.3494
3.84393
5.46627
8.84852
12.9664
17.3407
21.7779
26.05
29.9658
33.3981
36.2797
38.6791
40.692
1.7777
1.7782
1.78096
1.78552
1.79167
1.79905
1.80757
1.817
1.82706
1.83704
1.8463
1.85549
1.86605
1.87744
1.88945
1.90313
1.9293
2.23107
3.66724
5.15083
8.32216
12.4597
16.9005
21.4567
25.8652
29.9059
33.4414
36.3921
38.8687
40.9357
1.7777
1.7782
1.78095
1.78552
1.79161
1.79891
1.80727
1.81643
1.82602
1.83534
1.84422
1.85305
1.86282
1.8741
1.88601
1.89982
1.9225
2.12314
3.43774
4.86073
7.83784
11.9625
16.4668
21.0996
25.6025
29.7349
33.3483
36.3569
38.9031
41.0232
1.77421
1.76857
1.76317
1.75804
1.75325
1.74893
1.74516
1.74218
1.74026
1.73959
1.73999
1.74073
1.74117
1.74156
1.74305
1.74652
1.75307
1.76452
1.81575
2.41274
3.98009
5.61574
6.76814
8.96118
11.8935
14.8202
17.5148
19.9856
22.1832
23.8557
1.77421
1.76857
1.76317
1.75804
1.75326
1.74894
1.74521
1.74233
1.74061
1.74029
1.74116
1.74206
1.74267
1.74282
1.74411
1.74759
1.75433
1.76997
1.97203
3.06719
4.77832
5.92112
7.4141
9.82375
12.6745
15.4352
18.0383
20.4424
22.5885
24.2283
1.77421
1.76857
1.76317
1.75804
1.75328
1.74899
1.74535
1.74269
1.74146
1.74202
1.74394
1.74546
1.74652
1.74629
1.74732
1.75092
1.75834
1.78896
2.2484
3.72937
5.3499
6.39482
8.34742
10.8628
13.5167
16.1343
18.6386
20.9638
23.0495
24.6518
1.77422
1.76858
1.76317
1.75805
1.75331
1.74907
1.74559
1.74333
1.74303
1.74514
1.74924
1.75265
1.7542
1.75383
1.75497
1.75931
1.76887
1.85083
2.64629
4.36416
5.72218
7.13257
9.306
11.7461
14.2925
16.8217
19.2416
21.4941
23.5229
25.0911
1.77422
1.76858
1.76318
1.75807
1.75334
1.74918
1.74595
1.74439
1.7457
1.75106
1.76064
1.76774
1.77242
1.77276
1.77514
1.78177
1.79715
1.9911
3.12216
4.94246
6.14104
7.98716
10.2198
12.6144
15.0833
17.5183
19.8507
22.0315
24.0042
25.54
1.77422
1.76858
1.76319
1.75808
1.75336
1.74935
1.74648
1.74607
1.75014
1.76378
1.78783
1.80732
1.81742
1.82116
1.82815
1.84352
1.87926
2.22431
3.65175
5.5071
7.04441
9.14558
11.3582
13.6641
16.0009
18.303
20.52
22.6114
24.517
26.0139
1.77422
1.76858
1.7632
1.75809
1.7534
1.74955
1.74723
1.74851
1.759
1.79298
1.85834
1.92187
1.95107
1.96147
1.99003
2.06325
2.21027
2.75345
4.38477
6.2799
8.71792
10.9504
13.0332
15.0961
17.1734
19.2552
21.3031
23.2711
25.0878
26.5318
1.77422
1.76858
1.76319
1.75811
1.75345
1.74976
1.74815
1.75194
1.77582
1.86063
1.93593
2.23796
2.43078
2.50215
2.90743
3.44545
4.17373
5.15579
7.01972
9.74475
12.1446
13.9143
15.4374
16.955
18.5957
20.3588
22.187
24.005
25.7175
27.098
1.77422
1.76859
1.76319
1.75812
1.75352
1.74996
1.74901
1.75638
1.8002
2.00577
2.28785
4.21852
6.48848
6.28396
12.6925
14.7195
16.4055
16.8162
17.2603
17.3852
17.3501
17.4938
17.909
18.7077
19.8958
21.3822
23.0374
24.7405
26.3705
27.697
1.77423
1.7686
1.76321
1.75811
1.75352
1.74995
1.74961
1.76023
1.82768
1.9989
3.54005
207.065
278.134
131.115
71.2485
60.8809
52.2614
42.3078
32.5087
24.5058
20.4028
18.8689
18.6926
19.3327
20.5142
22.0261
23.6969
25.3962
27.006
28.31
1.77423
1.7686
1.76321
1.75811
1.7535
1.74987
1.74936
1.75963
1.82592
2.04751
4.04565
336.544
514.648
256.135
44.4714
38.8832
33.1354
25.8073
20.5431
17.474
16.4937
16.6449
17.5069
18.8588
20.5212
22.3376
24.1861
25.9751
27.6176
28.9342
1.77422
1.76859
1.76319
1.7581
1.75346
1.74976
1.74837
1.75455
1.79514
2.00132
2.5996
75.1249
94.2531
43.1815
6.43489
6.51192
6.2721
6.977
8.77251
10.5643
12.2814
14.1064
16.0974
18.2289
20.4121
22.5668
24.6211
26.5209
28.2137
29.5534
1.77422
1.76858
1.76318
1.75807
1.75335
1.74947
1.74727
1.74961
1.76948
1.84848
1.98385
2.58635
2.75868
2.72942
2.40074
2.40185
2.61146
3.87617
5.60931
7.90386
10.3149
12.8024
15.3563
17.9348
20.4546
22.8522
25.0642
27.0538
28.7911
30.15
1.77422
1.76858
1.76318
1.75805
1.75328
1.7492
1.74624
1.74607
1.75292
1.78005
1.83442
1.88676
1.92122
1.93526
1.93313
1.93931
2.29168
3.71256
5.43203
7.19934
9.66335
12.3342
15.1257
17.9258
20.6373
23.1884
25.5095
27.5646
29.3353
30.7079
1.77422
1.76858
1.76318
1.75803
1.75322
1.74896
1.74548
1.74358
1.74499
1.75301
1.76924
1.7849
1.80153
1.81279
1.81689
1.82838
2.16657
3.6256
5.47902
7.02053
9.45768
12.1825
15.0933
18.031
20.8756
23.5293
25.9304
28.033
29.8301
31.2137
1.77422
1.76857
1.76316
1.75801
1.75318
1.74878
1.74496
1.74208
1.74085
1.74235
1.74658
1.75218
1.75987
1.76723
1.77282
1.7853
2.07441
3.50442
5.50018
6.94503
9.3426
12.0962
15.0785
18.1221
21.0791
23.8306
26.298
28.4396
30.2624
31.6565
1.77422
1.76857
1.76316
1.758
1.75315
1.74866
1.74463
1.74121
1.73867
1.73735
1.73739
1.73863
1.74193
1.74682
1.75277
1.76521
1.99042
3.33083
5.4357
6.83451
9.16899
11.9602
15.0024
18.1409
21.2037
24.0512
26.5901
28.7714
30.6197
32.0262
1.77422
1.76857
1.76315
1.75799
1.75312
1.74858
1.74442
1.74071
1.73754
1.73497
1.73299
1.73215
1.73344
1.7368
1.74264
1.75464
1.91563
3.10472
5.27429
6.66263
8.91171
11.7328
14.8416
18.0745
21.2421
24.1769
26.7848
29.0121
30.889
32.3114
1.77422
1.76857
1.76315
1.75798
1.75309
1.74853
1.74431
1.74045
1.73698
1.73385
1.73107
1.72917
1.72925
1.73183
1.73753
1.74916
1.85287
2.8491
5.02941
6.4811
8.59904
11.415
14.6015
17.9326
21.1889
24.2011
26.8676
29.1399
31.0505
32.4923
1.77422
1.76858
1.76316
1.75799
1.7531
1.74853
1.74427
1.74035
1.73676
1.73342
1.73036
1.72804
1.72758
1.72984
1.73551
1.74701
1.80796
2.60896
4.74581
6.35829
8.30057
11.062
14.2982
17.7237
21.0438
24.1092
26.8176
29.1263
31.0685
32.5307
1.77414
1.76828
1.76248
1.75675
1.75113
1.74568
1.74051
1.73578
1.73171
1.72847
1.72601
1.72391
1.7218
1.71991
1.71918
1.7208
1.72616
1.74159
1.95249
3.05026
4.92726
6.43896
7.72442
9.53988
11.696
13.8084
15.8374
17.7369
19.4447
20.7265
1.77414
1.76828
1.76248
1.75675
1.75113
1.74569
1.74053
1.73585
1.73188
1.72882
1.7266
1.72464
1.72243
1.7203
1.71936
1.72094
1.72698
1.76907
2.31062
3.90421
5.70443
6.84552
8.21233
10.0862
12.1929
14.2529
16.2438
18.1125
19.7952
21.0607
1.77414
1.76828
1.76248
1.75675
1.75113
1.7457
1.74059
1.73602
1.73232
1.72975
1.72815
1.7266
1.72433
1.72182
1.7206
1.72223
1.73071
1.86607
2.80199
4.64828
6.18068
7.29889
8.8944
10.7895
12.7951
14.7979
16.742
18.5727
20.2249
21.4712
1.77414
1.76828
1.76248
1.75675
1.75114
1.74574
1.7407
1.73635
1.73314
1.73152
1.73124
1.73065
1.72851
1.72568
1.72435
1.7265
1.74233
2.04185
3.36834
5.28484
6.5541
7.91657
9.60648
11.4658
13.4242
15.3885
17.2908
19.0829
20.7032
21.9308
1.77414
1.76828
1.76249
1.75676
1.75115
1.74579
1.74088
1.73688
1.73458
1.73482
1.73753
1.73925
1.73802
1.7354
1.73466
1.73841
1.77466
2.30427
3.94623
5.79081
7.01006
8.59359
10.323
12.1863
14.1133
16.0285
17.8829
19.6328
21.2178
22.4251
1.77414
1.76828
1.76249
1.75676
1.75117
1.74586
1.74114
1.73775
1.73705
1.74134
1.75114
1.75872
1.76042
1.75973
1.7614
1.76925
1.8564
2.63796
4.49899
6.22859
7.71004
9.43224
11.2082
13.0472
14.9103
16.7518
18.5361
20.2289
21.7696
22.9504
1.77414
1.76828
1.76249
1.75677
1.7512
1.74595
1.74151
1.73907
1.7414
1.75543
1.78356
1.80585
1.81722
1.82259
1.83119
1.85144
2.00634
3.01991
5.01219
6.74334
8.70864
10.5745
12.3559
14.1075
15.8465
17.5716
19.2588
20.8753
22.3588
23.5042
1.77414
1.76829
1.76248
1.75677
1.75122
1.74606
1.74197
1.74085
1.74931
1.78343
1.86593
1.95598
1.99528
2.0145
2.05077
2.12951
2.35217
3.46876
5.5166
7.89009
10.2246
12.0876
13.7403
15.3061
16.8674
18.4433
20.0172
21.5502
22.9712
24.0767
1.77414
1.76831
1.7625
1.75679
1.75124
1.74615
1.74239
1.74295
1.76009
1.8343
1.92658
2.37386
2.62482
2.71072
3.00491
3.35567
3.74538
4.95503
7.33769
10.0346
12.0586
13.6303
15.0105
16.364
17.7689
19.2352
20.7299
22.2044
23.5781
24.6501
1.77415
1.76831
1.76252
1.75682
1.75127
1.74618
1.7426
1.7445
1.76934
1.8833
2.1234
3.94423
5.22314
6.07949
7.5479
7.90945
7.56862
8.23954
9.98438
11.734
13.1026
14.3394
15.5839
16.9081
18.3276
19.8136
21.3206
22.7936
24.1539
25.2094
1.77415
1.76831
1.76252
1.75681
1.75126
1.74613
1.74243
1.74397
1.76824
1.8805
2.17942
4.28933
5.62573
6.93493
4.69598
4.92869
5.08759
6.42471
8.55457
10.6229
12.295
13.8219
15.35
16.9313
18.5575
20.1933
21.7948
23.3166
24.6939
25.7511
1.77414
1.76831
1.7625
1.75677
1.75119
1.74599
1.74193
1.74159
1.75642
1.8278
1.97956
2.74457
2.96081
2.91586
2.47908
2.50424
2.88186
4.35246
6.67158
9.03778
11.0613
12.9807
14.8823
16.7855
18.6667
20.4888
22.2109
23.7992
25.2058
26.2691
1.77414
1.76829
1.76247
1.75674
1.75114
1.74583
1.74131
1.7391
1.74484
1.7747
1.852
1.9351
1.97866
1.98993
1.98044
2.02921
2.71862
4.51948
6.38446
8.28488
10.3472
12.4597
14.6044
16.7398
18.8159
20.7875
22.6121
24.2591
25.6919
26.7584
1.77414
1.76827
1.76247
1.75674
1.7511
1.74568
1.74076
1.73719
1.73709
1.74705
1.77101
1.79423
1.81596
1.82735
1.82801
1.89027
2.61983
4.525
6.43637
8.05942
10.0809
12.2639
14.5405
16.8229
19.0349
21.113
23.0108
24.6977
26.1472
27.212
1.77413
1.76828
1.76247
1.75672
1.75106
1.74555
1.74036
1.73589
1.73309
1.7339
1.74023
1.74965
1.76044
1.7685
1.77241
1.82639
2.52638
4.47982
6.48607
8.01941
10.0156
12.2304
14.5869
16.9699
19.2831
21.4401
23.3925
25.1064
26.5638
27.6217
1.77414
1.76828
1.76247
1.75671
1.75103
1.74547
1.7401
1.73512
1.73095
1.72835
1.72814
1.73035
1.73509
1.74043
1.74554
1.78506
2.41296
4.37368
6.51653
8.01508
9.99248
12.2287
14.6467
17.1146
19.5112
21.7378
23.7327
25.4677
26.9297
27.979
1.77414
1.76828
1.76247
1.75671
1.75101
1.74541
1.73994
1.73469
1.72985
1.72573
1.72281
1.72166
1.72299
1.7265
1.73216
1.761
2.28315
4.19253
6.49537
7.97877
9.92373
12.1811
14.6554
17.2096
19.6855
21.9768
24.0124
25.7668
27.2325
28.2746
1.77414
1.76828
1.76247
1.7567
1.75099
1.74537
1.73984
1.73446
1.72929
1.72449
1.72034
1.71749
1.71691
1.71915
1.7249
1.74639
2.14962
3.93768
6.39819
7.90835
9.79633
12.0543
14.586
17.2306
19.7904
22.137
24.2111
25.9862
27.4584
28.4967
1.77414
1.76828
1.76247
1.7567
1.75099
1.74535
1.7398
1.73435
1.72904
1.72395
1.71927
1.71559
1.71399
1.71548
1.72119
1.73852
2.02787
3.63153
6.2159
7.86114
9.63804
11.8633
14.4363
17.1638
19.8095
22.203
24.308
26.1038
27.587
28.6266
1.77414
1.76828
1.76248
1.75671
1.751
1.74536
1.73979
1.73432
1.72896
1.72375
1.71886
1.71484
1.7128
1.71398
1.71972
1.73512
1.93351
3.3185
5.97319
7.84456
9.47608
11.6466
14.2306
17.0121
19.7159
22.1494
24.2749
26.0907
27.588
28.6337
1.77413
1.76827
1.76246
1.75669
1.75102
1.74549
1.74018
1.73522
1.73078
1.727
1.72388
1.72118
1.71866
1.71655
1.71569
1.71731
1.7233
1.76219
2.24097
3.80496
5.8743
7.34151
8.60234
10.1939
11.9237
13.6164
15.2746
16.8455
18.2647
19.3132
1.77413
1.76827
1.76246
1.75669
1.75102
1.74549
1.74019
1.73525
1.73087
1.7272
1.72421
1.72156
1.71893
1.7166
1.71556
1.71718
1.72587
1.86742
2.83252
4.77884
6.58993
7.683
8.99449
10.5996
12.3045
13.9813
15.6238
17.1816
18.5884
19.629
1.77413
1.76827
1.76246
1.75669
1.75102
1.7455
1.74023
1.73536
1.73114
1.72776
1.72513
1.72269
1.71994
1.71729
1.716
1.71787
1.73687
2.07555
3.48964
5.54805
7.01329
8.12108
9.53723
11.1289
12.7855
14.4472
16.0712
17.6125
19.0043
20.0356
1.77413
1.76827
1.76246
1.75669
1.75103
1.74552
1.74029
1.73556
1.73164
1.72882
1.72693
1.72498
1.72218
1.71921
1.71779
1.72066
1.77656
2.39958
4.16939
6.15609
7.3507
8.64805
10.1033
11.6816
13.3299
14.9807
16.5885
18.1114
19.4872
20.5089
1.77413
1.76827
1.76246
1.75669
1.75103
1.74555
1.7404
1.73588
1.73249
1.73069
1.73032
1.72949
1.72703
1.72408
1.72302
1.72831
1.85491
2.80349
4.8012
6.60907
7.79182
9.2006
10.6985
12.3001
13.9435
15.5762
17.1624
18.6638
20.0192
21.0289
1.77413
1.76827
1.76246
1.75669
1.75104
1.74559
1.74055
1.73638
1.73387
1.73404
1.73699
1.73888
1.73785
1.73589
1.73622
1.74702
1.98412
3.24558
5.36311
6.97907
8.34787
9.84694
11.4104
13.021
14.6413
16.2412
17.791
19.2607
20.5889
21.5813
1.77414
1.76827
1.76245
1.7567
1.75106
1.74565
1.74076
1.73711
1.73609
1.7403
1.7508
1.759
1.76202
1.76366
1.76765
1.78956
2.16487
3.69834
5.86529
7.37948
9.01595
10.6405
12.2526
13.8462
15.4191
16.9658
18.4657
19.8912
21.1832
22.1521
1.77415
1.76828
1.76245
1.7567
1.75107
1.7457
1.741
1.73805
1.73945
1.75217
1.78023
1.8021
1.8152
1.82347
1.83339
1.87386
2.39038
4.12272
6.30208
7.95412
9.84036
11.5581
13.1719
14.7154
16.2249
17.7067
19.151
20.5303
21.7827
22.7246
1.77415
1.7683
1.76248
1.7567
1.75108
1.74575
1.74121
1.73897
1.744
1.76941
1.83211
1.89704
1.93111
1.94646
1.96681
2.03001
2.60994
4.4116
6.55517
8.71024
10.6987
12.4173
13.9917
15.4871
16.9486
18.3897
19.7965
21.1423
22.3633
23.2805
1.77415
1.7683
1.7625
1.75673
1.7511
1.74575
1.7413
1.73949
1.74747
1.78547
1.89321
1.99797
2.07484
2.09697
2.14224
2.22401
2.7155
4.54215
6.93925
9.31663
11.2447
12.9266
14.4963
16.007
17.491
18.948
20.3609
21.7005
22.9066
23.8063
1.77415
1.7683
1.7625
1.75673
1.75109
1.74571
1.74117
1.73915
1.74661
1.78405
1.8919
1.9875
2.05111
2.06557
2.07859
2.1742
3.00733
5.0337
7.1202
9.3208
11.2233
12.9747
14.6481
16.2678
17.8505
19.3822
20.8416
22.2016
23.4081
24.2978
1.77415
1.7683
1.76247
1.75669
1.75103
1.74562
1.74086
1.73805
1.74172
1.76528
1.82664
1.88956
1.92569
1.93539
1.93268
2.07063
3.08723
5.22744
7.21652
9.08811
10.972
12.8248
14.6403
16.4074
18.1172
19.745
21.2676
22.658
23.8713
24.752
1.77415
1.76828
1.76244
1.75667
1.751
1.74551
1.74049
1.73677
1.73656
1.74698
1.77418
1.79949
1.82099
1.83063
1.83205
1.99358
3.09658
5.32062
7.33084
8.97613
10.823
12.7353
14.6653
16.5608
18.3822
20.0941
21.6698
23.0839
24.2997
25.1681
1.77414
1.76826
1.76244
1.75666
1.75097
1.74541
1.74015
1.73566
1.73305
1.73488
1.74406
1.7564
1.76883
1.77655
1.7807
1.93964
3.06656
5.36706
7.42978
8.98699
10.8112
12.7592
14.7681
16.7578
18.6668
20.4442
22.0573
23.4843
24.6938
25.5443
1.77413
1.76827
1.76245
1.75666
1.75094
1.74532
1.7399
1.7349
1.73087
1.72885
1.73025
1.73475
1.74137
1.74713
1.75294
1.89391
2.99208
5.35484
7.52416
9.05062
10.8703
12.8444
14.91
16.972
18.949
20.7778
22.4182
23.8502
25.0481
25.8768
1.77413
1.76827
1.76245
1.75665
1.75092
1.74526
1.73972
1.73442
1.72961
1.7258
1.72378
1.72414
1.72711
1.73149
1.73822
1.85147
2.86455
5.26853
7.59299
9.11468
10.9286
12.9247
15.0448
17.1765
19.2115
21.0783
22.7381
24.1701
25.354
26.1604
1.77413
1.76827
1.76244
1.75664
1.7509
1.74522
1.73961
1.73414
1.72893
1.72423
1.72058
1.71872
1.71941
1.72273
1.72987
1.81322
2.70032
5.0958
7.61235
9.15301
10.9473
12.9538
15.1243
17.3313
19.429
21.3285
23.0005
24.4315
25.602
26.3883
1.77414
1.76827
1.76244
1.75664
1.75089
1.74519
1.73955
1.73398
1.72857
1.72345
1.71899
1.71591
1.7152
1.7177
1.72493
1.78139
2.51242
4.83756
7.56244
9.18927
10.9399
12.939
15.1443
17.4171
19.5796
21.5089
23.1906
24.6203
25.7808
26.5516
1.77413
1.76827
1.76244
1.75664
1.75089
1.74518
1.73951
1.7339
1.72839
1.72308
1.71823
1.71452
1.71301
1.71496
1.72214
1.75686
2.31951
4.5016
7.43152
9.26731
10.9242
12.8942
15.1128
17.4251
19.6365
21.5971
23.2873
24.718
25.8748
26.6357
1.77414
1.76828
1.76245
1.75665
1.7509
1.74519
1.73952
1.7339
1.72835
1.72297
1.71797
1.71399
1.71216
1.71391
1.72115
1.74628
2.15515
4.13596
7.22428
9.32669
10.8773
12.8039
15.0136
17.34
19.5768
21.5609
23.2612
24.698
25.8588
26.6177
1.77413
1.76827
1.76246
1.75669
1.75102
1.74547
1.74012
1.73507
1.73047
1.72643
1.72298
1.72
1.71738
1.71535
1.71469
1.71662
1.72451
1.827
2.62969
4.53987
6.6816
8.07577
9.34578
10.8094
12.2982
13.7613
15.2004
16.5697
17.8055
18.7052
1.77413
1.76827
1.76246
1.75668
1.75101
1.74547
1.74012
1.73509
1.73052
1.72653
1.72315
1.72017
1.71743
1.71523
1.71442
1.71654
1.73402
2.03951
3.40941
5.56504
7.33578
8.41652
9.69676
11.1499
12.6287
14.0884
15.5228
16.8872
18.1178
19.0141
1.77413
1.76827
1.76246
1.75669
1.75101
1.74547
1.74014
1.73515
1.73068
1.72686
1.72366
1.72077
1.71791
1.71545
1.71447
1.71745
1.77304
2.38692
4.17971
6.32317
7.72291
8.83803
10.1608
11.5922
13.0532
14.516
15.947
17.3061
18.5311
19.4238
1.77413
1.76827
1.76246
1.75669
1.75102
1.74548
1.74018