/*--------------------------------*- C++ -*----------------------------------*\
| =========                 |                                                 |
| \\      /  F ield         | OpenFOAM: The Open Source CFD Toolbox           |
|  \\    /   O peration     | Version:  2512                                  |
|   \\  /    A nd           | Website:  www.openfoam.com                      |
|    \\/     M anipulation  |                                                 |
\*---------------------------------------------------------------------------*/
FoamFile
{
    version     2.0;
    format      ascii;
    arch        "LSB;label=32;scalar=64";
    class       volScalarField;
    location    "200";
    object      p;
}
// * * * * * * * * * * * * * * * * * * * * * * * * * * * * * * * * * * * * * //

dimensions      [0 2 -2 0 0 0 0];

internalField   nonuniform List<scalar> 
90398
(
109.217
109.184
109.106
108.972
108.762
108.431
107.914
107.117
105.932
104.266
102.121
99.6935
97.4081
95.5491
93.8017
91.4731
88.0909
83.657
78.3627
72.3388
65.7942
59.24
53.4998
49.4733
46.7559
43.1136
36.8754
30.0676
18.465
14.9947
109.24
109.209
109.139
109.02
108.831
108.53
108.049
107.289
106.12
104.417
102.152
99.5569
97.2095
95.4956
93.9661
91.7627
88.3962
83.9498
78.6557
72.6134
66.0206
59.4598
53.7838
49.7183
46.6858
42.691
36.362
29.5261
18.1889
14.3892
109.284
109.259
109.204
109.113
108.967
108.727
108.325
107.646
106.52
104.747
102.216
99.2279
96.7444
95.3676
94.3158
92.3698
89.0213
84.5445
79.2555
73.1829
66.5162
59.9256
54.2409
49.9784
46.3509
41.795
35.3322
28.5078
17.5473
13.5072
109.347
109.331
109.298
109.248
109.167
109.025
108.755
108.224
107.197
105.329
102.311
98.5758
95.8764
95.1431
94.9049
93.3471
89.99
85.4785
80.2258
74.118
67.3384
60.6416
54.8043
50.081
45.6688
40.5125
33.9027
27.0889
16.6213
12.3457
109.425
109.42
109.416
109.419
109.426
109.422
109.356
109.08
108.277
106.311
102.41
97.2937
94.3181
94.7915
95.8459
94.7516
91.2309
86.6646
81.5245
75.4022
68.4434
61.4908
55.2917
49.9425
44.7261
38.9968
32.2241
25.4024
15.5022
10.9853
109.514
109.522
109.552
109.617
109.734
109.914
110.146
110.294
109.972
108.027
102.536
94.8997
91.5809
94.2698
97.4433
96.8932
92.8699
88.1139
83.0933
76.9536
69.7354
62.3712
55.6882
49.6132
43.623
37.3509
30.3999
23.5474
14.2497
9.51206
109.61
109.63
109.696
109.83
110.072
110.482
111.136
111.985
112.614
111.001
102.745
90.8402
87.1924
93.4563
99.9696
99.9046
95.1068
90.1584
85.1441
78.7416
71.0083
63.0835
55.8214
49.0589
42.4104
35.665
28.5425
21.6416
12.9271
8.03067
109.707
109.739
109.838
110.039
110.41
111.08
112.276
114.291
117.005
115.093
105.389
88.2757
79.5337
89.6099
105.009
103.986
97.8657
92.8955
87.6764
80.5041
71.8699
63.2492
55.3967
48.133
41.0695
34.0049
26.7618
19.8036
11.6203
6.57165
109.799
109.842
109.97
110.227
110.708
111.619
113.41
116.921
120.136
126.329
106.684
75.9238
65.2902
85.1324
110.662
105.999
98.0584
93.9309
89.2655
81.9768
73.0494
63.9574
55.4058
47.4905
39.945
32.5313
25.1322
18.0712
10.4229
5.05472
109.883
109.934
110.081
110.375
110.929
111.988
114.223
119.058
127.111
144.219
91.9911
65.2822
46.9387
72.288
121.338
110.843
99.7857
95.352
90.652
83.1614
74.1959
65.1475
56.3758
47.8362
39.4778
31.3585
23.5825
16.321
9.2808
3.441
109.956
110.01
110.166
110.474
111.047
112.129
114.397
119.289
129.686
169.349
59.9
42.9325
67.5906
120.855
111.305
100.599
96.6283
92.7153
86.1843
77.6879
68.1928
58.2453
48.2927
38.7573
29.883
21.8088
14.446
8.09336
1.86766
110.016
110.069
110.223
110.522
111.06
112.043
113.932
117.597
125.03
141.478
107.331
30.1212
54.4445
76.3826
112.74
108.708
101.766
98.8815
96.044
90.6917
82.1809
71.4404
59.891
48.5589
38.0523
28.5772
20.2579
12.7926
7.01013
0.492743
110.061
110.112
110.254
110.524
110.989
111.782
113.135
115.368
118.475
122.581
105.21
74.0784
75.2595
89.5838
107.339
108.432
104.573
101.84
99.3229
94.7315
86.1584
74.4269
61.6378
49.1703
37.7574
27.6445
19.007
11.3803
6.03759
-0.70235
110.095
110.139
110.264
110.494
110.867
111.448
112.317
113.428
114.309
112.539
103.069
90.8367
90.1549
97.9882
105.938
108.319
106.092
103.659
101.415
97.4997
89.274
76.9689
63.1979
49.7524
37.5299
26.8408
17.9096
10.1327
5.15487
-1.73961
110.117
110.154
110.259
110.445
110.726
111.122
111.627
112.098
112.103
110.382
104.82
97.7848
96.6561
101.16
106.242
108.332
107.243
105.379
103.283
99.6296
91.7065
79.0518
64.522
50.2762
37.3725
26.1847
16.9871
9.07025
4.38314
-2.61768
110.131
110.161
110.246
110.39
110.593
110.846
111.105
111.226
110.873
109.4
106.015
101.966
100.968
103.49
106.846
108.586
108.189
106.742
104.691
101.116
93.4769
80.6976
65.6497
50.7812
37.2901
25.6482
16.2091
8.17079
3.71304
-3.34888
110.139
110.162
110.229
110.339
110.48
110.63
110.735
110.67
110.209
109.03
106.874
104.474
103.787
105.322
107.656
109.091
109.019
107.842
105.813
102.208
94.7369
81.9585
66.5643
51.2159
37.2415
25.2148
15.5696
7.42936
3.14962
-3.9395
110.143
110.161
110.214
110.298
110.394
110.475
110.487
110.332
109.862
108.922
107.475
106.007
105.608
106.663
108.375
109.572
109.647
108.63
106.576
102.853
95.4521
82.786
67.2249
51.5523
37.2133
24.8804
15.0722
6.85315
2.7056
-4.39749
110.144
110.159
110.203
110.269
110.337
110.376
110.337
110.141
109.69
108.914
107.865
106.903
106.693
107.521
108.891
109.942
110.083
109.138
107.026
103.15
95.7546
83.2573
67.6754
51.8231
37.2366
24.6818
14.754
6.47298
2.41327
-4.72715
110.144
110.158
110.197
110.254
110.308
110.328
110.266
110.056
109.621
108.928
108.06
107.32
107.203
107.944
109.166
110.147
110.305
109.375
107.209
103.213
95.7791
83.3977
67.864
51.9617
37.259
24.5904
14.608
6.27546
2.30133
-4.98843
109.209
109.176
109.096
108.96
108.747
108.412
107.891
107.095
105.916
104.266
102.149
99.7548
97.4898
95.6214
93.8391
91.4705
88.0624
83.6091
78.2744
72.1777
65.5419
58.8957
53.0049
48.7441
45.992
42.4257
35.7138
28.7796
16.6869
15.0052
109.232
109.201
109.129
109.007
108.814
108.508
108.023
107.261
106.096
104.411
102.183
99.6328
97.3109
95.5795
94.0045
91.7552
88.3643
83.9004
78.5607
72.4355
65.7512
59.0969
53.2647
49.0671
46.1292
42.1089
35.3184
28.3645
16.681
14.3842
109.275
109.25
109.193
109.098
108.947
108.7
108.29
107.605
106.48
104.727
102.253
99.3379
96.8916
95.4791
94.3562
92.3522
88.9836
84.4949
79.1571
72.9913
66.2202
59.5041
53.6582
49.416
45.9509
41.2251
34.3706
27.4923
16.2448
13.6108
109.338
109.321
109.286
109.231
109.143
108.989
108.705
108.16
107.127
105.28
102.356
98.7533
96.1045
95.2983
94.9425
93.3089
89.9418
85.4258
80.1207
73.9155
67.0139
60.1643
54.2032
49.5983
45.2329
39.8939
33.0023
26.2012
15.5153
12.531
109.415
109.409
109.403
109.399
109.396
109.375
109.283
108.976
108.144
106.203
102.483
97.603
94.6945
95.0227
95.8657
94.6731
91.1729
86.6186
81.4158
75.1772
68.0491
60.8989
54.663
49.454
44.2082
38.3347
31.3821
24.6294
14.5818
11.2198
109.504
109.51
109.536
109.594
109.695
109.849
110.038
110.121
109.717
107.769
102.652
95.4469
92.2026
94.6341
97.4342
96.787
92.8304
88.1197
83.0524
76.7806
69.3227
61.7436
55.1779
49.1478
43.064
36.6762
29.6214
22.8766
13.5007
9.75387
109.599
109.618
109.678
109.802
110.023
110.394
110.974
111.692
112.123
110.438
102.838
91.6561
88.0815
93.7613
99.5541
99.6271
95.0107
90.1159
85.1179
78.6527
70.7137
62.7518
55.6056
48.7263
41.8695
34.9879
27.8048
21.0352
12.326
8.21687
109.695
109.726
109.82
110.009
110.353
110.966
112.039
113.79
115.987
114.705
105.876
89.757
81.7564
90.3008
103.177
102.343
96.8172
92.1766
87.2289
80.2868
71.7192
63.2632
55.3957
47.8183
40.4314
33.2102
25.9546
19.1654
11.1125
6.64045
109.788
109.829
109.95
110.195
110.648
111.486
113.09
116.139
119.247
123.918
106.318
83.6563
69.0943
84.031
113.11
106.105
97.807
93.7376
89.2146
81.98
72.8294
63.3925
54.5596
46.5024
38.8518
31.414
24.1138
17.2971
9.91909
4.99037
109.872
109.92
110.06
110.341
110.864
111.842
113.836
117.973
125.134
140.037
88.4778
60.2144
52.7144
53.2347
128.578
113.768
101.107
95.9886
90.8307
82.5833
72.5088
62.7822
54.0938
45.846
37.6727
29.7622
22.2861
15.3889
8.72179
3.2554
109.945
109.996
110.145
110.44
110.981
111.984
114.011
118.2
127.249
160.792
36.2016
129.08
114.931
102.087
97.4054
93.1404
86.16
76.785
66.3807
55.8482
45.7311
36.3835
27.9091
20.3105
13.3958
7.46888
1.53519
110.005
110.056
110.203
110.491
111.002
111.913
113.615
116.803
123.401
135.85
102.891
21.8127
58.8023
62.0752
113.949
108.874
101.757
99.0522
96.3538
90.4865
80.5631
68.5341
56.4136
45.1977
35.1777
26.3181
18.6134
11.6501
6.34783
0.00168675
110.051
110.099
110.236
110.496
110.935
111.671
112.904
114.867
117.388
120.849
105.98
77.0988
77.1942
89.8141
107.524
108.802
104.985
102.146
99.3703
93.635
83.2795
70.3819
57.3969
45.3365
34.5939
25.2202
17.2859
10.1895
5.3746
-1.33184
110.085
110.127
110.248
110.468
110.821
111.365
112.164
113.145
113.836
112.095
103.709
92.4352
91.3523
98.5546
106.165
108.497
106.21
103.652
101.09
95.9041
85.9214
72.5031
58.6301
45.6721
34.2023
24.3124
16.1332
8.89804
4.49232
-2.49147
110.108
110.144
110.245
110.423
110.691
111.063
111.528
111.94
111.881
110.206
105.171
98.6618
97.4183
101.63
106.472
108.471
107.388
105.45
103.002
97.9657
88.1271
74.2774
59.6111
45.8943
33.8333
23.5365
15.1531
7.7893
3.7183
-3.47177
110.123
110.152
110.233
110.373
110.566
110.805
111.043
111.14
110.773
109.356
106.228
102.468
101.493
103.885
107.093
108.782
108.403
106.888
104.501
99.5653
89.8127
75.725
60.4958
46.1781
33.5599
22.8599
14.3181
6.86661
3.06325
-4.27732
110.131
110.154
110.219
110.325
110.46
110.602
110.697
110.624
110.169
109.035
107.018
104.786
104.153
105.641
107.904
109.324
109.278
108.05
105.732
100.847
91.0882
76.9152
61.283
46.4751
33.3944
22.3407
13.6407
6.11697
2.53228
-4.91157
110.136
110.153
110.205
110.286
110.379
110.455
110.464
110.309
109.852
108.95
107.587
106.22
105.874
106.927
108.621
109.833
109.947
108.896
106.605
101.713
91.9356
77.8127
61.9794
46.8134
33.3421
21.9911
13.1573
5.56076
2.13807
-5.38048
110.137
110.152
110.195
110.259
110.324
110.362
110.322
110.131
109.696
108.952
107.961
107.067
106.906
107.755
109.137
110.221
110.41
109.443
107.136
102.202
92.429
78.482
62.6325
47.2508
33.4709
21.8668
12.9199
5.25385
1.92932
-5.68844
110.138
110.151
110.189
110.245
110.297
110.316
110.256
110.052
109.633
108.97
108.148
107.464
107.394
108.163
109.41
110.431
110.642
109.694
107.363
102.381
92.6154
78.8739
63.1006
47.6395
33.6638
21.891
12.8819
5.11737
1.94957
-6.01761
109.194
109.159
109.075
108.934
108.713
108.371
107.843
107.044
105.875
104.252
102.188
99.8583
97.6346
95.7523
93.9176
91.4963
88.0571
83.5684
78.1617
71.9569
65.1807
58.3856
52.449
48.2195
44.8238
40.3398
32.5506
26.0319
13.7801
15.8073
109.216
109.184
109.108
108.979
108.778
108.462
107.966
107.199
106.04
104.384
102.222
99.7557
97.483
95.7275
94.0824
91.773
88.3545
83.8568
78.4427
72.1979
65.3736
58.4784
52.1575
47.5705
44.3758
39.9062
32.4588
25.9096
14.1736
15.1331
109.259
109.232
109.17
109.068
108.905
108.643
108.217
107.517
106.391
104.67
102.293
99.5097
97.1302
95.6629
94.4311
92.3525
88.9634
84.4523
79.0402
72.7546
65.8624
58.7478
51.9425
47.213
43.9448
39.0638
31.8898
25.4385
14.1211
14.4472
109.32
109.301
109.261
109.196
109.092
108.916
108.603
108.026
106.973
105.163
102.402
99.0213
96.4591
95.5356
95.0021
93.2737
89.9095
85.3929
80.022
73.734
66.7347
59.261
52.3593
47.6505
43.417
37.9774
30.9245
24.5374
13.7764
13.3988
109.396
109.387
109.374
109.358
109.333
109.278
109.135
108.763
107.87
105.971
102.554
98.0727
95.2546
95.3408
95.8884
94.5887
91.1511
86.6268
81.3704
75.1014
67.795
59.793
53.1353
47.9075
42.6218
36.6974
29.6815
23.3136
13.2064
12.0597
109.484
109.487
109.504
109.545
109.616
109.719
109.821
109.777
109.208
107.287
102.806
96.3039
93.1091
95.0293
97.3124
96.5533
92.7871
88.1892
83.1276
76.8503
69.024
60.7724
54.1127
47.8939
41.6904
35.2848
28.2395
21.8483
12.4496
10.5031
109.578
109.592
109.642
109.745
109.927
110.222
110.656
111.13
111.191
109.404
103.074
93.1592
89.5608
94.3562
99.2286
99.1355
94.854
90.2001
85.3486
78.882
70.5515
62.42
55.0861
47.8029
40.7041
33.7939
26.6647
20.2178
11.5498
8.80627
109.673
109.699
109.78
109.945
110.239
110.746
111.59
112.872
114.156
113.388
105.9
91.3157
83.7229
91.4189
102.905
101.852
96.7682
92.4301
87.7237
80.7597
71.9733
63.7032
55.5804
47.3458
39.4952
32.1567
24.9664
18.4701
10.5497
7.0139
109.765
109.8
109.908
110.125
110.518
111.224
112.494
114.739
116.983
119.702
110.771
84.8935
71.6075
85.1005
112.398
105.748
97.9575
93.9059
89.3193
81.8748
72.7596
63.9825
55.1032
46.2246
37.9148
30.3167
23.1412
16.6268
9.49054
5.13054
109.849
109.891
110.018
110.268
110.725
111.556
113.128
116.156
121.042
129.416
112.671
-12.0668
44.7393
61.9546
124.882
112.24
100.6
95.7305
90.704
82.6188
72.7582
63.1057
53.6395
44.4915
36.038
28.3398
21.2311
14.7105
8.38726
3.18363
109.922
109.968
110.103
110.367
110.844
111.7
113.306
116.38
122.43
138.455
69.4609
60.3886
123.658
112.326
101.115
96.9853
93.1143
85.7362
75.1393
63.7829
52.9179
43.0096
34.204
26.3473
19.2965
12.7802
7.25816
1.27746
109.982
110.029
110.163
110.423
110.876
111.659
113.028
115.401
120.008
126.025
116.272
26.2839
68.0387
71.6892
113.413
108.633
102.142
99.6778
96.9587
89.5338
77.2826
64.2962
52.4108
41.9586
32.8162
24.7331
17.6609
11.0904
6.25441
-0.442692
110.03
110.073
110.199
110.434
110.826
111.461
112.469
113.958
115.5
114.792
108.359
82.8588
80.7461
91.9322
107.374
108.421
105.018
102.43
99.4851
91.9342
79.1038
65.2849
52.7609
41.7297
32.0636
23.5873
16.3721
9.67385
5.39373
-1.94493
110.065
110.104
110.214
110.415
110.731
111.204
111.864
112.611
112.959
111.309
104.569
94.9084
93.3781
99.6697
106.486
108.634
106.592
104.171
101.346
94.233
81.378
66.7666
53.4567
41.7534
31.5448
22.6645
15.2865
8.45168
4.63782
-3.23601
110.09
110.122
110.216
110.379
110.62
110.946
111.332
111.633
111.443
109.886
105.684
100.033
98.7065
102.44
106.882
108.77
107.836
106.031
103.369
96.4166
83.4001
68.1795
54.0758
41.7034
31.0305
21.8812
14.3901
7.43347
4.00067
-4.31142
110.106
110.132
110.209
110.337
110.512
110.722
110.918
110.966
110.57
109.255
106.542
103.259
102.361
104.557
107.571
109.238
108.987
107.61
105.052
98.2387
85.0662
69.4089
54.7527
41.8461
30.6799
21.1899
13.6222
6.60311
3.49014
-5.17195
110.116
110.137
110.198
110.296
110.419
110.544
110.618
110.53
110.085
109.034
107.252
105.306
104.77
106.204
108.401
109.866
109.951
108.867
106.438
99.7617
86.4804
70.545
55.4724
42.1122
30.5121
20.7021
13.0251
5.95328
3.10024
-5.82736
110.122
110.138
110.187
110.262
110.347
110.414
110.415
110.261
109.827
108.997
107.784
106.602
106.362
107.433
109.138
110.439
110.693
109.792
107.462
100.879
87.5813
71.5466
56.2113
42.5417
30.5448
20.4296
12.6469
5.50431
2.84199
-6.28984
110.124
110.138
110.178
110.238
110.298
110.331
110.291
110.108
109.701
109.021
108.139
107.378
107.319
108.226
109.664
110.863
111.202
110.389
108.112
101.561
88.2997
72.3583
56.9958
43.1525
30.8473
20.4317
12.5344
5.31854
2.7735
-6.56267
110.125
110.137
110.173
110.226
110.274
110.291
110.232
110.04
109.652
109.048
108.32
107.748
107.775
108.618
109.941
111.091
111.456
110.665
108.439
101.848
88.5229
72.7441
57.5858
43.7296
31.2087
20.5797
12.6202
5.26444
2.98446
-6.94299
109.171
109.134
109.045
108.896
108.666
108.312
107.775
106.974
105.818
104.236
102.243
100.004
97.8366
95.9377
94.0377
91.5557
88.0843
83.5536
78.0721
71.7732
64.8775
57.906
52.0697
48.8561
45.5414
39.2709
30.2194
24.1933
12.0127
17.8902
109.193
109.158
109.076
108.939
108.726
108.396
107.888
107.113
105.966
104.353
102.278
99.9271
97.7226
95.9371
94.2049
91.827
88.3806
83.8455
78.3561
72.019
65.0652
57.7787
51.1104
46.97
43.6821
38.2614
30.176
24.1507
12.6255
17.0413
109.234
109.205
109.137
109.023
108.845
108.564
108.115
107.398
106.275
104.603
102.348
99.7406
97.4525
95.9198
94.5517
92.3888
88.9873
84.4555
78.9761
72.628
65.5975
57.7088
49.95
45.2168
42.1682
37.1268
29.8039
23.9125
12.794
16.2842
109.294
109.272
109.223
109.144
109.019
108.814
108.463
107.847
106.778
105.023
102.455
99.3637
96.9308
95.8646
95.1087
93.2709
89.9221
85.4119
80.0157
73.7393
66.4902
57.8809
50.0861
45.4319
41.5604
36.1947
29.1538
23.2895
12.691
15.0961
109.369
109.356
109.332
109.298
109.243
109.143
108.936
108.484
107.529
105.689
102.606
98.6458
95.9911
95.7609
95.9451
94.5178
91.1668
86.6944
81.48
75.2618
67.3745
58.2372
51.4452
46.2593
41.1146
35.2518
28.275
22.3422
12.3623
13.5529
109.455
109.453
109.457
109.475
109.506
109.542
109.535
109.339
108.61
106.726
102.856
97.3154
94.3256
95.5638
97.1757
96.2404
92.7507
88.3272
83.4118
77.1165
68.3624
59.6343
53.0203
46.6978
40.4976
34.1376
27.1531
21.1151
11.8237
11.7336
109.547
109.556
109.591
109.665
109.793
109.991
110.247
110.438
110.133
108.285
103.182
95.0676
91.6673
95.259
98.8707
98.3778
94.5927
90.314
85.7769
79.2199
69.9535
61.7728
54.255
46.7928
39.7007
32.8569
25.8035
19.648
11.0992
9.71754
109.64
109.66
109.724
109.853
110.08
110.455
111.028
111.782
112.248
110.939
105.541
93.6197
86.8676
92.9756
101.705
100.724
96.3991
92.4888
88.2964
81.3128
71.7839
63.1795
54.609
46.2437
38.482
31.288
24.2221
17.9779
10.2187
7.56927
109.731
109.76
109.849
110.025
110.336
110.875
111.77
113.205
114.941
115.27
109.559
88.4992
77.8126
89.1881
106.715
103.339
97.6619
94.2101
90.3594
82.8846
72.8556
63.1421
53.6931
44.8227
36.7508
29.3999
22.4277
16.1541
9.22966
5.33714
109.815
109.85
109.956
110.164
110.532
111.176
112.299
114.249
117.253
120.558
119.522
54.2416
64.0842
78.9512
112.718
107.147
99.8956
96.723
93.1261
84.6314
72.7932
61.6488
51.7139
42.7636
34.7053
27.3782
20.5614
14.2803
8.19789
3.08944
109.888
109.927
110.042
110.265
110.653
111.323
112.482
114.474
117.533
122.619
122.928
-15.3196
36.7666
78.9953
112.799
108.159
101.456
98.8502
95.475
86.027
72.8412
60.7462
50.3215
41.1188
32.9377
25.5335
18.8079
12.4885
7.19571
0.932507
109.95
109.989
110.105
110.325
110.698
111.317
112.315
113.874
115.757
116.257
114.945
61.6935
73.434
84.0334
108.682
107.11
102.672
100.506
97.2585
87.6573
73.8542
61.0214
49.9883
40.3087
31.7598
24.1209
17.378
10.9497
6.32841
-1.01921
109.999
110.036
110.145
110.347
110.674
111.182
111.926
112.89
113.601
112.457
107.79
89.3538
85.9615
95.0449
106.673
107.827
105.294
103.106
99.8249
90.4851
76.2331
62.4265
50.5532
40.2268
31.1703
23.1588
16.2757
9.67626
5.60712
-2.72359
110.036
110.07
110.167
110.34
110.606
110.988
111.48
111.96
111.972
110.384
105.241
97.7087
96.0566
101.132
106.703
108.542
107.071
105.126
102.031
93.2556
78.9024
64.16
51.365
40.353
30.7936
22.4228
15.4073
8.63402
5.01262
-4.17376
110.064
110.092
110.174
110.316
110.521
110.787
111.074
111.245
110.939
109.513
106.118
101.583
100.382
103.494
107.355
109.138
108.557
107.141
104.141
95.471
81.0808
65.7318
52.2213
40.5333
30.4871
21.828
14.7099
7.79787
4.54525
-5.36088
110.082
110.105
110.172
110.285
110.435
110.607
110.75
110.741
110.328
109.144
106.886
104.219
103.487
105.439
108.221
109.899
109.902
108.891
106.003
97.3382
82.9161
67.1174
53.1116
40.938
30.3675
21.3464
14.1548
7.13913
4.19099
-6.29349
110.094
110.112
110.166
110.254
110.36
110.462
110.511
110.406
109.983
109.05
107.549
105.967
105.601
106.988
109.124
110.686
111.012
110.301
107.597
98.9474
84.4891
68.4583
54.1128
41.5795
30.5063
21.0859
13.7698
6.66326
3.94991
-6.99046
110.101
110.115
110.159
110.227
110.301
110.356
110.347
110.197
109.801
109.072
108.054
107.118
107.034
108.151
109.901
111.361
111.865
111.355
108.841
100.19
85.6342
69.6174
55.1304
42.3806
30.8759
21.0251
13.5707
6.37124
3.82817
-7.46575
110.105
110.117
110.153
110.208
110.261
110.288
110.247
110.078
109.715
109.125
108.393
107.819
107.91
108.911
110.452
111.849
112.441
112.04
109.666
100.945
86.1514
70.1417
55.7744
43.145
31.47
21.2235
13.6042
6.30736
3.87644
-7.72946
110.106
110.117
110.15
110.198
110.241
110.254
110.199
110.025
109.681
109.162
108.566
108.156
108.329
109.289
110.738
112.104
112.722
112.384
110.114
101.2
86.1764
70.1798
56.0035
43.6519
32.0147
21.5207
13.7954
6.31208
4.21821
-8.19252
109.142
109.103
109.008
108.85
108.607
108.241
107.693
106.892
105.755
104.224
102.319
100.184
98.0808
96.1616
94.1817
91.6218
88.1014
83.5237
77.9745
71.6031
64.6323
57.5914
52.1893
50.2736
47.1108
38.9972
29.1782
23.4971
11.3504
20.4638
109.163
109.126
109.038
108.89
108.663
108.317
107.794
107.014
105.884
104.329
102.358
100.138
98.0127
96.1888
94.3526
91.8875
88.397
83.8219
78.2624
71.8604
64.7472
56.9601
50.3906
47.3659
44.2127
37.7022
29.0837
23.4211
12.0858
19.4043
109.204
109.171
109.095
108.969
108.773
108.469
107.997
107.264
106.152
104.546
102.435
100.023
97.8428
96.2312
94.7041
92.435
89.0103
84.4573
78.9247
72.5592
65.1754
56.1314
48.0955
44.3451
41.5834
36.1942
28.6802
23.2086
12.318
18.4836
109.262
109.236
109.178
109.082
108.933
108.695
108.303
107.651
106.578
104.9
102.55
99.7827
97.5043
96.2744
95.2609
93.2901
89.9551
85.4569
80.074
73.8195
65.8436
55.8168
47.8806
43.8768
40.459
35.1266
28.0843
22.6527
12.2855
17.058
109.335
109.317
109.282
109.226
109.138
108.988
108.714
108.189
107.195
105.437
102.711
99.3193
96.8814
96.2982
96.065
94.4872
91.2268
86.8273
81.7253
75.4056
66.2839
56.3217
49.7426
44.8976
40.0291
34.238
27.322
21.783
12.0242
15.2143
109.418
109.41
109.401
109.391
109.377
109.341
109.225
108.891
108.046
106.227
102.941
98.478
95.8016
96.2792
97.1659
96.0556
92.8336
88.6108
83.8824
77.1414
66.891
58.2141
51.7102
45.5449
39.4937
33.2179
26.3331
20.6355
11.5408
13.0456
109.508
109.511
109.528
109.568
109.637
109.733
109.82
109.759
109.183
107.354
103.253
97.011
94.0535
96.2808
98.706
97.992
94.7256
90.8086
86.461
78.9704
68.3595
60.4041
52.9115
45.626
38.7086
31.9896
25.065
19.2096
10.8533
10.6463
109.6
109.612
109.656
109.745
109.898
110.135
110.455
110.765
110.653
108.979
103.689
94.4434
91.2476
96.0828
100.776
100.248
96.7654
93.2977
89.2906
80.9872
70.2622
61.6168
53.0755
44.9509
37.4388
30.4567
23.5477
17.5512
9.99005
8.10445
109.689
109.71
109.776
109.908
110.133
110.499
111.052
111.782
112.339
111.383
106.826
92.7678
86.1374
93.8424
103.258
102.717
98.7567
95.7119
91.94
82.7937
71.3116
61.3048
51.9614
43.4352
35.7097
28.6001
21.8124
15.7446
9.01458
5.50401
109.773
109.799
109.882
110.043
110.318
110.77
111.489
112.531
113.714
113.674
110.008
87.1347
81.1535
92.2773
105.609
105.509
101.265
98.5226
94.5034
83.9041
70.8823
59.779
50.1256
41.5622
33.8061
26.7011
20.0603
13.9339
8.02133
2.94062
109.846
109.877
109.969
110.145
110.44
110.921
111.676
112.762
113.995
113.99
111.355
85.1574
81.0015
92.377
106.518
106.835
102.919
100.36
96.0208
84.5183
70.6647
58.9673
48.9782
40.1774
32.28
25.085
18.5126
12.2769
7.10411
0.52032
109.909
109.941
110.035
110.212
110.501
110.95
111.611
112.474
113.182
112.372
108.753
89.5803
85.746
95.01
106.431
107.184
104.273
102.054
97.9058
86.4975
72.2399
59.7711
49.1262
39.7715
31.4293
23.9411
17.3148
10.9013
6.34294
-1.66158
109.961
109.991
110.081
110.245
110.501
110.875
111.375
111.907
112.046
110.591
105.217
96.4255
94.681
100.463
106.586
107.997
106.348
104.578
100.749
90.0213
75.3046
61.6775
50.0537
39.9561
31.1183
23.2552
16.4632
9.80935
5.74453
-3.55945
110.001
110.028
110.109
110.251
110.462
110.748
111.08
111.327
111.105
109.643
105.852
100.447
99.0872
102.86
107.234
108.941
108.176
106.78
103.022
92.9493
78.3734
63.8596
51.297
40.4275
30.9866
22.7468
15.8403
8.97014
5.29466
-5.15791
110.031
110.054
110.123
110.241
110.406
110.607
110.799
110.855
110.482
109.216
106.6
103.295
102.395
104.853
108.124
109.894
109.817
108.891
105.186
95.1982
80.9281
65.874
52.6376
41.1117
31.0745
22.4254
15.3689
8.31469
4.96154
-6.45425
110.052
110.071
110.128
110.223
110.345
110.476
110.567
110.51
110.104
109.083
107.311
105.326
104.857
106.599
109.153
110.906
111.311
110.788
107.234
97.1383
83.1148
67.7892
54.0527
41.9547
31.3071
22.2336
15.0562
7.83704
4.73361
-7.46585
110.067
110.081
110.128
110.202
110.29
110.369
110.393
110.278
109.893
109.106
107.922
106.765
106.639
108.016
110.122
111.844
112.552
112.355
109.07
98.8246
84.8024
69.447
55.5423
43.1199
31.8212
22.2269
14.8953
7.53137
4.61666
-8.21031
110.076
110.088
110.125
110.184
110.246
110.289
110.272
110.132
109.787
109.185
108.395
107.747
107.873
109.085
110.931
112.625
113.514
113.567
110.579
100.195
85.7736
70.3275
56.3973
44.1138
32.5357
22.3633
14.8604
7.38715
4.59891
-8.71026
110.081
110.091
110.123
110.17
110.216
110.237
110.197
110.049
109.741
109.263
108.713
108.364
108.649
109.794
111.5
113.177
114.164
114.382
111.596
100.981
85.8519
70.1147
56.2159
44.2257
32.9996
22.6706
14.9768
7.41694
4.7321
-8.97946
110.083
110.092
110.121
110.163
110.201
110.211
110.162
110.012
109.726
109.312
108.876
108.664
109.027
110.15
111.796
113.466
114.487
114.841
112.152
101.213
85.5807
69.5508
55.5412
43.7701
33.0983
22.8992
15.1762
7.45406
5.17971
-9.51988
109.11
109.068
108.966
108.798
108.542
108.162
107.606
106.806
105.694
104.221
102.41
100.384
98.3479
96.4103
94.3514
91.7154
88.1489
83.5363
77.9545
71.5777
64.6157
57.6138
52.931
52.0076
48.3319
38.8199
28.8219
23.4883
11.3074
22.9944
109.13
109.09
108.994
108.835
108.593
108.231
107.695
106.913
105.806
104.315
102.456
100.37
98.3236
96.4658
94.528
91.9783
88.4477
83.8415
78.2535
71.8444
64.504
56.2184
50.1258
48.1355
44.8271
37.46
28.6744
23.3559
12.1111
21.7251
109.169
109.133
109.049
108.908
108.693
108.367
107.873
107.129
106.036
104.507
102.545
100.325
98.2514
96.5681
94.8884
92.5193
89.0719
84.5005
78.9788
72.6281
64.5612
54.2476
46.5464
44.0154
41.408
35.7269
28.1693
23.0639
12.3177
20.6078
109.225
109.195
109.127
109.013
108.839
108.568
108.14
107.459
106.396
104.81
102.674
100.211
98.0855
96.7066
95.4494
93.3598
90.0381
85.5668
80.2786
73.9576
64.7403
53.4097
45.8771
42.815
39.7768
34.4678
27.5017
22.4351
12.2416
18.914
109.296
109.273
109.225
109.146
109.024
108.827
108.493
107.909
106.9
105.247
102.849
99.9722
97.7542
96.8647
96.2367
94.5237
91.3372
87.0376
82.121
75.3988
64.6608
54.3937
48.0115
43.6827
39.1249
33.4656
26.6905
21.5044
11.9373
16.7534
109.376
109.363
109.337
109.3
109.241
109.135
108.924
108.48
107.568
105.854
103.081
99.5342
97.1727
97.0293
97.2699
96.0151
92.9716
88.9521
84.4145
76.7636
65.095
56.7134
50.1272
44.28
38.5128
32.4178
25.6759
20.301
11.4056
14.2285
109.464
109.46
109.458
109.464
109.475
109.475
109.416
109.163
108.417
106.672
103.37
98.7646
96.2529
97.2539
98.6176
97.8171
94.9027
91.2681
86.9762
78.1353
66.6729
58.8206
51.2628
44.287
37.6539
31.1597
24.3962
18.8345
10.6807
11.4568
109.554
109.558
109.581
109.629
109.709
109.821
109.933
109.921
109.439
107.744
103.767
97.5205
94.8016
97.4902
100.336
99.9532
97.0215
93.8103
89.5659
79.7418
68.6559
59.9591
51.4913
43.6794
36.4338
29.6451
22.8947
17.146
9.78328
8.54922
109.642
109.654
109.697
109.783
109.924
110.137
110.414
110.662
110.538
109.047
104.32
96.0243
92.9973
97.6121
102.143
102.331
99.2435
96.3509
92.0425
81.4877
69.7875
59.8281
50.6898
42.3866
34.8404
27.8865
21.2529
15.3671
8.79708
5.61436
109.725
109.743
109.801
109.914
110.099
110.383
110.778
111.221
111.419
110.233
105.109
95.087
91.8944
97.8473
103.808
104.794
101.748
99.0913
94.4258
82.8125
69.9239
59.0466
49.4887
40.9187
33.2063
26.2004
19.6508
13.6267
7.82659
2.76457
109.799
109.821
109.889
110.017
110.224
110.537
110.971
111.461
111.712
110.573
105.464
95.512
92.8082
98.8616
105.017
106.325
103.7
101.414
96.6177
84.3711
70.5999
58.9036
48.8263
39.8979
31.9658
24.8051
18.2879
12.0841
6.96346
0.103625
109.863
109.887
109.958
110.091
110.298
110.597
110.987
111.377
111.417
110.095
105.464
97.561
95.4547
100.581
105.923
107.28
105.493
103.737
99.0835
86.9883
72.7326
60.1013
49.2448
39.7623
31.4122
23.9276
17.3082
10.85
6.27113
-2.28457
109.917
109.94
110.009
110.135
110.322
110.576
110.875
111.1
110.897
109.505
105.812
100.249
98.7419
102.534
106.859
108.405
107.603
106.343
101.853
90.5445
75.9282
62.2561
50.4944
40.2745
31.3538
23.4777
16.6895
9.93222
5.77065
-4.34724
109.96
109.981
110.044
110.155
110.312
110.51
110.708
110.783
110.436
109.158
106.416
102.803
101.809
104.469
107.908
109.658
109.598
108.75
104.283
93.5936
79.1701
64.7188
52.0025
40.9504
31.4311
23.1788
16.2527
9.23589
5.41571
-6.0719
109.993
110.011
110.066
110.16
110.284
110.425
110.537
110.507
110.117
109.052
107.114
104.843
104.283
106.251
109.074
110.937
111.449
111.04
106.669
96.1255
82.0993
67.2221
53.8723
42.057
31.8308
23.1136
16.0187
8.75331
5.17765
-7.46768
110.018
110.032
110.078
110.155
110.249
110.342
110.39
110.301
109.927
109.095
107.774
106.417
106.249
107.845
110.251
112.177
113.121
113.126
108.979
98.3153
84.6241
69.6139
55.8472
43.3989
32.383
23.1576
15.9089
8.4385
5.05322
-8.54634
110.035
110.046
110.085
110.146
110.215
110.272
110.276
110.161
109.831
109.206
108.341
107.598
107.739
109.153
111.305
113.28
114.524
114.897
111.093
100.212
86.3696
71.1563
57.2485
44.7835
33.1634
23.2695
15.9016
8.27193
5.02576
-9.33852
110.047
110.056
110.087
110.136
110.187
110.218
110.197
110.074
109.793
109.332
108.781
108.436
108.804
110.152
112.164
114.182
115.631
116.33
112.884
101.773
87.2278
71.5317
57.2983
44.9794
33.6139
23.3962
15.9303
8.22638
5.08831
-9.86314
110.054
110.061
110.088
110.129
110.167
110.183
110.149
110.027
109.785
109.435
109.082
108.976
109.49
110.822
112.765
114.815
116.382
117.319
114.089
102.539
87.0035
70.8396
56.4012
43.9721
33.1561
23.441
16.0102
8.29176
5.2774
-10.1412
110.056
110.063
110.088
110.125
110.157
110.166
110.125
110.006
109.787
109.492
109.235
109.243
109.827
111.158
113.074
115.141
116.77
117.916
114.734
102.67
86.3408
69.8346
55.3523
42.8856
32.3668
23.2821
16.1511
8.33246
5.80286
-10.7456
109.074
109.03
108.921
108.742
108.474
108.082
107.518
106.723
105.639
104.228
102.513
100.593
98.6239
96.673
94.542
91.8348
88.2272
83.5935
78.0143
71.7026
64.8222
57.975
54.1475
53.6511
48.975
38.7342
28.8002
23.7946
11.543
25.2505
109.094
109.051
108.948
108.777
108.521
108.144
107.597
106.816
105.738
104.314
102.566
100.608
98.6391
96.7559
94.7269
92.0984
88.5323
83.9062
78.3294
71.949
64.308
55.6769
50.2801
48.9521
45.2444
37.3401
28.5869
23.5943
12.3875
23.7907
109.131
109.092
108.999
108.844
108.611
108.265
107.752
107.003
105.936
104.488
102.669
100.627
98.6542
96.9162
95.1022
92.6426
89.1728
84.5968
79.1447
72.7535
63.7184
52.3774
45.3956
43.9262