/*--------------------------------*- C++ -*----------------------------------*\
| =========                 |                                                 |
| \\      /  F ield         | OpenFOAM: The Open Source CFD Toolbox           |
|  \\    /   O peration     | Version:  2512                                  |
|   \\  /    A nd           | Website:  www.openfoam.com                      |
|    \\/     M anipulation  |                                                 |
\*---------------------------------------------------------------------------*/
FoamFile
{
    version     2.0;
    format      ascii;
    arch        "LSB;label=32;scalar=64";
    class       volScalarField;
    location    "200";
    object      p;
}
// * * * * * * * * * * * * * * * * * * * * * * * * * * * * * * * * * * * * * //

dimensions      [0 2 -2 0 0 0 0];

internalField   nonuniform List<scalar> 
84826
(
3.22806
3.23376
3.24271
3.24617
3.22698
3.15507
2.98005
2.62309
1.98043
0.946911
-0.509764
-2.2513
-3.80157
-4.50555
-4.13803
-3.12577
-2.08939
-1.36487
-0.923298
-0.612129
-0.363453
-0.184778
-0.0756691
-0.0140286
0.0173218
0.0257777
0.019266
0.00679739
-0.00053525
-0.00571941
3.23823
3.24633
3.26158
3.27646
3.27557
3.23102
3.0933
2.77914
2.16956
1.12487
-0.429295
-2.38941
-4.16052
-4.90289
-4.39021
-3.18873
-2.03628
-1.29205
-0.869975
-0.571426
-0.328232
-0.15543
-0.0495956
0.012615
0.0441128
0.0493617
0.037115
0.0189216
0.00733501
0.00114522
3.25759
3.27036
3.2979
3.33528
3.37102
3.38245
3.32349
3.10422
2.57625
1.52418
-0.225974
-2.67929
-4.94582
-5.75875
-4.92141
-3.30097
-1.90167
-1.12925
-0.754475
-0.484594
-0.26225
-0.117358
-0.0350555
0.0144047
0.0384482
0.0364743
0.0167478
-0.00895789
-0.0260325
-0.0318713
3.28444
3.30389
3.3491
3.41934
3.50992
3.60821
3.67763
3.62505
3.26174
2.24342
0.194659
-3.16449
-6.29473
-7.18792
-5.79689
-3.44482
-1.63584
-0.847823
-0.549485
-0.302588
-0.0945992
0.0163069
0.0643094
0.0906864
0.101215
0.0938858
0.0766905
0.0574976
0.0438672
0.0258452
3.31628
3.34397
3.41115
3.52306
3.68564
3.90351
4.16158
4.37799
4.32558
3.47123
1.0265
-3.98165
-8.49828
-9.37331
-7.11592
-3.56703
-1.17887
-0.483218
-0.355319
-0.158242
0.0233138
0.0842358
0.0747534
0.0442589
0.00435704
-0.0352621
-0.0588713
-0.0678515
-0.056245
-0.0508521
3.35002
3.38683
3.47861
3.63839
3.8871
4.25681
4.77431
5.40313
5.90659
5.52627
2.67585
-5.26203
-12.0271
-12.7358
-9.07587
-3.4008
-0.204689
0.249279
0.123455
0.259681
0.426297
0.464383
0.419695
0.329312
0.214145
0.112288
0.060412
0.0524422
0.0819182
0.0710865
3.38222
3.42816
3.54484
3.75446
4.0971
4.6442
5.49601
6.72842
8.19449
8.89701
5.68986
-7.14914
-16.984
-18.3646
-12.5158
-2.86153
1.05225
0.846899
0.304362
0.291972
0.363151
0.333822
0.237228
0.0791969
-0.112591
-0.268771
-0.328493
-0.303848
-0.183961
-0.154575
3.40941
3.46346
3.6025
3.85801
4.29136
5.02226
6.26122
8.30475
11.3962
14.6751
11.0717
-4.7198
-19.1816
-25.575
-18.3426
-0.0745996
4.32759
2.86977
1.84766
1.74743
1.67987
1.44808
1.12062
0.715386
0.28959
-0.0595241
-0.245554
-0.304419
-0.102678
-0.227582
3.42853
3.48862
3.64454
3.93534
4.44113
5.32699
6.9319
9.87521
15.3409
23.9241
24.5832
-9.33981
-16.7957
-50.3842
-29.4992
1.18476
5.20401
1.50379
0.0110182
0.417088
0.85948
0.922744
0.725094
0.361474
-0.0547079
-0.401211
-0.58913
-0.64078
-0.403879
-0.323181
3.43727
3.50044
3.66513
3.9746
4.51962
5.49221
7.31377
10.8608
18.2806
33.2846
48.3926
0.352244
-13.713
-51.0931
-20.6067
12.1509
14.1232
6.40118
2.89702
2.71876
2.85419
2.55377
1.97495
1.2955
0.649864
0.135061
-0.212667
-0.366556
-0.418512
-0.0681103
3.43441
3.49728
3.66134
3.96962
4.51261
5.48283
7.30126
10.8407
18.2405
33.1848
55.3414
18.719
-43.01
-18.248
13.1213
14.8351
6.18379
2.40461
2.46597
2.84636
2.63677
2.05706
1.39504
0.81225
0.371312
0.0676017
-0.059478
-0.208053
0.340375
3.42003
3.47931
3.63364
3.92167
4.42288
5.30201
6.8957
9.81727
15.229
23.6537
35.0863
-6.01478
-24.7798
-56.5953
-25.4376
6.33931
8.34998
1.84571
-0.646796
0.0619818
0.89569
1.00081
0.619246
0.124051
-0.291091
-0.58687
-0.790894
-0.848969
-0.937113
-0.208784
3.39549
3.44828
3.58489
3.83628
4.26293
4.98294
6.20312
8.21341
11.2289
14.3315
16.1678
-9.02026
-22.6993
-37.1839
-16.9239
2.4392
5.47706
2.07419
0.499869
1.01192
1.6323
1.65442
1.2476
0.753259
0.35667
0.0828311
-0.109406
-0.204767
-0.216284
-0.0236341
3.36321
3.40746
3.52085
3.72489
4.05841
4.591
5.41898
6.61023
7.99354
8.52959
4.95839
-8.34954
-18.4109
-19.8108
-12.4784
-1.81586
1.9135
0.915006
0.00948077
0.235682
0.663905
0.758397
0.569523
0.298897
0.0779307
-0.059845
-0.142079
-0.167521
-0.132859
-0.0479725
3.3264
3.36112
3.44886
3.60187
3.83967
4.19231
4.68275
5.26722
5.69163
5.17748
2.09407
-6.10649
-13.0258
-13.7424
-9.4258
-3.05092
0.397294
0.570344
0.0666756
0.0734027
0.314911
0.438605
0.402826
0.284565
0.159284
0.0640944
-0.00307689
-0.0366989
-0.0420315
-0.00882439
3.28863
3.31388
3.37638
3.48056
3.63082
3.82984
4.05924
4.23156
4.10902
3.15022
0.554576
-4.60653
-9.20666
-10.0464
-7.4441
-3.44346
-0.792425
-0.208615
-0.385711
-0.378096
-0.169203
0.0254304
0.119752
0.118243
0.0616095
-0.00573949
-0.059425
-0.0861921
-0.0874863
-0.049546
3.25344
3.27014
3.31015
3.37191
3.44921
3.52762
3.56797
3.47328
3.04907
1.94856
-0.203469
-3.65763
-6.8301
-7.68228
-6.09594
-3.47855
-1.49001
-0.730703
-0.601382
-0.477447
-0.248763
-0.0303735
0.100015
0.129911
0.0897847
0.0275894
-0.0210692
-0.0417804
-0.0399677
-0.0141715
3.22399
3.23375
3.25568
3.28407
3.30592
3.29695
3.20913
2.95007
2.36863
1.2498
-0.575487
-3.09097
-5.37805
-6.15305
-5.19186
-3.40196
-1.86749
-1.06727
-0.760844
-0.56473
-0.350642
-0.160693
-0.0412911
-0.000347478
-0.015104
-0.0480955
-0.0691486
-0.0688613
-0.0513659
-0.0206052
3.20286
3.20772
3.21707
3.22263
3.20752
3.14237
2.97617
2.62408
1.96619
0.864596
-0.748518
-2.75301
-4.53463
-5.243
-4.6409
-3.3159
-2.0543
-1.26484
-0.871745
-0.632524
-0.424115
-0.245621
-0.119262
-0.0506264
-0.0283655
-0.0296016
-0.0316672
-0.0248051
-0.0112322
0.00506545
3.19181
3.19412
3.19699
3.19095
3.15737
3.0648
2.86153
2.46764
1.77925
0.69374
-0.814549
-2.59292
-4.15004
-4.82277
-4.37986
-3.2631
-2.13041
-1.35777
-0.93154
-0.671828
-0.462966
-0.285981
-0.152399
-0.0685508
-0.0306801
-0.023804
-0.0274106
-0.0288963
-0.0245637
-0.0132634
3.21896
3.22393
3.23104
3.23138
3.20787
3.13067
2.95012
2.58941
1.94759
0.922664
-0.514935
-2.22488
-3.74041
-4.42387
-4.06004
-3.07443
-2.07114
-1.3672
-0.931348
-0.62125
-0.374121
-0.196249
-0.0862231
-0.0229698
0.00989183
0.0195956
0.0139804
0.0021657
-0.00470411
-0.00851356
3.22897
3.23626
3.24952
3.26098
3.2552
3.20438
3.05955
2.73933
2.12828
1.09146
-0.440893
-2.3612
-4.08894
-4.80427
-4.29501
-3.12768
-2.01741
-1.29657
-0.879278
-0.581788
-0.341055
-0.169837
-0.0639107
-0.00087248
0.0317913
0.0388371
0.0286238
0.0122572
0.00196746
-0.00298016
3.248
3.25982
3.28505
3.31834
3.34793
3.35095
3.28147
3.05109
2.51595
1.46944
-0.253753
-2.64799
-4.8537
-5.62389
-4.78497
-3.21708
-1.88274
-1.14026
-0.767469
-0.496291
-0.274767
-0.129722
-0.0467302
0.00270981
0.0268716
0.0265848
0.00988835
-0.0121877
-0.0262334
-0.0299932
3.27441
3.29269
3.33515
3.40029
3.48281
3.56923
3.62228
3.54933
3.16739
2.1486
0.134583
-3.13612
-6.18205
-6.99252
-5.5781
-3.31367
-1.61299
-0.868334
-0.575284
-0.33198
-0.126428
-0.0132546
0.0371826
0.0630042
0.0720365
0.0647325
0.0493913
0.0337089
0.0243732
0.0137822
3.30574
3.33196
3.39576
3.50131
3.65322
3.85414
4.08663
4.2671
4.17512
3.30429
0.907513
-3.98919
-8.40174
-9.07415
-6.73169
-3.35868
-1.15743
-0.503701
-0.369024
-0.178085
-0.00174035
0.0639061
0.0614004
0.0345003
-0.00409491
-0.0436592
-0.0686617
-0.0786065
-0.0683754
-0.0598443
3.33893
3.37393
3.46152
3.61338
3.84826
4.19424
4.6726
5.24074
5.66853
5.23995
2.44741
-5.44166
-12.1536
-12.2414
-8.29714
-3.00836
-0.227182
0.122406
0.00106497
0.128026
0.286186
0.330136
0.30354
0.237138
0.148082
0.0682615
0.0299027
0.0291448
0.0618286
0.059446
3.37059
3.41441
3.52606
3.72572
4.05079
4.56614
5.36073
6.49872
7.82974
8.4552
5.26145
-8.0125
-17.9426
-17.4773
-11.1394
-2.10814
1.26857
0.911115
0.3349
0.273177
0.288136
0.214105
0.0963926
-0.0550311
-0.221107
-0.350038
-0.393285
-0.362664
-0.246296
-0.188279
3.39733
3.44896
3.58233
3.82599
4.23714
4.92605
6.08571
7.99636
10.8955
14.127
11.4676
-6.40639
-22.0138
-23.3759
-15.6459
-0.344686
3.37908
2.10025
1.28254
1.30339
1.31551
1.14401
0.874371
0.541623
0.195674
-0.0856871
-0.230751
-0.265388
-0.0906441
-0.168204
3.41612
3.47356
3.62328
3.90102
4.38082
5.21379
6.71481
9.47655
14.7456
23.9588
26.8565
-8.15435
-26.446
-37.0373
-17.7593
3.851
5.28479
1.55465
0.0874596
0.379434
0.728065
0.758408
0.569182
0.251332
-0.10233
-0.392635
-0.541492
-0.577373
-0.296615
-0.32951
3.42469
3.48511
3.64336
3.93913
4.45653
5.37165
7.07043
10.3889
17.6308
34.8243
62.2015
-47.3193
-88.5129
-77.3791
-13.1673
13.9913
12.2954
4.84116
1.66419
1.51229
1.72813
1.60966
1.23082
0.732966
0.234448
-0.171204
-0.435811
-0.546141
-0.496238
-0.240316
3.42184
3.48199
3.63967
3.93434
4.44976
5.36238
7.05796
10.3697
17.5951
34.7421
73.3807
-68.8382
-13.8399
13.8328
12.3496
4.30289
0.783095
0.6881
1.0673
1.07872
0.776732
0.378602
0.00531268
-0.279892
-0.461515
-0.507679
-0.540193
-0.0258792
3.40765
3.4643
3.61274
3.88808
4.36272
5.18874
6.6789
9.42129
14.6455
23.7339
41.7629
-40.0594
-44.2402
-80.1144
-16.5696
6.23347
6.89573
1.42819
-0.954391
-0.637768
-0.0417327
0.106498
-0.174524
-0.553109
-0.882629
-1.11277
-1.23975
-1.23318
-1.24218
-0.503032
3.38347
3.43387
3.56499
3.80474
4.20881
4.88689
6.02867
7.90875
10.741
13.8259
17.053
-13.0046
-28.1228
-33.6311
-15.0973
1.27779
4.54791
2.02973
0.617807
0.879915
1.32837
1.35788
1.00075
0.554418
0.172134
-0.107021
-0.302645
-0.399922
-0.408182
-0.213039
3.35166
3.39382
3.5022
3.69631
4.01241
4.51362
5.28527
6.38441
7.64002
8.11853
4.61059
-9.04877
-19.1543
-18.7351
-11.3156
-1.51831
1.80933
0.875639
-0.0209872
0.0802259
0.411957
0.49625
0.343561
0.111062
-0.0863857
-0.204604
-0.270462
-0.280493
-0.235232
-0.101311
3.31539
3.34832
3.43192
3.57715
3.80131
4.13055
4.58266
5.10839
5.46254
4.91221
1.91273
-6.20554
-13.0521
-13.1514
-8.68199
-2.82724
0.184629
0.364564
-0.0076196
0.0534118
0.296782
0.417453
0.388156
0.274981
0.152428
0.0609707
-0.00330438
-0.0325546
-0.0316839
0.00674893
3.27818
3.30198
3.36119
3.45912
3.59888
3.78133
3.98595
4.12402
3.96567
2.9978
0.463767
-4.57088
-9.06108
-9.701
-7.05375
-3.29907
-0.872421
-0.289017
-0.38897
-0.354487
-0.166817
-0.00369617
0.0694369
0.0599855
0.00613772
-0.0522339
-0.0957072
-0.111715
-0.102959
-0.0570388
3.2435
3.25906
3.29641
3.35319
3.42263
3.48956
3.51429
3.40063
2.96047
1.86404
-0.246108
-3.60441
-6.69043
-7.46215
-5.86664
-3.36524
-1.5049
-0.777583
-0.625483
-0.489617
-0.269706
-0.0640117
0.0618618
0.0972473
0.0691856
0.0200711
-0.0187648
-0.0334679
-0.0293554
-0.00528983
3.21451
3.22334
3.24306
3.26747
3.28339
3.26641
3.16875
2.89973
2.31313
1.20286
-0.591324
-3.04369
-5.26927
-6.00341
-5.04728
-3.32171
-1.86354
-1.09412
-0.78086
-0.575112
-0.360608
-0.173705
-0.0547772
-0.0107282
-0.0202702
-0.0489861
-0.0685386
-0.0692848
-0.0539496
-0.0252975
3.19372
3.1978
3.20525
3.20752
3.18774
3.11672
2.94404
2.5869
1.92908
0.837541
-0.751122
-2.71357
-4.45155
-5.13473
-4.53966
-3.25452
-2.04144
-1.27772
-0.885919
-0.641757
-0.431825
-0.254313
-0.128811
-0.0598757
-0.0362895
-0.0359582
-0.0370235
-0.0298759
-0.0157583
0.00200246
3.18282
3.18443
3.18556
3.17655
3.13888
3.04142
2.83326
2.43653
1.75034
0.675166
-0.812014
-2.55732
-4.07983
-4.73362
-4.29708
-3.21059
-2.11528
-1.36552
-0.943437
-0.680629
-0.469843
-0.293085
-0.160411
-0.0770255
-0.0383325
-0.029474
-0.0306626
-0.0301117
-0.0240738
-0.0120647
3.20027
3.20346
3.20624
3.19953
3.16634
3.07717
2.88347
2.51172
1.8673
0.855975
-0.543605
-2.18855
-3.63377
-4.27994
-3.93113
-2.99944
-2.0531
-1.37914
-0.948758
-0.63805
-0.391989
-0.214053
-0.101369
-0.0346959
0.00115875
0.013636
0.0104315
0.000415422
-0.00539826
-0.00815369
3.20997
3.21534
3.22396
3.22774
3.21115
3.14647
2.98552
2.65003
2.03154
1.00526
-0.486636
-2.32751
-3.9684
-4.63536
-4.14295
-3.04239
-2.00206
-1.31379
-0.898863
-0.599213
-0.359774
-0.189038
-0.0816121
-0.0166456
0.0184402
0.0290482
0.0228151
0.00980181
0.00155752
-0.00284958
3.22835
3.23799
3.25794
3.28227
3.29872
3.28379
3.19155
2.93649
2.38243
1.33735
-0.339716
-2.61955
-4.69956
-5.39892
-4.57659
-3.10694
-1.87418
-1.17003
-0.791978
-0.513939
-0.290483
-0.142425
-0.0565647
-0.00623565
0.0190279
0.0221112
0.0102998
-0.0065727
-0.0169771
-0.0204663
3.25385
3.2696
3.30584
3.36012
3.42589
3.48782
3.50695
3.39181
2.96737
1.9312
-0.0288074
-3.12371
-5.98114
-6.67112
-5.25938
-3.15558
-1.61929
-0.920621
-0.614113
-0.364245
-0.15613
-0.034906
0.0224524
0.050397
0.0595183
0.0535347
0.0406246
0.0285491
0.0225522
0.0152146
3.28409
3.30731
3.36374
3.45591
3.58613
3.75312
3.93442
4.04307
3.86586
2.93645
0.589708
-4.00439
-8.13862
-8.57614
-6.18437
-3.10885
-1.18518
-0.564938
-0.38836
-0.19054
-0.0162099
0.0596934
0.0700509
0.0536334
0.0224039
-0.0125324
-0.0365633
-0.046484
-0.0394351
-0.0336254
3.3161
3.34756
3.42651
3.56203
3.76897
4.06833
4.47034
4.91938
5.18768
4.60686
1.81837
-5.59385
-11.8711
-11.4481
-7.28174
-2.61251
-0.334562
0.00427174
-0.0214905
0.121883
0.266122
0.305207
0.282021
0.228333
0.155803
0.088215
0.0520142
0.0480141
0.0703336
0.0663434
3.34663
3.38632
3.48791
3.66826
3.9584
4.41132
5.09419
6.0427
7.08556
7.36098
4.05337
-8.43722
-17.9117
-15.9266
-9.01464
-1.48237
1.11731
0.847872
0.458635
0.45843
0.478041
0.398035
0.274782
0.132742
-0.0140506
-0.132536
-0.185472
-0.178234
-0.105714
-0.0653371
3.37239
3.41934
3.54108
3.76245
4.13235
4.74248
5.7479
7.37116
9.75794
12.2454
9.6358
-7.91788
-24.6085
-21.6912
-10.2037
0.401077
2.74919
1.71998
1.11745
1.18314
1.21904
1.08917
0.870454
0.60781
0.338271
0.112145
-0.0185222
-0.0592345
0.0188213
-0.00275845
3.39046
3.44286
3.57975
3.83212
4.26401
5.0044
6.31151
8.67508
13.1245
20.7714
23.8473
-11.6273
-40.7933
-33.9934
-4.60287
6.64573
5.88379
2.68197
1.25692
1.22046
1.29093
1.18114
0.926367
0.604699
0.272171
-0.00587131
-0.171513
-0.233353
-0.096859
-0.0973726
3.39865
3.45384
3.5988
3.8675
4.33205
5.14354
6.62188
9.46785
15.6765
30.4431
59.3452
-53.4755
-76.6792
-62.9318
1.16002
14.3255
10.6977
5.02492
2.37573
2.00117
2.00441
1.85349
1.52244
1.09874
0.660714
0.284914
0.0209027
-0.110565
-0.13865
0.0219202
3.39583
3.45076
3.59512
3.86343
4.3286
5.13835
6.61077
9.45055
15.6493
30.407
70.5821
-93.7524
-0.687823
13.8115
10.4955
4.53654
1.64112
1.24694
1.40037
1.42552
1.2004
0.864015
0.505447
0.198178
-0.0173239
-0.110551
-0.154324
0.105322
3.38207
3.43381
3.56972
3.82054
4.24914
4.98297
6.27744
8.62464
13.0443
20.6416
38.9748
-45.2054
-74.6136
-67.1348
-6.90494
5.92543
5.93882
2.36821
0.491844
0.43151
0.761989
0.885441
0.686584
0.369233
0.0398842
-0.234229
-0.415019
-0.482623
-0.48353
-0.152648
3.35865
3.40452
3.52426
3.74198
4.10476
4.7042
5.69296
7.29008
9.62596
12.0209
14.8919
-14.8195
-34.089
-29.093
-10.9174
0.750212
3.46629
1.92047
0.78402
0.793651
1.07797
1.15535
0.966086
0.668636
0.373436
0.138363
-0.0224223
-0.0968652
-0.102795
0.0186812
3.32784
3.36593
3.46434
3.63928
3.92078
4.36039
5.022
5.93579
6.91552
7.0799
3.54715
-9.21787
-18.9531
-17.0868
-9.47468
-1.2679
1.49208
0.877069
0.154997
0.150708
0.371463
0.449747
0.34915
0.163272
-0.0181028
-0.143867
-0.215138
-0.229673
-0.194615
-0.0785118
3.29272
3.32217
3.39726
3.52635
3.72295
4.00633
4.38368
4.79397
4.99774
4.31583
1.36608
-6.21566
-12.6411
-12.2619
-7.6861
-2.58516
-0.125166
0.115435
-0.0833968
0.0110089
0.22733
0.343106
0.331191
0.241171
0.134433
0.0511196
-0.00353238
-0.0216613
-0.0131089
0.0270457
3.25672
3.27759
3.32956
3.41432
3.53279
3.68207
3.83706
3.90646
3.66941
2.65559
0.194651
-4.5098
-8.72046
-9.14473
-6.50618
-3.13361
-1.02511
-0.41758
-0.382217
-0.295073
-0.124928
0.00920257
0.0654007
0.0548
0.00840745
-0.0402205
-0.0742467
-0.0822246
-0.0697473
-0.0294694
3.22316
3.23626
3.26752
3.31368
3.36678
3.40998
3.40222
3.24899
2.77106
1.66524
-0.378494
-3.54677
-6.4416
-7.10338
-5.53853
-3.23694
-1.56168
-0.855887
-0.645471
-0.483067
-0.277729
-0.0948806
0.0200154
0.0604442
0.0474009
0.0143381
-0.0129902
-0.0214376
-0.0158485
0.00420113
3.19509
3.20182
3.2164
3.23212
3.23532
3.20112
3.08201
2.79048
2.18851
1.08515
-0.655545
-2.98604
-5.08403
-5.75291
-4.82772
-3.2197
-1.87741
-1.14287
-0.807745
-0.583562
-0.369746
-0.189143
-0.0710033
-0.0201368
-0.018917
-0.0386584
-0.0541598
-0.0550969
-0.0425088
-0.0184936
3.17495
3.1772
3.18017
3.17503
3.14487
3.06073
2.87317
2.50261
1.84019
0.763207
-0.780045
-2.6587
-4.30888
-4.94711
-4.37694
-3.16961
-2.03674
-1.30791
-0.911171
-0.654877
-0.441099
-0.264656
-0.139662
-0.0688037
-0.0414591
-0.0374743
-0.0366063
-0.0292316
-0.0151799
0.00235241
3.16438
3.16428
3.16125
3.14547
3.09858
2.98989
2.76976
2.36375
1.67745
0.619223
-0.826052
-2.50321
-3.95484
-4.5739
-4.15793
-3.13335
-2.10307
-1.38658
-0.965884
-0.694434
-0.479123
-0.302445
-0.171002
-0.0876603
-0.0467887
-0.0340074
-0.0310706
-0.0274287
-0.0191443
-0.00717363
3.17298
3.17348
3.1697
3.15246
3.10495
2.99809
2.78494
2.39617
1.74645
0.754257
-0.588958
-2.13782
-3.48156
-4.07898
-3.7612
-2.90889
-2.03804
-1.40187
-0.979515
-0.669469
-0.425261
-0.247091
-0.130808
-0.0593939
-0.0189904
-0.00199013
-0.000870594
-0.00715258
-0.0101885
-0.0107524
3.18219
3.1847
3.18631
3.17868
3.14621
3.0612
2.87667
2.5186
1.88843
0.877506
-0.553424
-2.27556
-3.78833
-4.39802
-3.94654
-2.94502
-1.99567
-1.34754
-0.936352
-0.63481
-0.396681
-0.225763
-0.115664
-0.0474221
-0.00831727
0.00761018
0.00744376
-0.000167079
-0.00448764
-0.00659636
3.19963
3.20607
3.21812
3.22927
3.22663
3.18586
3.06112
2.77073
2.18959
1.14952
-0.458884
-2.56783
-4.4576
-5.07921
-4.32036
-2.99768
-1.89181
-1.23024
-0.845786
-0.560315
-0.334454
-0.181714
-0.0906011
-0.0368734
-0.00801027
0.000704662
-0.00388478
-0.0137495
-0.0187988
-0.0195444
3.22381
3.23586
3.2629
3.30136
3.34311
3.37038
3.34206
3.16845
2.68663
1.62869
-0.253482
-3.0694
-5.62552
-6.20636
-4.89071
-3.03146
-1.69211
-1.03435
-0.702906
-0.442114
-0.2305
-0.098763
-0.0299457
0.00566569
0.0204798
0.0203933
0.0133357
0.00681789
0.00563424
0.00397915
3.25246
3.27141
3.31696
3.38988
3.48937
3.60905
3.71962
3.73085
3.43846
2.4275
0.158121
-3.91584
-7.55224
-7.87124
-5.61636
-2.96758
-1.35537
-0.751951
-0.510913
-0.296025
-0.120362
-0.0304615
-0.000459461
0.00226301
-0.0115398
-0.0326671
-0.0485527
-0.0532724
-0.044292
-0.0328875
3.28276
3.3093
3.37556
3.48777
3.65563
3.89074
4.1888
4.47761
4.52561
3.7264
0.968139
-5.40535
-10.8135
-10.29
-6.41169
-2.60686
-0.777798
-0.347639
-0.22454
-0.0439372
0.100048
0.147475
0.139472
0.108208
0.0627158
0.0163298
-0.00945423
-0.00980087
0.0107672
0.0226983
3.31163
3.34574
3.43282
3.58575
3.82742
4.19514
4.72856
5.41667
6.05199
5.78662
2.3822
-7.88771
-16.0202
-13.6566
-7.25909
-1.84905
0.0645888
0.122502
0.0394291
0.155411
0.238349
0.210529
0.13253
0.0363745
-0.0657066
-0.155441
-0.201044
-0.200293
-0.150394
-0.0932832
3.33595
3.3767
3.48233
3.67254
3.98507
4.48896
5.28887
6.50757
8.11319
9.282
6.71448
-7.81838
-23.0676
-19.2332
-7.13532
-0.552339
1.02268
0.613019
0.364128
0.512091
0.63526
0.612117
0.506124
0.356684
0.190045
0.0368011
-0.0603318
-0.0934336
-0.0566398
-0.0224717
3.35295
3.39859
3.51805
3.73669
4.10386
4.72095
5.77279
7.57292
10.6146
14.7811
15.8971
-11.1257
-40.044
-28.933
-4.0708
2.39027
2.46238
0.98593
0.242616
0.270015
0.41524
0.437914
0.34758
0.195231
0.0111083
-0.157233
-0.262498
-0.292519
-0.228802
-0.13265
3.36059
3.40871
3.53521
3.76802
4.16313
4.83951
6.03773
8.23263
12.5031
20.4495
34.377
-40.7725
-85.3555
-51.4898
-1.13068
6.13093
5.06586
2.55095
1.12839
0.886578
0.940257
0.927625
0.780412
0.543087
0.265909
0.0134069
-0.165293
-0.245014
-0.263717
-0.103425
3.35781
3.4058
3.5318
3.76387
4.16026
4.83647
6.02823
8.21786
12.484
20.4467
40.0738
-24.6294
-93.8436
-65.7576
-0.723383
6.51763
5.3475
2.60954
0.988663
0.663798
0.77091
0.842774
0.74322
0.523752
0.253439
0.00759089
-0.161213
-0.229856
-0.239486
-0.0571683
3.34465
3.38981
3.50806
3.72446
4.08943
4.70173
5.74152
7.52829
10.5525
14.721
24.2715
-24.4704
-37.7931
-61.4167
-3.69009
2.79721
3.11461
1.48596
0.406858
0.278774
0.493447
0.620708
0.535338
0.310108
0.028539
-0.22286
-0.393344
-0.467043
-0.460721
-0.260807
3.32233
3.36203
3.4655
3.65195
3.958
4.45202
5.23703
6.43415
8.0035
9.12413
10.2392
-12.4036
-30.56
-24.5504
-7.62781
-0.455368
1.58367
1.06774
0.449698
0.426845
0.645116
0.772168
0.707482
0.521167
0.293099
0.0952623
-0.0373131
-0.0952152
-0.0954765
-0.00599889
3.29302
3.32556
3.40961
3.55737
3.79083
4.1462
4.66049
5.31879
5.90423
5.56179
2.0161
-8.42222
-16.7651
-14.6378
-7.65373
-1.61722
0.549886
0.413681
0.00127212
-0.0159782
0.153639
0.260408
0.232143
0.112552
-0.0338497
-0.152299
-0.220783
-0.236673
-0.207141
-0.107855
3.25961
3.28423
3.34678
3.45281
3.61082
3.831
4.10656
4.36127
4.35535
3.4775
0.603548
-5.88453
-11.4159
-10.9613
-6.74566
-2.58226
-0.616272
-0.263176
-0.28694
-0.162066
0.0433393
0.181454
0.212473
0.164832
0.0850288
0.0141312
-0.0300188
-0.0405521
-0.0266204
0.0132185
3.22536
3.24205
3.28331
3.34912
3.43744
3.54048
3.62682
3.60285
3.25869
2.17789
-0.180253
-4.33503
-8.03581
-8.35723
-5.90446
-3.02082
-1.26541
-0.648765
-0.487251
-0.346748
-0.179484
-0.0526824
0.00638485
0.00654045
-0.0269162
-0.0650543
-0.08995
-0.0918576
-0.0756704
-0.0368094
3.19342
3.20293
3.22517
3.25584
3.28552
3.29514
3.24186
3.03352
2.50432
1.3866
-0.564621
-3.43843
-6.02568
-6.58695
-5.1461
-3.12428
-1.66683
-0.983996
-0.710426
-0.519772
-0.327673
-0.164423
-0.0564735
-0.00755621
-0.00357752
-0.0192789
-0.0333674
-0.0339914
-0.0236198
-0.00242421
3.1667
3.17033
3.17722
3.18011
3.16482
3.10585
2.95603
2.63202
2.00766
0.916333
-0.746407
-2.89699
-4.80136
-5.39848
-4.55257
-3.11155
-1.91026
-1.21485
-0.858179
-0.618225
-0.408891
-0.236338
-0.117888
-0.0568667
-0.0411887
-0.0484249
-0.056736
-0.055459
-0.0429556
-0.0208089
3.14753
3.14702
3.14319
3.12701
3.08158
2.97815
2.76867
2.37806
1.7078
0.651473
-0.824399
-2.5786
-4.09891
-4.68388
-4.1643
-3.06903
-2.03828
-1.35173
-0.951297
-0.684095
-0.46864
-0.294702
-0.169766
-0.0948764
-0.0611129
-0.0513612
-0.047006
-0.0385469
-0.0235785
-0.00508267
3.13745
3.13478
3.12541
3.09947
3.03889
2.91353
2.67558
2.25495
1.5668
0.532262
-0.851446
-2.42822
-3.77704
-4.35016
-3.97241
-3.03752
-2.09234
-1.41698
-0.999197
-0.719699
-0.501336
-0.326219
-0.196406
-0.112188
-0.0675929
-0.0495212
-0.0415707
-0.0342316
-0.0227093
-0.00918053
3.1386
3.13585
3.12403
3.09395
3.02922
2.9015
2.66624
2.26019
1.60878
0.645089
-0.626281
-2.05877
-3.28266
-3.82895
-3.55504
-2.7969
-2.01001
-1.41697
-1.00645
-0.699567
-0.45818
-0.279961
-0.159936
-0.0833039
-0.0374512
-0.0149581
-0.0085909
-0.0103877
-0.0101446
-0.00957495
3.14719
3.14624
3.13926
3.11772
3.06614
2.95717
2.74577
2.36422
1.72595
0.741276
-0.608732
-2.18629
-3.54595
-4.09872
-3.70957
-2.82642
-1.97587
-1.37206
-0.968505
-0.667726
-0.431634
-0.26021
-0.146618
-0.0739972
-0.0299967
-0.00827629
-0.00223663
-0.0042828
-0.00454755
-0.00557981
3.16345
3.16603
3.16841
3.16351
3.13795
3.06679
2.90492
2.57681
1.97217
0.951367
-0.559671
-2.45701
-4.11693
-4.66861
-4.01809
-2.8706
-1.89508
-1.2762
-0.889333
-0.600317
-0.373973
-0.216775
-0.118898
-0.0593735
-0.0252099
-0.0103624
-0.00821522
-0.0117954
-0.012371
-0.0127444
3.18598
3.1936
3.20936
3.2286
3.2416
3.22825
3.14576
2.90914
2.37316
1.31312
-0.447823
-2.90891
-5.09277
-5.59704
-4.47487
-2.90011
-1.7461
-1.11972
-0.765786
-0.497441
-0.285342
-0.145309
-0.0647078
-0.0196355
0.00250935
0.00858217
0.00681555
0.0045546
0.00632972
0.00536868
3.21264
3.22644
3.25872
3.30828
3.37114
3.43561
3.46657
3.37273
2.96629
1.89799
-0.212714
-3.63283
-6.6534
-6.9572
-5.04177
-2.85116
-1.49109
-0.885039
-0.586289
-0.355848
-0.178022
-0.0745178
-0.0254701
-0.00535149
-0.0045436
-0.0152676
-0.0258181
-0.0287183
-0.0211874
-0.0135375
3.24082
3.26142
3.31206
3.39603
3.51748
3.67809
3.85915
3.97465
3.80032
2.8127
0.244964
-4.80954
-9.14207
-8.86539
-5.67323
-2.66293
-1.10377
-0.560042
-0.324957
-0.122036
0.0253778
0.0884654
0.100459
0.0894652
0.062831
0.0294655
0.00739246
0.00430993
0.0177738
0.0270989
3.26763
3.29499
3.36412
3.48354
3.66773
3.93734
4.30385
4.71185
4.92852
4.1908
1.04612
-6.73746
-13.0661
-11.3281
-6.1138
-2.22153
-0.58018
-0.198892
-0.0795919
0.0841747
0.199811
0.215904
0.17666
0.113577
0.0384668
-0.0356905
-0.0823914
-0.0943292
-0.0694997
-0.033706
3.29017
3.32351
3.40904
3.56074
3.8049
4.18504
4.75623
5.54141
6.37164
6.27954
2.42202
-10.0533
-19.3544
-14.7495
-6.10056
-1.31779
0.217523
0.312058
0.252136
0.38203
0.51354
0.53986
0.487645
0.388641
0.265763
0.141216
0.0521262
0.0107045
0.0172995
0.0356568
3.30587
3.3436
3.44132
3.61746
3.90856
4.38168
5.14115
6.32796
7.95936
9.27991
7.84392
-10.3277
-28.6415
-20.9365
-5.97566
-0.117329
1.24202
0.837958
0.390711
0.351523
0.449717
0.48867
0.440928
0.335538
0.193728
0.0522861
-0.0483395
-0.0907452
-0.073242
-0.0163374
3.31283
3.35275
3.45678
3.64524
3.95983
4.48288
5.3563
6.81527
9.10574
11.8927
14.1525
-15.5894
-42.2416
-27.3011
-5.86546
1.31845
2.70847
1.90008
1.04468
0.771382
0.775686
0.781422
0.697879
0.550343
0.358675
0.174574
0.0405168
-0.0239393
-0.0349562
0.0239714
3.31006
3.34984
3.45362
3.64181
3.95607
4.47714
5.34689
6.80205
9.0901
11.8857
15.8036
-16.5784
-44.9958
-30.4571
-6.00476
1.07416
2.50188
1.71957
0.842678
0.541529
0.565806
0.611995
0.559497
0.416921
0.22709
0.0544409
-0.0597553
-0.0997393
-0.0912742
0.00481069
3.29766
3.3348
3.43154
3.60606
3.89374
4.36102
5.11177
6.28784
7.90688
9.22861
10.728
-13.5393
-34.1855
-26.2879
-5.99053
-0.298315
1.1798
0.858214
0.327581
0.202113
0.32502
0.432663
0.411589
0.277348
0.0899823
-0.0776114
-0.184332
-0.218585
-0.198698
-0.0803952
3.2767
3.30896
3.39247
3.5407
3.77868
4.14992
4.70815
5.47512
6.27823
6.1534
2.23342
-10.3546
-19.8437
-15.6933
-6.46415
-1.46037
0.35054
0.503996
0.263877
0.243759
0.393461
0.514435
0.509678
0.396977
0.235492
0.0892547
-0.00572336
-0.0388466
-0.031339
0.0309654
3.24925
3.27513
3.34137
3.45594
3.63246
3.89069
4.24019
4.62296
4.80036
4.00631
0.769524
-7.10784
-13.5757
-12.0206
-6.41396
-2.1511
-0.317415
-0.00828397
-0.112484
-0.0856446
0.0636821
0.18656
0.207598
0.137853
0.0260568
-0.0744899
-0.133848
-0.146688
-0.123244
-0.0520764
3.21798
3.23673
3.28384
3.36195
3.47419
3.62104
3.78198
3.86813
3.64975
2.60169
-0.0479478
-5.17733
-9.59408
-9.37046
-5.93431
-2.67194
-1.01837
-0.527044
-0.404444
-0.253707
-0.0587157
0.090111
0.149231
0.130126
0.06987
0.00959366
-0.0264636
-0.0318983
-0.0163473
0.0177555
3.18589
3.19753
3.22571
3.26855
3.32093
3.37003
3.37911
3.25439
2.80442
1.67997
-0.498298
-3.97664
-7.04295
-7.34904
-5.28372
-2.92019
-1.46051
-0.838455
-0.583037
-0.396567
-0.22034
-0.0873264
-0.0169391
-0.00291065
-0.0236628
-0.0523281
-0.0693724
-0.0671352
-0.0497246
-0.0178106
3.15598
3.16117
3.17236
3.18423
3.18588
3.15614
3.05092
2.78336
2.20651
1.09679
-0.71908
-3.22408
-5.43069
-5.9196
-4.69893
-2.9973
-1.75052
-1.0938
-0.770303
-0.552021
-0.362639
-0.207895
-0.100924
-0.0436719
-0.0261267
-0.0287163
-0.0324692
-0.0271168
-0.0136091
0.00507098
3.13093
3.13084
3.12829
3.11556
3.07809
2.98999
2.8051
2.44672
1.80408
0.739491
-0.816275
-2.74666
-4.41745
-4.94901
-4.22685
-2.98206
-1.92708
-1.27472
-0.903718
-0.651081
-0.443958
-0.275895
-0.154876
-0.0833566
-0.0537086
-0.0487113
-0.0491479
-0.0443934
-0.0312785
-0.0127503
3.11297
3.10913
3.09697
3.06731
3.00353
2.87736
2.64297
2.23193
1.55794
0.533732
-0.854333
-2.45825
-3.82352
-4.35498
-3.90785
-2.94512
-2.02515
-1.38624
-0.987637
-0.713405
-0.497124
-0.324617
-0.197878
-0.116926
-0.0749927
-0.0579884
-0.0490033
-0.0384947
-0.0224777
-0.0048848
3.10351
3.09774
3.08059
3.04225
2.96519
2.82022
2.56206
2.127
1.44113
0.440191
-0.865989
-2.32183
-3.54931
-4.07412
-3.74825
-2.91894
-2.06792
-1.43953
-1.02941
-0.745467
-0.525521
-0.351547
-0.221762
-0.134698
-0.0847097
-0.0604594
-0.0471499
-0.035905
-0.0211622
-0.00698117
3.0988
3.09242
3.07159
3.02719
2.94349
2.79326
2.53503
2.11236
1.46224
0.533936
-0.655187
-1.96067
-3.05863
-3.55676
-3.33668
-2.68164
-1.98209
-1.43441
-1.03895
-0.737274
-0.499049
-0.320496
-0.196326
-0.113855
-0.0618091
-0.0329882
-0.0205204
-0.0171027
-0.0128666
-0.0105834
3.1067
3.1019
3.0853
3.0483
2.97577
2.84109
2.60199
2.19782
1.55527
0.605507
-0.65109
-2.07221
-3.27549
-3.77794
-3.4652
-2.70907
-1.95744
-1.39905
-1.00733
-0.710045
-0.476229
-0.303418
-0.185036
-0.106698
-0.0569009
-0.0290058
-0.0166511
-0.0130386
-0.00878909
-0.00770852
3.12163
3.11992
3.11149
3.08886
3.03836
2.9349
2.73529
2.37126
1.74889
0.76007
-0.634617
-2.30643
-3.73826
-4.23929
-3.72006
-2.75309
-1.89944
-1.32361
-0.941598
-0.653652
-0.428085
-0.266147
-0.159865
-0.0922455
-0.0510189
-0.0293691
-0.0205844
-0.0182782
-0.0141779
-0.0126279
3.14229
3.14499
3.14824
3.14636
3.12834
3.07225
2.93508
2.63881
2.05916
1.0206
-0.590051
-2.69321
-4.51596
-4.98056
-4.0934
-2.79219
-1.79436
-1.202
-0.839825
-0.569436
-0.357776
-0.210297
-0.117767
-0.0618506
-0.0308054
-0.0171857
-0.0125593
-0.00992132
-0.00400437
-0.00170646
3.16671
3.17481
3.1924
3.21647
3.24017
3.24727
3.19845
3.00599
2.50721
1.42633
-0.481125
-3.27764
-5.71512
-6.04852
-4.55255
-2.7772
-1.61142
-1.01936
-0.692172
-0.451253
-0.267101
-0.148179
-0.0807774
-0.0453098
-0.0321084
-0.0332606
-0.0374312
-0.036823
-0.0273658
-0.0174313
3.19249
3.2065
3.23998
3.29334
3.36565
3.44977
3.51555
3.4722
3.11623
2.03466
-0.254107
-4.14617
-7.50522
-7.49936
-5.0679
-2.67361
-1.32825
-0.766495
-0.491747
-0.278734
-0.117673
-0.0274198
0.0117475
0.0223324
0.0130252
-0.00722515
-0.0228401
-0.0246754
-0.0123396
0.00174892
3.21696
3.23685
3.28627
3.36961
3.49344
3.66361
3.86798
4.02533
3.90304
2.90955
0.146244
-5.47396
-10.1299
-9.29012
-5.47941
-2.42182
-0.954882
-0.484561
-0.307524
-0.137993
-0.000205239
0.0609047
0.0650844
0.0388273
-0.0053004
-0.0550653
-0.0892374
-0.0984668
-0.0803201
-0.0454996
3.23746
3.26251
3.32602
3.43667
3.60909
3.865
4.21887
4.62268
4.85148
4.1149
0.836855
-7.4408
-14.0172
-11.5174
-5.59118
-1.78522
-0.34921
-0.0905346
-0.0717372
0.0456146
0.184668
0.249709