/*--------------------------------*- C++ -*----------------------------------*\
| =========                 |                                                 |
| \\      /  F ield         | OpenFOAM: The Open Source CFD Toolbox           |
|  \\    /   O peration     | Version:  2512                                  |
|   \\  /    A nd           | Website:  www.openfoam.com                      |
|    \\/     M anipulation  |                                                 |
\*---------------------------------------------------------------------------*/
FoamFile
{
    version     2.0;
    format      ascii;
    arch        "LSB;label=32;scalar=64";
    class       surfaceScalarField;
    location    "200";
    object      phi;
}
// * * * * * * * * * * * * * * * * * * * * * * * * * * * * * * * * * * * * * //

dimensions      [0 3 -1 0 0 0 0];

oriented        oriented;

internalField   nonuniform List<scalar> 
278528
(
1.59961
0.000339391
8.08501e-05
1.59942
2.57054e-05
0.000193692
1.59966
-0.000513077
0.000311799
1.6005
-0.00128337
0.00046815
1.60099
-0.00112496
0.00066147
1.60171
-0.00159618
0.000881443
1.60282
-0.00258617
0.00147656
1.60699
-0.00581288
0.00163364
1.61185
-0.00691437
0.00205117
1.62481
-0.0151709
0.00224997
1.63402
-0.011418
0.00225204
1.63548
-0.00315877
0.00172956
1.65158
-0.0169667
0.000902854
1.65951
-0.00772793
-0.000177682
1.66909
-0.00862601
-0.000993073
1.68193
-0.0114165
-0.0014655
1.69759
-0.0142272
-0.00147213
1.71819
-0.0190143
-0.00160668
1.74144
-0.0219426
-0.00132043
1.76698
-0.0254369
-0.000145282
1.79329
-0.0283743
0.00196754
1.81708
-0.0308155
0.00691607
1.83709
-0.0368991
0.0168224
1.86407
-0.0477552
0.0207318
1.91355
-0.0545551
0.00499817
1.98337
-0.0521785
-0.0177546
2.06046
-0.0459223
-0.031282
2.13843
-0.038498
-0.0395755
2.21634
-0.0344966
-0.0434826
-0.0251221
-0.0704302
1.60006
0.000233403
8.09148e-05
1.60019
-0.000273219
0.000193576
1.60051
-0.00112047
0.00032496
1.60102
-0.00224094
0.000480312
1.60153
-0.00225214
0.000644014
1.60275
-0.00375014
0.000948289
1.60295
-0.00445557
0.00166707
1.60659
-0.0112923
0.00182827
1.61252
-0.0151697
0.00233895
1.62455
-0.0297269
0.00256954
1.63431
-0.0238468
0.00271401
1.63607
-0.00704268
0.00216246
1.65186
-0.0338148
0.00109362
1.65914
-0.0148825
-0.00011085
1.66824
-0.0167765
-0.000982758
1.68085
-0.0226459
-0.00142671
1.69712
-0.0291581
-0.00138246
1.71699
-0.0373433
-0.00156068
1.74024
-0.0439695
-0.00123935
1.76603
-0.0512959
2.5701e-05
1.79239
-0.0576279
0.00278835
1.81697
-0.0639941
0.00849634
1.83987
-0.0768041
0.0169418
1.86873
-0.095187
0.018529
1.91491
-0.104767
0.00395997
1.9775
-0.100055
-0.0148192
2.04704
-0.0892267
-0.0263572
2.11888
-0.0763536
-0.034087
2.19156
-0.0683716
-0.038886
-0.0528291
-0.0638325
1.60004
0.000138843
8.35176e-05
1.60018
-0.000587329
0.000205472
1.6003
-0.0015503
0.000346453
1.6007
-0.00311601
0.000513692
1.60104
-0.00320489
0.000632696
1.60156
-0.00533853
0.0010907
1.60283
-0.00771917
0.00199335
1.60496
-0.0156673
0.00225815
1.61078
-0.0239277
0.00295412
1.624
-0.0463252
0.00342557
1.63505
-0.0386103
0.00376672
1.63743
-0.012514
0.00312898
1.65259
-0.0504245
0.0014795
1.65849
-0.0207805
-1.06625e-05
1.66661
-0.0239222
-0.000993486
1.67882
-0.0335118
-0.00137887
1.69479
-0.0439424
-0.00122223
1.71465
-0.0556431
-0.00158227
1.73803
-0.0660687
-0.00129187
1.76411
-0.0775127
8.59487e-05
1.79081
-0.0876944
0.0032672
1.81716
-0.0993328
0.00889308
1.84447
-0.118778
0.0146132
1.87753
-0.139675
0.0113836
1.92239
-0.147808
-0.00188855
1.97836
-0.140888
-0.0152375
2.03971
-0.127243
-0.0234494
2.10368
-0.110736
-0.0296975
2.16928
-0.100075
-0.0339782
-0.0798754
-0.0568749
1.60008
8.06812e-06
8.69006e-05
1.60009
-0.000791853
0.000220484
1.60013
-0.00192964
0.000375217
1.60025
-0.00376971
0.000565242
1.6007
-0.00429693
0.000676013
1.60058
-0.00645967
0.00125905
1.60023
-0.00980416
0.00245079
1.60277
-0.0211369
0.00293854
1.6085
-0.0335816
0.003964
1.62304
-0.0659344
0.00514103
1.63652
-0.0577234
0.00567153
1.6403
-0.0208418
0.00456036
1.6539
-0.0665702
0.0025384
1.65745
-0.0245784
0.000246129
1.664
-0.0296616
-0.00084886
1.67565
-0.0441173
-0.00107954
1.69125
-0.0587614
-0.000830652
1.71087
-0.0739204
-0.00136609
1.73434
-0.088313
-0.00123387
1.7607
-0.104011
7.21189e-05
1.78838
-0.118214
0.00274816
1.81771
-0.135072
0.00632636
1.8493
-0.157821
0.00740126
1.88496
-0.177479
0.00210116
1.92786
-0.183038
-0.00773314
1.97772
-0.174624
-0.0162196
2.03128
-0.159599
-0.0213197
2.08717
-0.141017
-0.025722
2.14478
-0.128822
-0.0289482
-0.105382
-0.0490779
1.60008
-0.00012753
8.7886e-05
1.59998
-0.000897859
0.000237923
1.59995
-0.00228113
0.000413067
1.59989
-0.00430406
0.00063364
1.60106
-0.00619828
0.000756826
1.60016
-0.0068176
0.00128502
1.59943
-0.0121342
0.00308243
1.59958
-0.0252709
0.00401401
1.60627
-0.0459999
0.00579737
1.62156
-0.0893042
0.00810991
1.63941
-0.0844258
0.00887376
1.66597
-0.0547039
0.0072726
1.65603
-0.060503
0.00384903
1.65578
-0.0248053
0.000471849
1.66018
-0.0335428
-0.000543473
1.67129
-0.0548619
-0.000405307
1.68637
-0.0737666
-0.000115545
1.70574
-0.0923221
-0.00098782
1.72951
-0.111027
-0.00108614
1.75686
-0.131339
-9.79746e-05
1.78689
-0.149373
0.00104774
1.81951
-0.168826
0.00105544
1.85361
-0.191056
-0.00091215
1.88995
-0.207173
-0.00668435
1.93008
-0.210316
-0.0129243
1.97396
-0.201252
-0.0173501
2.01987
-0.185972
-0.0196409
2.06745
-0.166622
-0.0220845
2.11631
-0.153733
-0.0240443
-0.128574
-0.0407571
1.60005
-0.000236917
8.6265e-05
1.60004
-0.00110837
0.000253813
1.59966
-0.00231104
0.000444966
1.59913
-0.0044531
0.000719703
1.59947
-0.00740927
0.000900493
1.60122
-0.00932848
0.000788901
1.59872
-0.0132276
0.00363578
1.59754
-0.0301444
0.00610406
1.60192
-0.0593578
0.00900145
1.60703
-0.107776
0.0134275
1.64458
-0.136873
0.0148787
1.66093
-0.0838687
0.0127658
1.65856
-0.0645826
0.00634544
1.65193
-0.0197713
0.00153762
1.65392
-0.0367088
0.00114825
1.66597
-0.0688645
0.00190129
1.68245
-0.0929215
0.00262718
1.70322
-0.115172
0.00205223
1.72877
-0.138859
0.00223662
1.75799
-0.162909
0.00226339
1.78976
-0.181793
0.000563205
1.82257
-0.198467
-0.0032309
1.85536
-0.215459
-0.00844066
1.8887
-0.226936
-0.0136254
1.92365
-0.228427
-0.0169058
1.96054
-0.219991
-0.0182452
1.99858
-0.205898
-0.0182146
2.03792
-0.187284
-0.0187924
2.07819
-0.174624
-0.019477
-0.149362
-0.0322928
1.60012
-0.000413777
8.40334e-05
1.59997
-0.00116796
0.00024505
1.59977
-0.00245307
0.000378719
1.59897
-0.0043703
0.000744987
1.59755
-0.00729528
0.00134328
1.5986
-0.0112077
0.000870652
1.59765
-0.0153734
0.00313623
1.59111
-0.0325855
0.0090202
1.5893
-0.0716761
0.0142334
1.60191
-0.029091
0.0222991
-0.0355544
-0.0352471
-0.0427214
1.65138
-0.0527837
0.0263449
-0.0461291
-0.0604749
-0.0532772
1.67905
-0.0346166
0.0252601
-0.0275943
-0.0378177
-0.0368033
1.6646
-0.0109448
0.0140098
-0.00782478
-0.021308
-0.0241405
1.65039
0.001161
0.00847308
0.00274903
-0.009127
-0.00885094
1.65386
-0.0520465
0.0118153
1.66702
-0.0968983
0.0148102
1.68298
-0.126507
0.0175663
1.69698
-0.14888
0.0196873
1.71277
-0.174657
0.0199564
1.73237
-0.197753
0.0151435
1.75646
-0.212586
0.00661055
1.78299
-0.222338
-0.00271758
1.81156
-0.231629
-0.0124408
1.84227
-0.239434
-0.0182648
1.87546
-0.241775
-0.0199133
1.9107
-0.236271
-0.0190538
1.94685
-0.225037
-0.0171219
1.98353
-0.208152
-0.0159281
2.02052
-0.196246
-0.015464
-0.170709
-0.0239349
1.59998
-0.000445063
8.16584e-05
1.60008
-0.00141795
0.00018194
1.60021
-0.00240946
-0.000136984
1.59961
-0.00404235
0.000304595
1.59648
-0.00655745
0.00242699
1.59359
-0.010396
0.0021157
1.59129
-0.0162422
0.00321492
1.57791
-0.0315029
0.0123772
0.393423
-0.014928
0.0221334
0.391174
0.391963
0.389658
-0.0229612
-0.0178987
-0.0262603
0.395947
-0.0346434
0.00308699
0.407188
-0.0623785
0.00401849
-0.401597
-0.416148
0.431992
-0.0545368
0.00411534
-0.436435
0.435679
-0.0101861
-3.91479e-05
-0.428304
0.422843
0.00764393
-0.00105367
1.60785
-0.0744902
0.0646225
-0.415598
-0.40584
-0.41497
-0.413686
1.57166
-0.13344
0.072664
1.53727
-0.159852
0.067687
1.51413
-0.183332
0.0575887
1.50549
-0.208844
0.0427567
1.51548
-0.23052
0.0226713
1.54461
-0.245766
0.00398508
1.58878
-0.255383
-0.0111714
1.64289
-0.263719
-0.0220667
1.70161
-0.272163
-0.0260433
1.76052
-0.275919
-0.024845
1.81628
-0.270952
-0.0211776
1.86701
-0.258909
-0.0169724
1.91239
-0.239919
-0.0137314
1.95442
-0.226258
-0.0121214
-0.196036
-0.0159661
1.59992
-0.000411402
8.12037e-05
1.5997
-0.0013597
0.000184951
1.60005
-0.00243937
-0.000288845
1.60016
-0.00372803
-0.0003907
1.59649
-0.0051519
0.00230329
1.59073
-0.00853129
0.00393148
1.5839
-0.0144761
0.00511878
0.392195
-0.0257351
0.0158846
0.390859
0.390281
0.388987
0.38852
-0.0138058
0.00259638
0.386414
-0.0499226
0.00801823
0.0411925
-0.385402
0.400069
0.0116141
-0.394158
0.0767426
-0.0297851
-0.0178607
-0.0245094
-0.0220093
0.41006
-0.418543
0.0848432
-0.0350837
-0.0379073
-0.041893
-0.0404109
0.0285957
0.0116442
0.0168887
0.0215368
-0.368727
0.323463
0.0252543
-0.0151158
-0.0251036
-0.0130685
-0.0190974
0.0252379
0.0202029
0.0199826
0.0269216
-0.28998
0.26188
0.00271063
-0.0106393
-0.0137896
-0.0131325
-0.010083
0.0169672
0.0191111
0.020825
0.0161029
0.883621
-0.152704
0.0416938
-0.23702
-0.157238
-0.260549
-0.19242
0.922547
-0.194421
0.021972
0.978001
-0.212505
-0.00283456
1.0487
-0.230527
-0.0235072
1.12734
-0.24952
-0.0380011
1.21168
-0.269295
-0.0456319
1.30077
-0.291621
-0.0432954
1.398
-0.314366
-0.0382864
1.5029
-0.332986
-0.0356711
1.60651
-0.342247
-0.0335866
1.69888
-0.338984
-0.0293738
1.77523
-0.324117
-0.0232873
1.83588
-0.302634
-0.0170362
1.88338
-0.27562
-0.0119123
1.92285
-0.256751
-0.0090834
-0.219009
-0.00869468
1.59989
-0.000353337
8.23857e-05
1.59949
-0.00117883
0.000251739
1.59898
-0.00209528
0.00019869
1.59874
-0.00315745
-0.00030698
1.59661
-0.0044347
0.00144687
1.58946
-0.00600135
0.00465933
1.57652
-0.00806981
0.00659712
0.388124
-0.0110851
0.0179101
0.386555
0.385558
0.383796
0.379065
-0.00741289
0.00425582
0.0122875
0.0114096
-0.0926502
0.0912468
-0.0108889
0.000980527
0.0215409
-0.0992481
0.0948983
0.000961389
-0.00606745
-0.00289272
-0.00505311
-0.00382008
0.0850588
-0.0400308
0.0553269
-0.0796707
-0.0101028
-0.000415085
-0.00281341
-0.00740514
-0.0563682
0.0270198
0.0544706
-0.0182794
-0.00172994
-0.00151157
-0.00192969
-0.00158189
-0.0525225
0.0281341
-0.0301661
0.00582293
0.0487509
0.83321
-0.199466
-0.0760788
-0.132065
-0.145127
-0.229176
-0.204169
0.946439
-0.233245
-0.0744925
1.05309
-0.251514
-0.0676648
1.15076
-0.267963
-0.0602124
1.24354
-0.289667
-0.0526604
1.33746
-0.320475
-0.042803
1.43374
-0.354545
-0.0333936
1.53333
-0.380856
-0.0331254
1.63201
-0.393781
-0.0379139
1.72027
-0.391711
-0.0388418
1.79146
-0.376386
-0.0338583
1.84489
-0.351688
-0.0259462
1.88327
-0.323105
-0.0180168
1.9102
-0.291338
-0.011332
1.92964
-0.269292
-0.00699118
-0.228592
-0.00274922
1.59988
-0.000286282
8.20828e-05
1.59945
-0.000969208
0.000249816
1.59889
-0.00170122
0.000195074
1.59859
-0.00251619
-0.000310239
1.59636
-0.0036171
0.00144534
1.58918
-0.00343379
0.00464761
1.57593
-0.00136823
0.00660431
0.386401
0.00441498
0.0180834
0.387487
0.383631
0.384905
0.00304909
0.37719
0.00158706
0.00463487
0.0013575
-0.0896782
0.0831073
0.00346821
0.00171992
-0.0422248
-0.0398255
0.0655423
0.0823441
-0.0095855
-0.0233509
-0.0174535
-0.0156677
-0.0198765
-0.0639423
0.0594328
0.0255364
-0.00114532
-0.0452826
-0.00648775
0.0112471
0.000539578
0.0400718
1.29336
-0.299394
-0.0272645
-0.208659
-0.346185
-0.258638
-0.352791
1.36979
-0.264154
-0.045598
1.43442
-0.265624
-0.0505446
1.49533
-0.275243
-0.0536264
1.55485
-0.293629
-0.0555734
1.61594
-0.321332
-0.0602815
1.6801
-0.353128
-0.0655971
1.74406
-0.376365
-0.0684672
1.80194
-0.386157
-0.0655239
1.84885
-0.382085
-0.0565785
1.88334
-0.366464
-0.04447
1.90655
-0.342755
-0.0322309
1.92055
-0.315644
-0.0215568
1.92743
-0.28558
-0.0127551
1.92856
-0.264097
-0.00641323
-0.225201
0.00201999
1.59989
-0.000225907
8.02823e-05
1.59959
-0.00082501
0.000178918
1.5998
-0.00158104
-0.000300369
1.5997
-0.00197668
-0.000412363
1.59579
-0.00193665
0.00225871
1.58958
-0.00105713
0.00386142
1.58195
0.00122423
0.0050899
0.38997
0.0117962
0.0162513
0.391123
0.388101
0.389209
-0.00703617
0.384165
0.00915369
0.00371448
-0.0101625
0.0495241
0.0138205
-0.0148942
-0.0118335
-0.0172337
0.0918323
0.0893701
0.0912344
0.0934221
-0.375252
-0.0466547
-0.0985387
0.105332
0.00366288
0.0361172
-0.037449
-0.105073
0.102628
0.0215345
0.0184278
0.00341613
-0.101536
0.103872
0.00799988
-0.013727
0.0236268
-0.107521
-1.83324e-05
0.106615
-0.022679
1.62017
-0.222839
-0.082698
-0.407734
-0.405853
-0.398535
-0.402002
1.63523
-0.199867
-0.0794118
1.64888
-0.204059
-0.0752446
1.66622
-0.219286
-0.073314
1.68541
-0.23803
-0.0748074
1.71433
-0.265669
-0.0846246
1.75397
-0.300662
-0.0921238
1.79843
-0.330312
-0.0905223
1.84091
-0.347896
-0.0807554
1.87455
-0.349628
-0.0661423
1.89808
-0.339812
-0.0502403
1.91187
-0.321002
-0.0356275
1.91722
-0.297728
-0.023361
1.91553
-0.270836
-0.0131641
1.90765
-0.250839
-0.00546138
-0.214562
0.00682189
1.59994
-0.000213473
8.00416e-05
1.5999
-0.000933924
0.000171918
1.59981
-0.00130171
-0.000161627
1.59888
-0.0012802
0.000256739
1.59525
-0.000635192
0.00235427
1.59169
0.000508195
0.00202174
1.58842
0.00140685
0.00313115
1.57294
0.0148307
0.0124782
0.389135
0.0526951
0.0239339
-0.0102418
-0.0201263
-0.0116263
-0.0214155
0.392161
0.387747
0.390745
-0.0400548
0.390866
0.0322539
0.00594687
-0.0900896
0.417762
0.0645399
0.00956288
-0.401892
-0.025203
-0.432433
0.439432
0.0167629
0.00145746
0.0398519
-0.43428
0.428914
-0.0326315
-0.00167534
0.0645
-0.422502
0.414339
-0.0512553
-0.00505973
1.61114
-0.163143
-0.0468587
-0.406807
-0.405484
-0.405846
-0.4059
1.61261
-0.152699
-0.048705
1.6165
-0.15739
-0.050611
1.62498
-0.175731
-0.0520553
1.64061
-0.193757
-0.0599281
1.67498
-0.218121
-0.0819505
1.72713
-0.25522
-0.0976194
1.78309
-0.289351
-0.0969358
1.83139
-0.310641
-0.0855635
1.86813
-0.317246
-0.0691541
1.89181
-0.311573
-0.0519781
1.90292
-0.295542
-0.0366574
1.90399
-0.275061
-0.0238336
1.89672
-0.25077
-0.0128912
1.88225
-0.232139
-0.00431679
-0.198527
0.0113936
1.60006
-0.000331145
8.18797e-05
1.59973
-0.000805701
0.000230665
1.5992
-0.00109385
0.000347513
1.59794
-0.000684917
0.000690638
1.59588
0.000190147
0.00125732
1.59607
-0.000399599
0.000745383
1.59407
0.000485776
0.00295003
1.58622
0.0139139
0.00880214
1.5853
0.0393607
0.0142669
1.60657
0.0836886
0.0226393
-0.0254905
-0.0340922
-0.0296025
-0.0384692
1.66381
0.0926795
0.0197833
-0.0491616
-0.0309682
-0.0536417
-0.0359219
1.67163
-0.00749692
0.00257782
-0.00589257
0.00783645
-0.00687484
0.00215261
1.64758
-0.0509372
-0.0143719
0.0248923
0.0267704
0.0201418
0.0176712
1.62362
-0.113982
-0.0226611
0.0395783
0.0425824
0.0368714
0.0416238
1.61218
-0.124601
-0.0271501
1.61126
-0.12193
-0.0299107
1.61855
-0.131973
-0.0327646
1.62528
-0.146326
-0.0361603
1.63853
-0.162762
-0.0442757
1.6714
-0.181973
-0.0690499
1.72525
-0.215409
-0.0936868
1.78299
-0.249308
-0.0977957
1.83231
-0.272021
-0.0879487
1.86765
-0.28087
-0.071746
1.8876
-0.277404
-0.0541742
1.89486
-0.264637
-0.0382398
1.89137
-0.246914
-0.0247543
1.8785
-0.224978
-0.0130227
1.85776
-0.207946
-0.00352891
-0.177535
0.0154401
1.59998
-0.000368223
8.314e-05
1.59974
-0.000773591
0.00023649
1.59896
-0.000697918
0.000407953
1.59785
-0.00019977
0.000653708
1.5974
-0.000129404
0.000792335
1.59812
-0.00171611
0.00061348
1.59443
0.000859047
0.00334943
1.59198
0.0107137
0.00567244
1.59596
0.0271159
0.0082867
1.60352
0.0639836
0.0121619
1.64199
0.0439133
0.0103204
1.64733
-0.0135244
0.000713133
1.6353
-0.0293261
-0.00953554
1.61974
-0.0820826
-0.0163287
1.61058
-0.0951641
-0.0203109
1.61056
-0.0987138
-0.0232654
1.61385
-0.10848
-0.0268427
1.61963
-0.120506
-0.0316312
1.63149
-0.135069
-0.0395829
1.66319
-0.149722
-0.0639858
1.71873
-0.177338
-0.0936324
1.77867
-0.208286
-0.100967
1.82902
-0.230436
-0.0919347
1.86382
-0.240267
-0.0754258
1.88225
-0.238711
-0.0571769
1.88621
-0.228363
-0.0403097
1.8782
-0.21303
-0.0259589
1.86061
-0.19424
-0.0132456
1.83454
-0.179168
-0.00278885
-0.152426
0.0191435
1.59999
-0.000418392
8.43843e-05
1.59962
-0.000597091
0.000217912
1.59913
-0.000548429
0.000369536
1.59838
1.50891e-05
0.000555888
1.59863
-0.000980702
0.000629641
1.59653
-0.000677101
0.00107749
1.59435
0.000321504
0.00274667
1.59291
0.00870927
0.00346819
1.59813
0.0170993
0.00483001
1.61261
0.0431451
0.00638362
1.62786
0.0235804
0.00510279
1.64558
-0.0308312
-0.000393525
1.62573
-0.00268103
-0.006772
1.61516
-0.0591788
-0.0123289
1.60793
-0.0716204
-0.0163536
1.60673
-0.0775026
-0.0200747
1.60914
-0.0863723
-0.0245802
1.61492
-0.096043
-0.0302782
1.62627
-0.107944
-0.0385068
1.65679
-0.117954
-0.0623151
1.71276
-0.138504
-0.0948177
1.7741
-0.164943
-0.104689
1.82516
-0.185213
-0.0962718
1.85952
-0.195224
-0.0794228
1.87629
-0.195234
-0.0602862
1.87745
-0.187276
-0.0423098
1.86613
-0.174719
-0.0270754
1.84428
-0.159118
-0.0133644
1.81338
-0.146362
-0.00197569
-0.124079
0.022609
1.59998
-0.000453999
8.28553e-05
1.59969
-0.000484167
0.000197888
1.59921
-0.000364955
0.000326574
1.59856
0.000208828
0.000478803
1.59795
-0.00088534
0.00053256
1.59648
-0.000207945
0.00102784
1.59444
0.000316626
0.00207367
1.59498
0.0058718
0.00232741
1.59841
0.0107925
0.00290758
1.61028
0.0280157
0.00329579
1.61937
0.0121854
0.00232459
1.61512
-0.025349
-0.00121464
1.61843
-0.000332091
-0.00565001
1.61079
-0.0412951
-0.0102533
1.60491
-0.0515406
-0.0142378
1.60325
-0.0575022
-0.0184122
1.60531
-0.0649764
-0.0235102
1.61115
-0.0719832
-0.0299228
1.62253
-0.0808587
-0.0384968
1.65225
-0.086624
-0.0610959
1.70784
-0.0997629
-0.0943591
1.77009
-0.120064
-0.107132
1.82164
-0.137142
-0.0995975
1.85559
-0.146452
-0.0827132
1.87088
-0.147659
-0.0628942
1.86957
-0.142134
-0.0438929
1.85517
-0.132667
-0.02772
1.82971
-0.120663
-0.0130799
1.79492
-0.110749
-0.000890862
-0.0933658
0.0259509
1.59994
-0.000445912
7.90937e-05
1.59975
-0.000453979
0.00018104
1.5993
-0.000183181
0.000293945
1.59885
0.000259609
0.000420107
1.59805
-0.0005397
0.000478377
1.59707
-4.47542e-05
0.000841263
1.59644
-0.000614894
0.00159152
1.59622
0.0045178
0.00160326
1.59912
0.00605683
0.00187318
1.60855
0.0170136
0.00161012
1.61415
0.0058794
0.000731244
1.60843
-0.0179451
-0.00167742
1.61314
0.00034375
-0.00537696
1.60731
-0.0262919
-0.00918261
1.60234
-0.0334837
-0.0131384
1.60054
-0.0381117
-0.0176577
1.60239
-0.0436027
-0.023265
1.60849
-0.0478579
-0.0302473
1.62027
-0.0536372
-0.039049
1.64948
-0.0561439
-0.0597205
1.70427
-0.0627911
-0.091776
1.767
-0.0758836
-0.106896
1.81886
-0.0882954
-0.100669
1.85237
-0.0957986
-0.0841467
1.86635
-0.0975809
-0.0640775
1.86291
-0.0943831
-0.0443606
1.84591
-0.0882567
-0.0274755
1.81743
-0.0801687
-0.0120812
1.77949
-0.0735978
0.000722843
-0.0613996
0.0292739
1.59995
-0.000444437
7.61706e-05
1.59974
-0.000391075
0.000167994
1.59945
-0.000145091
0.000269831
1.59907
0.000280382
0.000381959
1.59836
-0.00029082
0.000481549
1.59798
-0.000331305
0.000686512
1.59614
2.00695e-06
0.00124611
1.59719
0.00234919
0.00114918
1.59979
0.00224738
0.00123927
1.60738
0.00865855
0.000786727
1.61107
0.00231478
-0.000123788
1.6046
-0.00932064
-0.00215895
1.60975
0.000263472
-0.00509493
1.60492
-0.0128805
-0.008633
1.60048
-0.0165789
-0.0125716
1.59864
-0.0190754
-0.0173073
1.60052
-0.022252
-0.0233092
1.60684
-0.023652
-0.0305589
1.61916
-0.0266104
-0.0393754
1.6482
-0.0272783
-0.0579593
1.70238
-0.029523
-0.087466
1.76541
-0.0354551
-0.103438
1.81743
-0.041875
-0.0983911
1.85047
-0.0462143
-0.0825956
1.86327
-0.0475748
-0.0628117
1.85802
-0.046256
-0.0429122
1.83891
-0.0434232
-0.0257942
1.80803
-0.039331
-0.0100287
1.76783
-0.0364166
0.00295391
-0.0294253
0.03278
1.5995
7.50563e-05
1.59895
0.000166136
1.59857
0.000253231
1.59849
0.000364143
1.59773
0.000490515
1.5968
0.000606353
1.59578
0.00103818
1.59722
0.000927609
1.59855
0.000926827
1.60677
0.000455925
1.60962
-0.000534147
1.60273
-0.00243862
1.60806
-0.00507622
1.60364
-0.0085041
1.59945
-0.0124456
1.59761
-0.0172918
1.59883
-0.0234994
1.60605
-0.0308796
1.61876
-0.0393435
1.64837
-0.0569035
1.70331
-0.0844598
1.76707
-0.099197
1.81901
-0.0937923
1.85124
-0.0784279
1.86268
-0.0590249
1.85579
-0.0393834
1.83499
-0.0226572
1.80244
-0.00681656
1.76054
0.00545452
0.0369829
1.59971
0.0002856
0.000109153
1.59959
-2.37416e-07
0.000341884
1.59984
-0.000510027
0.00060011
1.60035
-0.000901546
0.000889224
1.60166
-0.00201963
0.00139058
1.60296
-0.00229056
0.00188094
1.6048
-0.002881
0.00252236
1.60942
-0.00623689
0.00324121
1.6145
-0.00695159
0.00392466
1.62108
-0.00860642
0.00430755
1.63161
-0.0124896
0.00425729
1.63228
-0.00178288
0.00287376
1.64661
-0.0153713
0.00197799
1.6579
-0.0111709
-0.000292544
1.6675
-0.00866378
-0.00196507
1.68063
-0.0114506
-0.00319135
1.69971
-0.0162681
-0.00432696
1.72088
-0.0204554
-0.00236132
1.74465
-0.0225329
-0.00257977
1.77119
-0.0257873
-0.000935321
1.79941
-0.0287422
0.0024083
1.83289
-0.0371534
0.010524
1.88602
-0.0555142
0.0191821
1.96886
-0.0701842
0.00805542
2.06697
-0.0676787
-0.025473
2.15714
-0.0549988
-0.0529732
2.23439
-0.0442846
-0.0642937
2.30211
-0.0367889
-0.0705561
2.36887
-0.0334432
-0.076838
-0.025874
-0.1056
1.6001
0.000177793
0.000111276
1.60028
-0.000300017
0.000349593
1.60062
-0.00111604
0.00061372
1.60103
-0.00166612
0.000868328
1.60168
-0.00351196
0.00151276
1.60303
-0.00468316
0.00199797
1.60504
-0.00595143
0.00272752
1.60904
-0.0119867
0.00358503
1.61514
-0.0151552
0.00445299
1.6232
-0.0190999
0.00503246
1.63179
-0.0234161
0.00509894
1.63318
-0.00415883
0.00319216
1.64665
-0.0305395
0.0028102
1.65873
-0.0232379
-0.000111305
1.66855
-0.0176026
-0.00190034
1.68185
-0.0232544
-0.00295801
1.70056
-0.0321524
-0.0042498
1.71948
-0.038648
-0.00232142
1.74296
-0.0448116
-0.00246491
1.76994
-0.0520892
-0.00068568
1.80018
-0.0592837
0.00302207
1.83797
-0.0772669
0.0107516
1.89109
-0.109266
0.017546
1.96399
-0.132473
0.00789425
2.04743
-0.126624
-0.020572
2.12833
-0.106193
-0.0445808
2.20122
-0.087937
-0.0556484
2.26702
-0.074227
-0.0625036
2.33098
-0.0666551
-0.0696821
-0.0538783
-0.0967989
1.60006
0.00010862
0.00011608
1.60027
-0.000641126
0.000366044
1.60043
-0.00154405
0.000645445
1.60078
-0.00232084
0.000849691
1.6011
-0.00491044
0.00173787
1.60192
-0.0066418
0.00224291
1.60517
-0.0103638
0.00316745
1.60761
-0.0164936
0.00432851
1.61358
-0.0237846
0.00562932
1.62212
-0.0308254
0.00665405
1.62494
-0.0293842
0.00696274
1.63478
-0.0154256
0.00459601
1.64839
-0.046539
0.00388565
1.6579
-0.0327833
3.85239e-05
1.66679
-0.0255753
-0.00193565
1.67955
-0.0346358
-0.00279583
1.69744
-0.0476453
-0.00366451
1.71697
-0.0569233
-0.00286473
1.74094
-0.0673024
-0.0027811
1.7688
-0.0787628
-0.00113233
1.8027
-0.0920562
0.00207264
1.84748
-0.121424
0.00822128
1.90427
-0.162835
0.0113677
1.96737
-0.183578
-0.000637654
2.03562
-0.174331
-0.022467
2.10455
-0.150993
-0.0394135
2.16988
-0.128775
-0.0479969
2.23055
-0.110427
-0.0542268
2.2903
-0.0992607
-0.0611687
-0.0816136
-0.0862894
1.60009
3.46157e-06
0.000122884
1.60016
-0.000846185
0.000389084
1.60028
-0.00194822
0.00069169
1.6006
-0.00294316
0.000894605
1.60064
-0.00623638
0.00199407
1.60076
-0.00809908
0.00261769
1.60236
-0.0133657
0.00386395
1.60545
-0.022192
0.00556291
1.61126
-0.0332825
0.00767558
1.62139
-0.0451379
0.00937325
1.63138
-0.0439569
0.0103064
1.63867
-0.0244397
0.00629805
1.64926
-0.0610969
0.00651882
1.65685
-0.0406595
0.000525984
1.66424
-0.0319442
-0.00188108
1.67639
-0.045373
-0.00251164
1.69365
-0.0627545
-0.0030226
1.71337
-0.0749503
-0.00307866
1.73756
-0.0896828
-0.00304619
1.76689
-0.105446
-0.00261167
1.80557
-0.126161
-0.00187902
1.8557
-0.165964
0.000689267
1.91024
-0.209327
-0.000672432
1.96471
-0.224856
-0.0111081
2.02169
-0.213744
-0.0253355
2.08003
-0.189905
-0.0357013
2.13685
-0.165712
-0.0412607
2.19075
-0.14409
-0.0460171
2.24447
-0.130051
-0.0519183
-0.108173
-0.0742697
1.60009
-0.00010644
0.000131069
1.60008
-0.000979984
0.000416966
1.60015
-0.00232619
0.000749761
1.60081
-0.00392813
0.000986204
1.59738
-0.00307976
0.00105797
1.59942
-0.0131814
0.00435956
1.60026
-0.0159648
0.00486004
1.60194
-0.027275
0.00744141
1.60825
-0.0447456
0.0109876
1.62232
-0.0650264
0.0139933
1.63858
-0.0676963
0.0163621
1.66604
-0.0549266
0.0102399
1.65267
-0.0533527
0.00943968
1.65559
-0.0439723
0.000863606
1.66071
-0.036075
-0.00154676
1.67233
-0.0556235
-0.00179235
1.68875
-0.0772083
-0.00212554
1.70833
-0.0927232
-0.00280264
1.73274
-0.11202
-0.00317308
1.76453
-0.132139
-0.00524653
1.80783
-0.159754
-0.00871265
1.85993
-0.206481
-0.0105609
1.90847
-0.245314
-0.0134974
1.95552
-0.25773
-0.020877
2.00344
-0.246359
-0.0282631
2.05222
-0.223029
-0.0330606
2.10026
-0.197987
-0.0354534
2.14643
-0.174181
-0.0382256
2.19282
-0.157948
-0.0425788
-0.132717
-0.061326
1.60016
-0.000297936
0.000140217
1.60006
-0.00103015
0.000431752
1.59984
-0.00241093
0.000783357
1.59991
-0.00439759
0.00115278
1.6033
-0.00593816
0.000397807
1.59782
-0.0128655
0.00598514
1.59759
-0.0182814
0.00620806
1.59757
-0.0312625
0.0101453
1.60277
-0.0570458
0.0161866
1.62075
-0.0917997
0.0222327
1.65557
-0.114932
0.027286
1.66371
-0.0683885
0.0180982
1.67095
-0.0689007
0.0146432
1.65389
-0.0275468
0.00221
1.65581
-0.037243
0.000400595
1.66766
-0.0673083
0.00170287
1.68304
-0.092154
0.0021481
1.70216
-0.111381
0.00157538
1.72754
-0.134933
-0.000255116
1.76279
-0.157638
-0.00755759
1.80971
-0.189265
-0.0168899
1.85638
-0.234271
-0.0221381
1.89887
-0.270249
-0.0260175
1.93855
-0.281688
-0.029373
1.97813
-0.271814
-0.0310713
2.01807
-0.249997
-0.031264
2.05754
-0.225094
-0.0306245
2.09578
-0.200118
-0.0311526
2.13433
-0.182362
-0.033661
-0.154696
-0.048116
1.6
-0.000332958
0.000142575
1.60022
-0.00141478
0.000436196
1.60001
-0.00226751
0.000481546
1.59966
-0.00436748
0.00109218
1.60003
-0.00670486
0.0017745
1.59441
-0.0114633
0.00512179
1.59006
-0.0198646
0.00910151
1.58922
-0.0352698
0.0139343
1.59659
-0.0743325
0.0241635
1.60609
-0.0297229
0.0362827
-0.0319358
-0.0287255
-0.0249294
1.64685
-0.0483155
0.0483721
-0.0460482
-0.0404096
-0.0429403
1.66568
-0.0269675
0.0363815
-0.0275842
-0.0206851
-0.02313
1.65756
-0.0146723
0.0238842
-0.0221669
-0.0111747
-0.022671
1.6479
-0.00491028
0.00719936
-0.00531886
-0.00219924
-0.00416592
1.65047
-0.0341973
0.00622152
1.66376
-0.0766566
0.0108329
1.67894
-0.102626
0.0128197
1.69864
-0.123146
0.0117454
1.72565
-0.146829
0.00480463
1.76227
-0.167888
-0.01129
1.80176
-0.195669
-0.0265175
1.83905
-0.240795
-0.0335098
1.87298
-0.279365
-0.0372793
1.90589
-0.296002
-0.0368925
1.93917
-0.290977
-0.0340628
1.97257
-0.272126
-0.0303677
2.00535
-0.248196
-0.0268577
2.03697
-0.222709
-0.0250089
2.06854
-0.203905
-0.025542
-0.174182
-0.0351384
1.60003
-0.00039429
0.000140489
1.59989
-0.00133335
0.000262696
1.59956
-0.00284734
0.00080242
1.59853
-0.00432107
0.00132739
1.59851
-0.00539342
0.00116784
1.5944
-0.0108795
0.00567708
1.58469
-0.018904
0.0120007
1.58099
-0.0379483
0.0188022
0.393219
-0.0165945
0.0376813
0.39131
0.394399
0.392128
-0.023627
-0.0168917
-0.0228095
-0.00830431
0.394804
-0.0348357
0.0118464
-0.0106294
0.405837
-0.0578251
0.0152866
-0.401029
-0.0115751
-0.413471
0.423209
-0.0401579
0.0150911
-0.00724868
-0.426064
0.425093
-0.0182296
0.0117673
-0.00414077
-0.421522
0.41705
-0.00305629
0.00676211
1.64944
0.02345
0.0115225
-0.413317
-0.414714
-0.41286
-0.413089
1.66107
-0.0360424
0.0203823
1.67369
-0.0659271
0.0183373
1.69308
-0.0933374
0.00838886
1.71715
-0.119186
-0.00897463
1.74194
-0.139993
-0.0300779
1.7637
-0.171156
-0.0423398
1.78697
-0.226699
-0.0485559
1.81719
-0.281853
-0.049824
1.85156
-0.311019
-0.0454228
1.88586
-0.311855
-0.0383003
1.91803
-0.294676
-0.0308437
1.94762
-0.270425
-0.0243881
1.97475
-0.243628
-0.0199923
2.00061
-0.223493
-0.018442
-0.19113
-0.0228482
1.59996
-0.000398655
0.000148615
1.59992
-0.00130507
0.000226564
1.59882
-0.00243451
0.000431139
1.59549
-0.00401171
0.00265313
1.59662
-0.00561663
0.00143062
1.5917
-0.0079032
0.00590892
1.58001
-0.0142946
0.012242
0.390852
-0.0282707
0.0263585
0.389115
0.391313
0.388639
-0.00648683
0.387374
-0.0157845
0.00918542
0.383117
-0.0443216
0.021103
-0.0148812
0.0399353
-0.384835
0.0284201
-0.0213428
-0.394456
0.0676564
0.100934
0.1003
0.100162
0.100916
-0.0190044
-0.0203384
-0.0222747
-0.0212227
-0.00937025
-0.104263
0.0152348
0.108017
-0.0173339
0.00771825
-0.111228
-0.0177802
0.00512627
0.110098
0.000435814
0.0133416
-0.105315
-0.0155461
-0.00213067
0.00839191
0.010372
0.104236
1.60969
0.123191
-0.0571193
-0.393315
-0.400906
-0.412734
-0.403671
1.61517
0.0345789
-0.0541692
1.61914
-0.0133983
-0.0593542
1.61915
-0.0515275
-0.0653075
1.61741
-0.0867264
-0.0687494
1.6214
-0.120437
-0.0692433
1.64358
-0.17225
-0.0644226
1.69212
-0.248284
-0.0652527
1.75188
-0.31361
-0.0636939
1.80455
-0.341905
-0.0553937
1.8453
-0.338135
-0.0438862
1.87682
-0.316894
-0.0326251
1.90213
-0.28965
-0.0231835
1.92316
-0.260422
-0.016203
1.94143
-0.238513
-0.0123819
-0.203532
-0.0117038
1.59991
-0.000362559
0.000160343
1.59965
-0.0011941
0.000425088
1.59966
-0.00211661
-9.68727e-05
1.59723
-0.00318859
0.00133267
1.59504
-0.00448038
0.00252322
1.59135
-0.0060893
0.0065718
1.58025
-0.00813992
0.0115873
0.387903
-0.0110789
0.0314603
0.387181
0.386782
0.387712
0.378196
-0.00857697
0.0127817
-0.0088554
0.0144007
-0.00624148
0.0110102
-0.0918879
0.0901258
-0.0108243
0.00786841
-0.00358156
0.00558802
-0.0243269
0.024132
-0.00542906
0.00359226
0.00104375
-0.000679993
-0.00597306
0.00651028
-0.00100365
7.97126e-05
-6.85108e-05
2.66289e-05
6.84733e-05
0.00122247
-0.00106451
-0.00756794
0.00750523
-0.000822152
0.000202782
0.000140363
0.000213536
0.000166291
-0.00665329
0.00108813
-0.00121813
0.00123315
-0.00103398
0.00658131
1.01708
-0.0513619
-0.0435473
-0.294097
-0.187486
-0.260102
-0.133439
1.09462
-0.0783157
-0.0392162
1.14794
-0.100336
-0.0340629
1.20153
-0.130307
-0.0349962
1.26923
-0.167038
-0.0400668
1.37529
-0.214483
-0.0548585
1.51788
-0.274875
-0.0733844
1.65533
-0.332062
-0.086808
1.7521
-0.364738
-0.0835669
1.80915
-0.369056
-0.0687659
1.84218
-0.353578
-0.0514699
1.86285
-0.327542
-0.0360156
1.87684