/*--------------------------------*- C++ -*----------------------------------*\
| =========                 |                                                 |
| \\      /  F ield         | OpenFOAM: The Open Source CFD Toolbox           |
|  \\    /   O peration     | Version:  2512                                  |
|   \\  /    A nd           | Website:  www.openfoam.com                      |
|    \\/     M anipulation  |                                                 |
\*---------------------------------------------------------------------------*/
FoamFile
{
    version     2.0;
    format      ascii;
    arch        "LSB;label=32;scalar=64";
    class       surfaceScalarField;
    location    "200";
    object      phi;
}
// * * * * * * * * * * * * * * * * * * * * * * * * * * * * * * * * * * * * * //

dimensions      [0 3 -1 0 0 0 0];

oriented        oriented;

internalField   nonuniform List<scalar> 
260615
(
1.59993
-5.16854e-05
0.000127846
1.59984
-0.000172773
0.000264077
1.59975
-0.000343579
0.000427192
1.59973
-0.000612282
0.000633397
1.59988
-0.00104493
0.000896091
1.60034
-0.00167992
0.00120771
1.60096
-0.00217666
0.00155058
1.60398
-0.00500459
0.00198185
1.60754
-0.00633107
0.00277149
1.61272
-0.00851862
0.00332232
1.61925
-0.0102203
0.00368345
1.61783
-0.00216643
0.00358606
1.6294
-0.0146551
0.00307693
1.62963
-0.00225775
0.00202496
1.62713
0.00162779
0.000868231
1.6237
0.00345222
-2.19508e-05
1.61978
0.00417671
-0.000266399
1.61805
0.00224987
-0.000516948
1.61639
0.00226944
-0.000612908
1.61513
0.00190294
-0.000628412
1.61421
0.00153071
-0.000611856
1.6136
0.00123354
-0.000606887
1.61317
0.00103904
-0.000596415
1.61284
0.000923027
-0.0005832
1.61257
0.00085499
-0.000571576
1.61233
0.000816576
-0.000561442
1.6121
0.000794383
-0.000561575
1.61188
0.00076554
-0.000543113
1.61166
0.000746873
-0.000532929
0.000642382
-0.000467258
1.59992
-9.80363e-05
0.000131344
1.59981
-0.000329694
0.000270394
1.59968
-0.000658243
0.000437847
1.59959
-0.00117872
0.000651761
1.59964
-0.00202478
0.000928594
1.60002
-0.00333424
0.00126858
1.60111
-0.00493057
0.00165902
1.60332
-0.00934293
0.00212557
1.60685
-0.0129286
0.00305405
1.6123
-0.0177283
0.00374679
1.61957
-0.0217489
0.00425727
1.61894
-0.00581302
0.00426743
1.63083
-0.0302081
0.00365555
1.63078
-0.00469707
0.00248946
1.62772
0.00358325
0.00110963
1.62381
0.00728519
6.81523e-05
1.62037
0.00778568
-0.000172627
1.61795
0.00510089
-0.000439324
1.61625
0.00449513
-0.000517293
1.615
0.00368386
-0.000526622
1.61412
0.0029208
-0.000504934
1.61353
0.00232154
-0.000485204
1.61312
0.00192935
-0.000465622
1.61281
0.00168871
-0.000439826
1.61255
0.00154227
-0.000412189
1.61232
0.00145909
-0.000399205
1.6121
0.0014124
-0.000390592
1.61188
0.00136279
-0.000373492
1.61167
0.00132284
-0.000368345
0.00107726
-0.000311836
1.5999
-0.000135285
0.000136607
1.59975
-0.00045731
0.000281335
1.59956
-0.000918027
0.000454688
1.59935
-0.00165637
0.000684642
1.5992
-0.00287516
0.00099407
1.59929
-0.00482552
0.0013997
1.59991
-0.00748606
0.00192409
1.6019
-0.013759
0.00241898
1.60533
-0.0200361
0.0036637
1.61129
-0.0283783
0.00467265
1.6202
-0.0361892
0.00552036
1.62127
-0.0126636
0.00576812
1.63391
-0.0477838
0.00492806
1.63325
-0.00753899
0.00350208
1.62891
0.00635698
0.00156128
1.62398
0.0120487
0.000148154
1.62003
0.0117996
-6.813e-05
1.61765
0.00788328
-0.00041326
1.61596
0.00661242
-0.000431013
1.61478
0.00532195
-0.000456075
1.614
0.00417595
-0.000467135
1.61349
0.00333463
-0.000493228
1.61314
0.00282458
-0.000529144
1.61287
0.0025393
-0.000566429
1.61264
0.00239055
-0.000598967
1.61243
0.00233551
-0.000648591
1.61222
0.00233184
-0.000698977
1.612
0.00231557
-0.000735501
1.61176
0.00235483
-0.000784643
0.002223
-0.000766559
1.59989
-0.000159328
0.000139609
1.59968
-0.000542491
0.000295225
1.59938
-0.00109705
0.000481061
1.59899
-0.00199962
0.000730955
1.59854
-0.00352097
0.00108689
1.59817
-0.00603962
0.00157977
1.59816
-0.00974988
0.00226579
1.59951
-0.0180877
0.00296414
1.60259
-0.0277982
0.00466118
1.60927
-0.041329
0.00625136
1.62119
-0.0558207
0.00770069
1.62549
-0.0250769
0.00808176
1.63901
-0.0690097
0.00768267
1.63737
-0.0114143
0.0054927
1.63069
0.0105894
0.00243395
1.62407
0.0183522
0.000297471
1.61954
0.0162774
2.62635e-05
1.61707
0.0106244
-0.000282122
1.61537
0.00851626
-0.000213262
1.61427
0.006572
-0.000155296
1.6136
0.00490627
-5.91864e-05
1.61319
0.00374952
5.12215e-06
1.61291
0.00307453
5.12694e-05
1.61268
0.00270361
8.54527e-05
1.61247
0.00251432
0.000109759
1.61225
0.00244616
0.00012491
1.61204
0.00242664
0.000135972
1.61179
0.00240277
0.000162479
1.61162
0.00236197
0.000170007
0.00202884
0.00026669
1.59986
-0.000167036
0.00014612
1.59959
-0.000574718
0.000305144
1.59916
-0.00117323
0.000512309
1.59853
-0.00216554
0.00079103
1.59769
-0.00388106
0.00120016
1.59666
-0.00683169
0.00181459
1.59564
-0.0114601
0.00271287
1.59584
-0.0220616
0.00376388
1.59796
-0.0360881
0.00615106
1.60544
-0.057531
0.00869103
1.62279
-0.0843432
0.0111421
1.65249
-0.0673489
0.0125261
1.64682
-0.0761752
0.0127995
1.64383
-0.0178299
0.00935592
1.63302
0.0173933
0.00399268
1.62397
0.026701
0.000663653
1.61894
0.0208851
0.000397204
1.61646
0.0130447
3.11219e-05
1.61486
0.010265
-0.000160184
1.61398
0.00784922
-0.000414545
1.61355
0.00591307
-0.000579352
1.61333
0.00474429
-0.000774177
1.61319
0.00421901
-0.000989435
1.61305
0.00406974
-0.00120794
1.61287
0.00412611
-0.0014221
1.61266
0.00429141
-0.00161567
1.61242
0.00444664
-0.00176919
1.61217
0.0045361
-0.00187257
1.61189
0.00460157
-0.00196329
0.004448
-0.00184526
1.59984
-0.000156744
0.000152869
1.5995
-0.000547841
0.000319283
1.59891
-0.00113102
0.000542894
1.598
-0.00211828
0.000857023
1.59667
-0.00387383
0.00132896
1.59477
-0.00702553
0.00208163
1.59251
-0.0124688
0.00326095
1.59046
-0.0248794
0.00485084
1.59025
-0.0441254
0.00821862
1.59824
-0.0777549
0.0122072
1.62517
-0.127809
0.0164748
1.64887
-0.111882
0.0207428
1.65838
-0.109378
0.0235889
1.6532
-0.0307183
0.0179932
1.63459
0.0285389
0.00744155
1.62241
0.0370187
0.00181711
1.61706
0.0240178
0.00217078
1.61427
0.013057
0.00274511
1.61278
0.00854763
0.00318003
1.61219
0.00503448
0.00339644
1.61203
0.00243949
0.00362785
1.61202
0.00101367
0.00373662
1.61205
0.000480713
0.00372809
1.61203
0.000488158
0.00361114
1.61195
0.000794367
0.00343198
1.6118
0.00126089
0.00319951
1.61162
0.0016592
0.00297276
1.61135
0.00204592
0.00276625
1.61129
0.00205857
0.00259205
0.00152072
0.00248735
1.59982
-0.000128479
0.000156447
1.5994
-0.000461091
0.00033589
1.59866
-0.000966075
0.000573358
1.59746
-0.00183803
0.000919462
1.59555
-0.00343614
0.00146429
1.59263
-0.00646841
0.00235941
1.5886
-0.0123214
0.00387646
1.58076
-0.0234303
0.00637657
1.57779
-0.0518665
0.0106865
1.58499
-0.101898
0.0169012
1.62668
-0.038252
0.0241981
-0.0484039
-0.0475601
-0.0595426
1.66401
-0.0440123
0.0368125
-0.0416868
-0.0495458
-0.0508551
1.67795
-0.0359721
0.0494078
-0.0398457
-0.0444536
-0.0525212
1.66842
-0.0189798
0.0391249
-0.000678122
-0.0283974
-0.0123283
1.63523
0.0418987
0.0198679
1.61916
0.0435253
0.00953555
1.61573
0.020618
0.00677393
1.61276
0.0107282
0.00526546
1.61177
0.00580382
0.00370201
1.61179
0.00259372
0.0023966
1.61208
0.000733813
0.00141415
1.61231
0.000262257
0.000522327
1.6124
0.000715972
-0.000316639
1.61233
0.00162972
-0.00105894
1.61211
0.00270102
-0.00167702
1.61177
0.00375803
-0.00215292
1.61136
0.00454539
-0.00246705
1.6108
0.00512239
-0.0025266
1.61039
0.00511559
-0.00264967
0.00380978
-0.00195287
1.5998
-8.43667e-05
0.000159503
1.59931
-0.00032072
0.000350588
1.59843
-0.000688483
0.000599842
1.59695
-0.0013356
0.000976183
1.59448
-0.00255591
0.00158745
1.59034
-0.00494418
0.00261842
1.58352
-0.010001
0.00448926
1.57286
-0.0207917
0.00800332
1.55838
-0.0506632
0.0132581
0.391721
-0.118745
0.0223182
0.388183
0.38832
0.384659
0.396001
-0.0439962
0.00145058
-0.405889
0.419326
-0.0621567
0.00469329
-0.423133
0.428689
-0.0538085
0.0122692
-0.429892
0.432023
-0.0323177
0.0111738
1.65791
0.0478987
0.0621051
-0.426816
-0.434791
-0.426376
-0.438004
1.6358
0.00890712
0.0567082
1.6218
-0.0232382
0.0577997
1.61277
-0.0379543
0.057673
1.60679
-0.0441061
0.0558502
1.60257
-0.04702
0.0538113
1.59927
-0.0475666
0.0515895
1.59668
-0.0459869
0.0488484
1.59465
-0.0430814
0.0458305
1.59305
-0.0395457
0.0427813
1.59177
-0.0358068
0.0398014
1.59079
-0.0322227
0.036964
1.58975
-0.0288423
0.0344211
1.5889
-0.0260782
0.0320494
1.58738
-0.0236621
0.0302895
-0.0224178
0.0289243
1.59979
-2.85528e-05
0.000161693
1.59925
-0.00014017
0.000362163
1.59826
-0.000324029
0.000619172
1.59656
-0.000658757
0.00102116
1.59363
-0.00130849
0.0016844
1.58846
-0.00260594
0.00283063
1.57894
-0.00550051
0.00501233
1.56114
-0.0122762
0.00927372
1.52648
-0.0316556
0.0156343
0.377591
-0.0984935
0.0226578
0.371959
0.371024
0.362983
0.383752
-0.0551053
-0.000190912
0.0491326
0.417463
-0.405776
0.0793451
-0.0252877
-0.0234872
-0.0292844
-0.0209504
0.00410182
0.000422911
0.00383094
-0.000358074
-0.41492
0.43283
0.0886942
-0.0496617
-0.0305182
-0.0394806
-0.0349614
0.014034
0.00959085
0.0110582
0.0131662
-0.443698
0.439906
0.0634701
-0.0301475
-0.037803
-0.0295272
-0.0268374
0.0120779
0.0182117
0.021873
0.0122617
1.13845
-0.0388208
0.0662153
-0.388448
-0.211731
-0.385499
-0.132277
1.14279
-0.0297304
0.0342771
1.15073
-0.0536738
0.0224322
1.16649
-0.061632
0.00787469
1.18762
-0.0612923
-0.00398875
1.21033
-0.0586509
-0.0111046
1.23188
-0.0543456
-0.0147845
1.25158
-0.0490946
-0.0165874
1.2692
-0.0437697
-0.0169189
1.2846
-0.0388418
-0.0160872
1.29769
-0.034454
-0.0144425
1.30853
-0.0307925
-0.0122741
1.31682
-0.0273122
-0.00981418
1.3232
-0.0253203
-0.00714613
1.32592
-0.0211165
-0.00527684
-0.0201621
-9.41527e-05
1.59976
3.31578e-05
0.000177704
1.59918
6.11801e-05
0.000381446
1.59813
8.64693e-05
0.000646993
1.59629
0.000113356
0.00106024
1.59309
0.000143876
0.00174991
1.58733
0.000183531
0.0029657
1.57623
0.000253545
0.00533957
1.55341
0.000388241
0.0101534
1.504
0.000709003
0.0170308
0.352583
0.00174712
0.0158114
0.348631
0.343096
0.343642
-0.0303458
-0.0148351
0.0493284
0.0843682
0.0898285
0.0856099
0.0886458
0.0270859
-0.100244
0.104614
-0.023761
-0.00253475
-0.00210376
-0.00174643
-0.00129393
-0.09644
0.0507375
0.0874074
-0.0121444
-0.0130839
-0.0152083
-0.0138253
0.00328292
0.00266107
0.00482501
0.00188189
-0.0430976
0.0337267
-0.0316552
0.0134391
0.0273803
0.177841
-0.0182768
-0.48243
0.0531425
0.0527915
0.101752
0.0761871
0.506231
0.0531999
-0.411357
0.702679
0.0565988
-0.30678
0.831992
0.0600399
-0.25102
0.923521
0.0616343
-0.214491
0.989005
0.061374
-0.185541
1.03657
0.0603626
-0.162278
1.07226
0.0588135
-0.14359
1.09953
0.0570015
-0.128018
1.12035
0.0549278
-0.11458
1.13615
0.0525847
-0.10283
1.14785
0.050012
-0.0924954
1.15637
0.0477336
-0.0835643
1.162
0.0444062
-0.0753507
1.1658
0.0445608
-0.0694804
0.0365037
-0.0601354
1.59975
9.38007e-05
0.000192494
1.59916
0.00026054
0.00039589
1.59809
0.000493692
0.000658032
1.59625
0.000879
0.00107468
1.59305
0.00158764
0.00176335
1.58736
0.00297639
0.00288862
1.57629
0.00600306
0.00532032
1.55352
0.0130249
0.0101213
1.50432
0.0329534
0.0169594
0.348792
0.101371
0.0155623
0.353026
0.343807
0.343525
-0.000725089
0.0317379
-0.0209405
0.0824106
0.0869565
0.0821731
0.0872253
-0.000336626
-0.098036
0.0910095
0.00993066
-0.000279407
-0.000962296
-0.000283995
-0.00102065
-0.0019648
0.0145598
-0.000575361
-0.00340293
-0.00933151
0.0265384
0.0294428
-0.408939
0.0634482
0.0652778
0.0873277
0.118674
0.36037
0.0542899
-0.334936
0.545395
0.0952109
-0.223668
0.669887
0.110621
-0.175088
0.760925
0.11683
-0.146262
0.828206
0.11874
-0.124676
0.88004
0.117763
-0.10924
0.922938
0.114815
-0.09888
0.960127
0.111565
-0.0917226
0.993272
0.108407
-0.0865984
1.02337
0.105284
-0.0827828
1.05082
0.102475
-0.0798953
1.07616
0.100351
-0.0779552
1.09849
0.0979879
-0.0759062
1.12264
0.0962367
-0.075823
0.0881513
-0.0728782
1.59976
0.000146939
0.000191117
1.59923
0.000436739
0.000357879
1.59825
0.000851726
0.000617114
1.59654
0.00154681
0.00104226
1.59361
0.0028236
0.00170025
1.58854
0.00528861
0.00275123
1.57909
0.0104597
0.00498927
1.56146
0.021437
0.00922095
1.52731
0.0516257
0.015474
0.372642
0.120122
0.0220842
0.378355
0.36365
0.371848
-0.0503799
0.0557152
-0.00406933
0.0935518
0.0907326
0.0922322
0.0949012
-0.0276777
-0.101381
0.107184
-0.00403784
0.025885
-0.00599145
-0.101642
0.101395
0.00625402
0.0292599
-0.00629858
-0.0103409
-0.0124456
-0.0332095
-0.083015
0.0160488
0.0638642
0.0361045
1.09281
-0.0644119
0.0770864
-0.195209
-0.383446
-0.119761
-0.377544
1.07066
-0.00116517
0.0776177
1.04266
0.040531
0.0826672
1.02126
0.0592076
0.0728101
1.00735
0.0697514
0.0609701
0.997315
0.0776498
0.0511001
0.989493
0.0826196
0.0429607
0.984242
0.085009
0.0350777
0.981341
0.0861761
0.0283211
0.981269
0.0864915
0.0220158
0.983034
0.0868727
0.0166697
0.986632
0.0872051
0.0116887
0.994046
0.0870959
0.00585649
1.00536
0.0869803
-0.000297491
1.02353
0.084614
-0.00655333
0.0870458
-0.0153201
1.59979
0.000186995
0.000176611
1.59933
0.000569283
0.000330933
1.59848
0.00111781
0.000579609
1.59701
0.00203352
0.000984563
1.59457
0.00368047
0.00158731
1.59047
0.0067732
0.00260935
1.58376
0.0127029
0.0044682
1.57332
0.0239295
0.00794416
1.55947
0.0524122
0.0130727
0.388853
0.102448
0.021683
0.392307
0.385374
0.388933
-0.0492969
0.392585
0.0439261
0.0016524
-0.0764294
-0.407514
0.419253
0.0597488
0.00499767
-0.0762165
-0.419675
0.428133
0.0470959
0.0211075
-0.0510869
-0.440775
0.442427
0.0241567
0.0248736
1.64133
-0.0552923
0.0625615
-0.431626
-0.424574
-0.433266
-0.423484
1.61893
-0.0433566
0.0645911
1.60033
-0.0102593
0.0693755
1.58208
0.00675179
0.0707031
1.56334
0.0179822
0.0704915
1.54308
0.0274049
0.070493
1.52074
0.0347604
0.0701956
1.49699
0.0398339
0.0689374
1.4726
0.0431768
0.0674214
1.4482
0.04559
0.0653184
1.424
0.0475854
0.0635053
1.40095
0.0489633
0.0613092
1.37946
0.0497686
0.0588241
1.36045
0.0502808
0.0557145
1.34189
0.0501649
0.0530078
0.0502898
0.0463828
1.59982
0.000209662
0.000158314
1.59942
0.000645566
0.000333807
1.59871
0.00126758
0.000560993
1.59753
0.00229245
0.000920626
1.59566
0.0040876
0.00145663
1.59281
0.00728441
0.00234499
1.58889
0.0127741
0.00384478
1.58129
0.0252309
0.00630381
1.57883
0.0443782
0.0104962
1.58718
0.0777063
0.0163972
1.63004
0.126058
0.0228402
-0.0381468
-0.0474827
-0.0474745
-0.0586305
1.66659
0.106038
0.0332954
-0.0420441
-0.0384675
-0.0475416
-0.0477314
1.6793
0.100223
0.0438302
-0.0313873
-0.0360772
-0.0403436
-0.0490225
1.66364
0.0170284
0.0342039
-0.0130823
0.00531563
-0.021995
-0.00586769
1.62882
-0.0384
0.01794
1.61288
-0.0393301
0.0118992
1.6098
-0.0197288
0.0125297
1.60737
-0.00446332
0.0136434
1.60773
0.0028781
0.0147378
1.60969
0.00899753
0.016439
1.61177
0.0141237
0.018565
1.61314
0.0178067
0.0206617
1.61355
0.0202438
0.0225475
1.61297
0.02191
0.0242725
1.61136
0.0231367
0.0260723
1.60891
0.0240642
0.027366
1.60543
0.024653
0.0286056
1.60143
0.0249065
0.0293799
1.59603
0.0252806
0.0302831
0.0244154
0.029704
1.59985
0.000213232
0.000151414
1.59952
0.000659794
0.000316656
1.59896
0.00129148
0.000535915
1.59809
0.00231515
0.000853608
1.5968
0.00406181
0.00131825
1.59497
0.00704344
0.00206316
1.59283
0.0116937
0.00322572
1.59099
0.0222907
0.00477898
1.59114
0.0361779
0.00805468
1.59975
0.0572543
0.0118378
1.62725
0.082933
0.0156332
1.65071
0.0636474
0.0189246
1.65947
0.0705906
0.020846
1.65122
0.00997502
0.0152819
1.63078
-0.0239774
0.0060109
1.61822
-0.0291302
0.00234105
1.61301
-0.0189876
0.0044587
1.61027
-0.00802502
0.0062927
1.60889
-0.00330597
0.00756557
1.60871
0.000733429
0.00844025
1.60923
0.00437417
0.00923594
1.60999
0.00721397
0.0098361
1.61082
0.00920702
0.0102285
1.61166
0.0105834
0.0104959
1.6125
0.0115709
0.0107427
1.61338
0.0123056
0.0108897
1.61415
0.012806
0.0110854
1.61485
0.0130965
0.0111076
1.61555
0.0133338
0.0112526
0.0129845
0.0110621
1.59988
0.000197827
0.000144459
1.59962
0.000613102
0.000302106
1.59921
0.00119463
0.00050758
1.59862
0.00212188
0.000783722
1.59783
0.00366614
0.0011885
1.59688
0.0062042
0.00179503
1.59597
0.0099204
0.00267738
1.59634
0.0182302
0.00369555
1.5987
0.0278039
0.00601424
1.60652
0.0410121
0.00841763
1.62409
0.0547516
0.0106032
1.65353
0.0226847
0.0115197
1.64724
0.0654628
0.0113999
1.64254
0.00670823
0.00795048
1.63026
-0.0148016
0.00309664
1.62067
-0.0203539
0.00080444
1.61568
-0.0157178
0.00170648
1.61337
-0.00799765
0.00228097
1.61186
-0.00452453
0.00273353
1.61112
-0.00151666
0.00299042
1.61092
0.00122935
0.00335025
1.61096
0.00345497
0.00372339
1.61105
0.00504415
0.00408132
1.61112
0.00610658
0.00441731
1.61118
0.00680584
0.00471755
1.61126
0.00727016
0.0049636
1.61134
0.00755908
0.00516796
1.61146
0.00770853
0.00527505
1.61154
0.00783863
0.00541299
0.00776069
0.00536011
1.5999
0.000165296
0.000137774
1.59971
0.000511957
0.000291845
1.59944
0.00099301
0.000475868
1.59909
0.00174937
0.000723024
1.5987
0.00298381
0.00107439
1.5984
0.00494526
0.00155924
1.59848
0.00760365
0.00223032
1.59997
0.0138438
0.00290061
1.60322
0.0200077
0.00454615
1.61008
0.0281032
0.00604409
1.62206
0.0354211
0.00733954
1.62613
0.0111201
0.00749244
1.63914
0.0455385
0.00691053
1.63645
0.00469034
0.00469872
1.62876
-0.00898626
0.00187503
1.62164
-0.0135
0.000256181
1.61706
-0.0117464
0.000601908
1.61468
-0.0064538
0.000828566
1.61304
-0.00417083
0.00128748
1.612
-0.00212015
0.00164932
1.61146
-0.000270887
0.00204136
1.61125
0.00125365
0.00241277
1.6112
0.00235556
0.00275181
1.61119
0.00309023
0.00303257
1.6112
0.00356603
0.00324066
1.61122
0.0038791
0.00337144
1.61125
0.0040846
0.00345411
1.61129
0.00421325
0.00345441
1.61132
0.00431961
0.0034826
0.00428991
0.00337734
1.59992
0.00011886
0.000134641
1.59979
0.000367169
0.000277708
1.59962
0.000709208
0.000449122
1.59945
0.00124126
0.00067616
1.59936
0.00209678
0.000980854
1.59952
0.00341178
0.00137852
1.60023
0.00500358
0.00188896
1.60232
0.00938927
0.00235963
1.60587
0.0128958
0.00356458
1.61192
0.0175315
0.0045084
1.62083
0.0212535
0.00525836
1.62168
0.00488329
0.00537829
1.6339
0.0288807
0.004443
1.63252
0.00306113
0.00300809
1.62744
-0.00510567
0.00119991
1.62205
-0.00818732
6.76551e-05
1.61792
-0.00784145
0.000217825
1.61554
-0.00432402
0.00024785
1.61389
-0.00307
0.00055838
1.61275
-0.00179211
0.00080929
1.61207
-0.00063921
0.00104887
1.61174
0.000328251
0.0012626
1.6116
0.00104908
0.00144805
1.61155
0.00154739
0.00160069
1.61153
0.00188297
0.0017151
1.61152
0.00211119
0.00177696
1.61152
0.0022688
0.0018212
1.61153
0.00236825
0.00183253
1.61152
0.00246281
0.00186641
0.00245551
0.00179107
1.59993
6.27423e-05
0.000129286
1.59984
0.000192201
0.00026657
1.59975
0.00036965
0.00043191
1.59971
0.000643874
0.000642686
1.59981
0.00108081
0.000914576
1.60025
0.00171791
0.00124654
1.60142
0.00221146
0.00162359
1.60372
0.00502497
0.00206833
1.60734
0.00631143
0.00296411
1.61284
0.00841711
0.00360765
1.62006
0.00997898
0.00405011
1.61922
0.00173176
0.00398179
1.63075
0.0140412
0.0033138
1.63015
0.00151845
0.00215143
1.62649
-0.00231411
0.000860923
1.62216
-0.00386178
-4.13134e-07
1.61851
-0.00419733
3.06314e-06
1.61606
-0.00187528
4.52294e-06
1.61439
-0.00157577
0.000176126
1.6132
-0.000982685
0.000375107
1.61243
-0.000430601
0.0005693
1.61198
3.64091e-05
0.000739358
1.61175
0.000391081
0.000893664
1.61163
0.00064071
0.00103797
1.61155
0.000809475
0.00116141
1.61149
0.000920136
0.00124957
1.61146
0.000989781
0.00131588
1.61144
0.00102617
0.00136635
1.61144
0.00104489
0.00141451
0.000959241
0.0013974
1.59994
0.000125832
1.59987
0.000260281
1.59982
0.000421236
1.59984
0.000624238
1.60004
0.000881971
1.60057
0.00118571
1.60127
0.0015158
1.60437
0.00192727
1.60799
0.00268819
1.6132
0.00319923
1.61967
0.00350778
1.61804
0.00335647
1.62927
0.00281493
1.62901
0.00177958
1.62599
0.000707467
1.62216
-2.94094e-05
1.61802
-6.7047e-05
1.61623
-8.61057e-05
1.61462
4.16208e-05
1.61342
0.000217428
1.6126
0.000391621
1.6121
0.000532603
1.61183
0.000667955
1.61168
0.000795177
1.61159
0.000901181
1.61153
0.000978168
1.61151
0.00101455
1.6115
0.0010322
1.6115
0.00104509
0.000985158
1.60004
-5.10109e-05
0.00013329
1.60007
-0.000170173
0.000404986
1.60011
-0.00033764
0.000722177
1.60023
-0.000600441
0.00112195
1.60051
-0.00102237
0.00163537
1.60102
-0.00145166
0.00214119
1.6015
-0.0010876
0.0021459
1.6016
-0.00322619
0.00510552
1.60516
-0.00639794
0.00560515
1.61058
-0.00850039
0.0063936
1.61396
-0.00665842
0.00695534
1.61436
-0.00331144
0.00648921
1.62398
-0.0126564
0.00610409
1.62733
-0.00515004
0.00382375
1.62465
0.00196261
0.00158339
1.62131
0.00361434
-0.000303586
1.62045
0.00234509
-0.00175826
1.61891
0.00108139
-6.35034e-05
1.61732
0.0019655
-0.000985423
1.61606
0.00180683
-0.00116681
1.61514
0.00145555
-0.00114168
1.61445
0.00117668
-0.00108319
1.61391
0.000992141
-0.0010305
1.61346
0.00087812
-0.000997568
1.61303
0.000809297
-0.000938951
1.61257
0.000761851
-0.000857381
1.61224
0.000730584
-0.000947566
1.61193
0.000691915
-0.000931481
1.61165
0.000662135
-0.000914786
0.00053982
-0.000765039
1.60004
-9.7769e-05
0.000135516
1.60005
-0.000325858
0.000412777
1.60006
-0.000648272
0.000738845
1.60012
-0.00115763
0.00115421
1.60031
-0.00198299
0.00169578
1.60105
-0.00320188
0.00226951
1.60336
-0.00417364
0.00242576
1.60351
-0.00675968
0.00550218
1.60663
-0.0124998
0.00603189
1.61157
-0.0169125
0.00720326
1.61427
-0.0131148
0.00800675
1.61592
-0.0080117
0.0073163
1.62535
-0.0260563
0.00761233
1.62981
-0.0117567
0.00463615
1.62732
0.00357553
0.00197998
1.62398
0.00705293
-3.15731e-05
1.62274
0.00509778
-0.00170003
1.61917
0.00419514
1.99689e-05
1.61723
0.00420491
-0.000811676
1.61599
0.00348582
-0.000969744
1.61512
0.00277399
-0.000939039
1.61447
0.00222671
-0.000874642
1.61396
0.00187467
-0.000818771
1.61352
0.00166651
-0.00077342
1.61307
0.00153352
-0.000675266
1.61269
0.00146177
-0.000696603
1.61237
0.00141919
-0.000758849
1.61209
0.00136887
-0.000763176
1.61182
0.00132662
-0.000764554
0.00108753
-0.000642969
1.60003
-0.000134904
0.000139618
1.60001
-0.000452435
0.000428035
1.59995
-0.000904198
0.000770804
1.59989
-0.00162626
0.00121645
1.59989
-0.00281427
0.00181976
1.60017
-0.00468037
0.00259588
1.60148
-0.00686577
0.00329254
1.60189
-0.0104781
0.00571999
1.60503
-0.0190475
0.00706339
1.61045
-0.0266253
0.00894758
1.61593
-0.0234887
0.0104032
1.61857
-0.0146095
0.00972115
1.62935
-0.0420846
0.0101671
1.63198
-0.0170444
0.00615477
1.6283
0.00627164
0.00254231
1.6239
0.0115448
4.79698e-05
1.62172
0.00851457
-0.00131395
1.61873
0.00720275
-0.000443393
1.61701
0.0063766
-0.00087277
1.61583
0.00515303
-0.000947327
1.61504
0.00405808
-0.000943993
1.61446
0.00326071
-0.000933174
1.61399
0.00278354
-0.000951609
1.61357
0.0024961
-0.000956479
1.61312
0.00234377
-0.000936675
1.61278
0.00227145
-0.00110678
1.61249
0.00223662
-0.00120903
1.61221
0.00218203
-0.001263
1.6119
0.00217055
-0.00132509
0.00196238
-0.00123081
1.60001
-0.00015897
0.00015142
1.59995
-0.000536728
0.000443271
1.59979
-0.0010803
0.000815776
1.59955
-0.00196236
0.00130514
1.59927
-0.00344325
0.00199059
1.59909
-0.00588321
0.00295537
1.59948
-0.00918066
0.0041866
1.59955
-0.014108
0.00650904
1.6024
-0.0261718
0.00891364
1.60852
-0.038384
0.0118751
1.61661
-0.0382047
0.0143105
1.62397
-0.0270702
0.0131705
1.63392
-0.0598863
0.015507
1.6358
-0.0225442
0.00909065
1.62994
0.0111352
0.00342534
1.62393
0.017985
-0.000155773
1.62097
0.0127678
-0.00127794
1.61825
0.0104185
-0.0007848
1.61656
0.00871149
-0.000856796
1.61547
0.00691663
-0.000823125
1.61478
0.0054215
-0.000722522
1.61428
0.00440985
-0.00062927
1.61383
0.00385353
-0.000557297
1.61341
0.00354508
-0.000513647
1.61301
0.00341019
-0.000537536
1.61269
0.00336538
-0.000627991
1.61239
0.00333932
-0.000656913
1.61208
0.0032825
-0.000623496
1.61183
0.00319904
-0.000605726
0.00277706
-0.000370423
1.59997
-0.00016677
0.000179517
1.59986
-0.000567426
0.000452397
1.59958
-0.00115654
0.000865503
1.59912
-0.00212412
0.00141473
1.59846
-0.00379172
0.00220637
1.59763
-0.00664286
0.00339127
1.59683
-0.0108351
0.00515534
1.59613
-0.0175513
0.0078988
1.59807
-0.0336774
0.0116935
1.60515
-0.0531273
0.0163336
1.61986
-0.0630268
0.0212144
1.65279
-0.0678531
0.0203313
1.64289
-0.0611421
0.0238793
1.64201
-0.0266436
0.0142751
1.63221
0.019867
0.00505493
1.624
0.0273799
-0.000535986
1.62019
0.0184286
-0.00147102
1.6177
0.0140391
-0.00109425
1.61613
0.0113172
-0.00119558
1.61522
0.00879999
-0.00138776
1.61474
0.00682518
-0.00148992
1.61437
0.00562907
-0.00161077
1.61398
0.00500607
-0.00173487
1.61364
0.00478
-0.00207666
1.61333
0.00475748
-0.00243186
1.61301
0.00483576
-0.00275303
1.61269
0.00489673
-0.0029916
1.61236
0.00489157
-0.00314082
1.61201
0.00484378
-0.00325491
0.0045799
-0.00299181
1.59993
-0.000156697
0.000208194
1.59975
-0.000541119
0.000475461
1.59934
-0.00111138
0.000908357
1.59862
-0.00208107
0.00153623
1.59748
-0.00378157
0.00245232
1.59584
-0.00681982
0.00389106
1.59386
-0.0118043
0.00620461
1.59195
-0.020725
0.00991421
1.5915
-0.0406496
0.0156227
1.59947
-0.0721985
0.0232734
1.6383
-0.118664
0.0332427
1.6543
-0.0973572
0.0341838
1.66968
-0.0933314
0.0403603
1.65193
-0.0164134
0.0254857
1.63486
0.0359298
0.0084606
1.62424
0.0400498
-0.000237727
1.61934
0.0260052
-0.000510541
1.61665
0.0189407
0.000539666
1.61522
0.015191
0.000739926
1.61454
0.0120906
0.000795966
1.61417
0.00979404
0.00103161
1.61393
0.00835197
0.0012653
1.61358
0.00767566
0.00142775
1.61334
0.00741592
0.00123673
1.61308
0.00736019
0.00110641
1.61278
0.00739842
0.000954385
1.61248
0.00734514
0.000839239
1.6121
0.00726779
0.000774656
1.61193
0.00684173
0.000761822
0.00580198
0.00102141
1.5999
-0.000128774
0.000224596
1.59962
-0.000455721
0.000531587
1.59908
-0.00094988
0.000948659
1.59809
-0.00179845
0.00163325
1.59642
-0.00336148
0.00271005
1.5938
-0.00627135
0.00442866
1.5903
-0.0118216
0.00738262
1.58533
-0.0218329
0.0124382
1.5799
-0.0454473
0.0208894
1.58325
-0.0924219
0.0337472
1.62314
-0.0410046
0.0522455
-0.0549618
-0.0374819
-0.0532067
1.65835
-0.0404966
0.0588958
-0.0410162
-0.0355554
-0.0376635
1.66938
-0.029695
0.0700466
-0.0403538
-0.0225606
-0.0324767
1.66322
-0.0146491
0.0475611
-0.00378959
-0.00419304
0.00389472
1.63636
0.0691419
0.0135686
1.62401
0.0608436
0.00110645
1.61857
0.0374012
0.000829995
1.61575
0.0264059
0.000626748
1.61498
0.0206776
-0.00100207
1.61495
0.0170988
-0.00257708
1.61512
0.0148264
-0.00377139
1.61504
0.0138214
-0.00485645
1.6148
0.0135872
-0.00596968
1.61449
0.0137105
-0.00702642
1.61406
0.0139373
-0.00780684
1.61354
0.0141551
-0.00837888
1.61298
0.0141498
-0.00870334
1.61239
0.0141104
-0.00876997
1.61181
0.0134241
-0.00865546
0.0124432
-0.00772288
1.59987
-8.51282e-05
0.000239943
1.5995
-0.00031764
0.000590569
1.5988
-0.000677685
0.00102028
1.59759
-0.00130821
0.00170381
1.59537
-0.00248919
0.00292879
1.59159
-0.00477922
0.00490009
1.58526
-0.00962268
0.00861113
1.57583
-0.0195827
0.0151687
1.56122
-0.0448386
0.0272501
0.389888
-0.111342
0.0493866
0.385954
0.390549
0.386654
-0.00729971
0.393465
-0.0491764
0.0118736
-0.0110807
-0.403975
0.416374
-0.0587552
0.0168943
-0.0240943
-0.4199
0.423546
-0.0383666
0.0290935
-0.0276455
-0.4255
0.426755
-0.0204041
0.0321314
1.64001
0.1638
0.0219501
-0.421824
-0.42616
-0.421979
-0.42444
1.62415
0.122251
0.0111962
1.61557
0.0852223
0.0185711
1.61205
0.0654576
0.0221573
1.61141
0.0546023
0.0225846
1.61154
0.0479142
0.0228751
1.61163
0.0436413
0.0227005
1.61157
0.0410705
0.0216761
1.61137
0.0395107
0.0201155
1.61105
0.0383602
0.0184719
1.61058
0.0372868
0.016932
1.61008
0.0360952
0.0155342
1.60942
0.0346896
0.0145483
1.60867
0.0330929
0.013816
1.60794
0.0306053
0.0138338
0.0275379
0.0153702
1.59985
-2.984e-05
0.000250475
1.59941
-0.000140136
0.000625361
1.59857
-0.000320746
0.00110643
1.59711
-0.000648111
0.00181754
1.59448
-0.00127895
0.00310979
1.58982
-0.00252249
0.00522768
1.58084
-0.00524214
0.00960549
1.56448
-0.0114301
0.0174728
1.53152
-0.0301711
0.0339087
0.372276
-0.100702
0.0692546
0.362872
0.373652
0.365462
-0.066092
0.0146536
-0.00542103
0.0539569
0.0940199
0.0939398
0.0930692
0.0941347
-0.00181928
-0.0991653
0.0212343
0.10461
-0.0273992
0.00254464
-0.106978
-0.0163246
0.0128439
0.106585
-0.0131046
0.0169666
-0.108643
-0.023695
0.00942355
-0.0120989
0.0247521
0.110266
1.56837
0.321451
-0.0405593
-0.422246
-0.351383
-0.426945
-0.418476
1.55913
0.229269
-0.0634526
1.56529
0.158638
-0.0571191
1.57528
0.120542
-0.0571778
1.58453
0.0997436
-0.0583622
1.59191
0.0875627
-0.0581296
1.59663
0.0805632
-0.0564147
1.59919
0.076593
-0.0546509
1.59982
0.0742213
-0.052244
1.59867
0.0725554
-0.049124
1.5958
0.0710133
-0.0452916
1.59131
0.069201
-0.0408855
1.5846
0.0673762
-0.0357813
1.5767
0.0643948
-0.0305504
1.56237
0.0638475
-0.0241832
0.0566138
-0.015678
1.59986
3.13104e-05
0.000252689
1.5994
5.801e-05
0.000642836
1.5985
8.12137e-05
0.00114711
1.5969
0.000103783
0.00191464
1.594
0.000130256
0.00323949
1.5888
0.000167473
0.00547359
1.57854
0.000228112
0.0101178
1.55813
0.000341911
0.0187873
1.50701
0.000623169
0.0373412
0.335728
0.00146549
0.0838583
0.333156
0.334851
0.333047
-0.0427153
0.00898856
0.011081
0.0660695
0.0703121
0.0749838
0.0715002
0.0755022
0.00231022
0.00393562
-0.00569062
0.006402
-0.00231324
-0.00110855
-0.00128843
-0.00111543
-0.00113323
-0.00831669
0.00219915
-0.00490099
0.00519092
0.00925297
-0.00076394
-0.000952979
-0.000921
-0.000785149
-0.00412852
-0.00106603
0.00148765
-0.000803219
0.000819028
0.00369762
0.888464
0.0363995
-0.473519
-0.131164
-0.0763585
-0.284416
-0.120157
1.05301
0.0143222
-0.360907
1.16688
0.00114927
-0.263138
1.24457
0.00052261
-0.20865
1.29919
0.00524248
-0.174594
1.33926
0.0115583
-0.149594
1.36933
0.0186
-0.130379
1.39266
0.0255478
-0.115847
1.41107
0.03227
-0.104455
1.4255
0.0386458
-0.0950864
1.43646
0.0442535
-0.0870247
1.44427
0.0487352
-0.0798232
1.44902
0.0522746
-0.0732101
1.45138
0.0537404
-0.0670466
1.44936
0.0573062
-0.0609212
0.0530198
-0.0532619
1.59988
9.15647e-05
0.000246298
1.59945
0.000254204
0.000630238
1.59861
0.000480345
0.00110079
1.59704
0.00085274
0.00189683
1.59418
0.00153451
0.00321845
1.58884
0.00285332
0.00554347
1.57859
0.00568458
0.0101103
1.55823
0.0120778
0.0187444
1.50728
0.0313029
0.037216
0.33329
0.103167