/*--------------------------------*- C++ -*----------------------------------*\
| =========                 |                                                 |
| \\      /  F ield         | OpenFOAM: The Open Source CFD Toolbox           |
|  \\    /   O peration     | Version:  2512                                  |
|   \\  /    A nd           | Website:  www.openfoam.com                      |
|    \\/     M anipulation  |                                                 |
\*---------------------------------------------------------------------------*/
FoamFile
{
    version     2.0;
    format      ascii;
    arch        "LSB;label=32;scalar=64";
    class       volVectorField;
    location    "200";
    object      U;
}
// * * * * * * * * * * * * * * * * * * * * * * * * * * * * * * * * * * * * * //

dimensions      [0 1 -1 0 0 0 0];

internalField   nonuniform List<vector> 
84826
(
(20 -0.000200344 0.000215094)
(19.9997 -0.000665302 0.000689739)
(19.9993 -0.00131867 0.00125492)
(19.9993 -0.0023434 0.00197052)
(20.0007 -0.00398765 0.00290044)
(20.005 -0.00658912 0.00410469)
(20.015 -0.0105531 0.00562501)
(20.0347 -0.0162495 0.00743734)
(20.0691 -0.0236263 0.00938538)
(20.1227 -0.0314615 0.0111539)
(20.1959 -0.0371813 0.0122928)
(20.2796 -0.0354539 0.0121488)
(20.3497 -0.0240207 0.0102763)
(20.3802 -0.00755186 0.00689096)
(20.3647 0.00601949 0.00293852)
(20.3213 0.0124087 -0.000351532)
(20.2752 0.0126962 -0.00224628)
(20.2401 0.0106555 -0.0029701)
(20.2165 0.00871535 -0.00317377)
(20.1993 0.00720876 -0.00321878)
(20.186 0.00593221 -0.00315752)
(20.1761 0.00490305 -0.00301332)
(20.1692 0.00409178 -0.00285579)
(20.1641 0.00334044 -0.00272742)
(20.1601 0.00256078 -0.0026296)
(20.1569 0.00178291 -0.00254975)
(20.1543 0.00108064 -0.00247355)
(20.1518 0.00043665 -0.00237412)
(20.15 -4.66988e-06 -0.00230157)
(20.1475 -0.000908735 -0.002074)
(19.9999 -0.000580991 0.000218974)
(19.9995 -0.00193356 0.000703618)
(19.9988 -0.00384175 0.00128428)
(19.9982 -0.00684895 0.00202715)
(19.9987 -0.011706 0.00300689)
(20.0016 -0.0194572 0.00430068)
(20.0097 -0.0314157 0.00597635)
(20.0274 -0.048841 0.00805075)
(20.0605 -0.0718747 0.0103892)
(20.115 -0.0969257 0.0126383)
(20.1939 -0.116198 0.0142475)
(20.2878 -0.111491 0.0142851)
(20.3668 -0.075244 0.0123597)
(20.3985 -0.0231992 0.00837528)
(20.3768 0.0193223 0.00358765)
(20.3255 0.0385938 -0.000341283)
(20.2743 0.0385 -0.00244314)
(20.2379 0.0315823 -0.00314069)
(20.2146 0.0253498 -0.00331047)
(20.1979 0.0205568 -0.00333255)
(20.1849 0.016679 -0.00321969)
(20.1754 0.0139881 -0.00299685)
(20.1686 0.0124923 -0.00273856)
(20.1636 0.0116981 -0.00248773)
(20.1597 0.0112158 -0.00224974)
(20.1567 0.01095 -0.00203613)
(20.1542 0.0109168 -0.00185782)
(20.152 0.0110458 -0.00169202)
(20.1501 0.0114692 -0.00159993)
(20.1483 0.0114011 -0.00135039)
(19.9999 -0.000907468 0.00022678)
(19.9992 -0.00303022 0.000731529)
(19.9979 -0.0060468 0.00134389)
(19.9961 -0.0108456 0.00214388)
(19.9946 -0.0186951 0.00322921)
(19.9947 -0.0314353 0.00471517)
(19.9989 -0.0515529 0.00672491)
(20.012 -0.081729 0.00936019)
(20.0418 -0.123229 0.0125642)
(20.0976 -0.170511 0.0159037)
(20.1884 -0.210339 0.0186496)
(20.3052 -0.203697 0.019113)
(20.4038 -0.136447 0.017195)
(20.4378 -0.0411023 0.0119649)
(20.4024 0.0362256 0.00518349)
(20.3335 0.0691698 -0.000288866)
(20.2716 0.0662204 -0.0028557)
(20.233 0.0525069 -0.00346575)
(20.2106 0.040868 -0.00354642)
(20.1949 0.0313605 -0.00357316)
(20.1829 0.0229789 -0.00353193)
(20.1745 0.0165424 -0.00346014)
(20.1687 0.0123129 -0.00341449)
(20.1643 0.00963219 -0.00337916)
(20.1608 0.00782907 -0.00332002)
(20.1579 0.00649029 -0.00325352)
(20.1557 0.00530086 -0.00321507)
(20.1535 0.00389199 -0.0032008)
(20.1518 0.0026849 -0.00329404)
(20.1481 -0.000118413 -0.00325002)
(19.9999 -0.0011502 0.000237065)
(19.9988 -0.00385646 0.000769665)
(19.9965 -0.00774073 0.00142623)
(19.993 -0.0140038 0.00230743)
(19.9887 -0.024439 0.00354729)
(19.9843 -0.0418027 0.00532386)
(19.9821 -0.0701633 0.00786064)
(19.9869 -0.114605 0.011421)
(20.0097 -0.179364 0.0161308)
(20.0653 -0.258577 0.0214744)
(20.1758 -0.334153 0.0263692)
(20.3336 -0.325953 0.0278849)
(20.466 -0.214264 0.0266523)
(20.5032 -0.0618332 0.0195459)
(20.4438 0.0609257 0.00891413)
(20.3444 0.108103 0.000387202)
(20.2652 0.0981574 -0.00317962)
(20.2236 0.0765364 -0.00380396)
(20.2029 0.0614843 -0.00364366)
(20.1882 0.0504109 -0.00319564)
(20.177 0.0410554 -0.00252159)
(20.17 0.0344501 -0.00184733)
(20.1655 0.0309979 -0.00130238)
(20.162 0.0301546 -0.000815661)
(20.1589 0.0312769 -0.00030249)
(20.1562 0.0336582 0.000244918)
(20.1537 0.0363287 0.000797184)
(20.1514 0.0384043 0.00135693)
(20.1488 0.0398093 0.00176376)
(20.1489 0.0389954 0.00241709)
(19.9998 -0.00128185 0.000249037)
(19.9982 -0.0043197 0.000814863)
(19.9948 -0.0087358 0.00152747)
(19.9891 -0.0159791 0.00251181)
(19.981 -0.0283319 0.0039514)
(19.9704 -0.0495637 0.00612009)
(19.9585 -0.0858167 0.00940531)
(19.9498 -0.146062 0.0143669)
(19.9586 -0.240677 0.0214583)
(20.008 -0.367819 0.0303462)
(20.1498 -0.508992 0.0387466)
(20.3785 -0.504288 0.0423931)
(20.565 -0.326543 0.0430813)
(20.6044 -0.0898711 0.0330985)
(20.5053 0.0991373 0.0148315)
(20.3568 0.155687 0.00102226)
(20.2537 0.125144 -0.00374686)
(20.212 0.0853236 -0.00481152)
(20.1961 0.0588988 -0.00564775)
(20.1839 0.0391373 -0.00628101)
(20.1746 0.0221097 -0.00653149)
(20.1698 0.00821913 -0.00675866)
(20.1675 -0.00244272 -0.00718886)
(20.1659 -0.00987683 -0.00774487)
(20.1643 -0.0139146 -0.00830455)
(20.1623 -0.0149722 -0.00878653)
(20.1599 -0.014488 -0.00911312)
(20.1566 -0.0139428 -0.00917133)
(20.1539 -0.0140198 -0.00923214)
(20.1478 -0.0171646 -0.00832532)
(19.9998 -0.0012842 0.000261967)
(19.9976 -0.004356 0.000863305)
(19.9929 -0.00888724 0.00164153)
(19.9847 -0.0164673 0.00274893)
(19.972 -0.0297461 0.00442601)
(19.9533 -0.0534674 0.00707662)
(19.9278 -0.0962455 0.0113491)
(19.8979 -0.172944 0.0182607)
(19.8803 -0.305273 0.0290439)
(19.9079 -0.505996 0.0431657)
(20.0976 -0.763754 0.0575175)
(20.4449 -0.763509 0.0687852)
(20.7141 -0.509197 0.0814972)
(20.7537 -0.136365 0.0686835)
(20.5849 0.173692 0.0334737)
(20.3537 0.238407 0.00749716)
(20.2172 0.184026 0.00104605)
(20.1784 0.134548 0.00282351)
(20.1701 0.109291 0.00556335)
(20.1614 0.0951532 0.0085782)
(20.1541 0.0868746 0.0119184)
(20.1512 0.0830678 0.0151128)
(20.1508 0.0819284 0.0176934)
(20.1515 0.0829072 0.0194569)
(20.1524 0.0863362 0.0203284)
(20.1526 0.0919993 0.0204064)
(20.1513 0.098197 0.0199686)
(20.1487 0.103506 0.019354)
(20.1443 0.10597 0.0187318)
(20.146 0.104595 0.0178393)
(19.9997 -0.00115086 0.000274505)
(19.997 -0.00393855 0.000910291)
(19.9909 -0.00811787 0.00174952)
(19.9801 -0.0152512 0.00299271)
(19.9623 -0.0281026 0.00494215)
(19.934 -0.0520424 0.00814512)
(19.8905 -0.0978934 0.0136137)
(19.8288 -0.188319 0.0230587)
(19.7616 -0.362826 0.0385235)
(19.7418 -0.688022 0.0611803)
(19.9812 -1.14751 0.0790154)
(20.5128 -1.09749 0.111671)
(20.9256 -0.842064 0.173788)
(21.0004 -0.268966 0.159849)
(20.713 0.253012 0.0986199)
(20.3439 0.275366 0.051183)
(20.1725 0.137599 0.0282172)
(20.1489 0.0356172 0.0159982)
(20.1551 -0.0255983 0.00715166)
(20.1539 -0.0704061 0.000947634)
(20.1515 -0.103355 -0.00273113)
(20.1514 -0.124908 -0.00441906)
(20.1523 -0.137324 -0.00469953)
(20.1537 -0.141855 -0.00422188)
(20.1554 -0.139172 -0.00359036)
(20.1554 -0.130105 -0.00307205)
(20.153 -0.118242 -0.00256332)
(20.1463 -0.103248 -0.00136739)
(20.1393 -0.0961287 -0.000923678)
(20.1263 -0.0864157 0.00395466)
(19.9997 -0.000889828 0.000285121)
(19.9965 -0.00308619 0.000951902)
(19.9892 -0.00644727 0.0018428)
(19.9758 -0.0122907 0.00320027)
(19.9531 -0.0231193 0.00541413)
(19.9146 -0.0439719 0.00925974)
(19.8495 -0.0866313 0.0160256)
(19.7431 -0.178601 0.028953)
(19.5858 -0.383735 0.0475278)
(19.4444 -0.871238 0.0879789)
(19.6944 -1.24689 0.0266419)
(20.5212 -1.71265 0.0160539)
(21.1825 -1.2712 0.157077)
(21.5457 -0.671616 0.136605)
(21.2479 0.367432 0.317393)
(20.5272 0.471043 0.276295)
(20.2515 0.352967 0.28819)
(20.1818 0.287852 0.301058)
(20.1286 0.268269 0.305345)
(20.0635 0.250762 0.303457)
(20.0067 0.228559 0.297492)
(19.9648 0.207126 0.28882)
(19.9355 0.18996 0.278671)
(19.9165 0.178416 0.267322)
(19.9055 0.172381 0.254624)
(19.8966 0.170386 0.240516)
(19.8919 0.170651 0.226091)
(19.8725 0.170554 0.211055)
(19.8759 0.170256 0.199595)
(19.8168 0.14444 0.183756)
(19.9996 -0.00052416 0.000292908)
(19.9961 -0.00187351 0.000981746)
(19.9879 -0.00400649 0.00191406)
(19.9726 -0.00779176 0.00335398)
(19.9459 -0.0149987 0.00575652)
(19.8983 -0.0291211 0.010165)
(19.8132 -0.059809 0.0182345)
(19.6504 -0.129349 0.0348032)
(19.3658 -0.31472 0.0579747)
(18.8835 -0.825798 0.10365)
(19.0393 -1.63516 -0.00949679)
(20.6115 -2.55744 0.163816)
(21.1384 -3.22005 0.537727)
(21.8639 -2.83069 0.670003)
(14.7477 -0.518384 0.459584)
(14.047 -0.710639 0.0843251)
(14.0917 -1.076 -0.0493544)
(14.4411 -1.20867 -0.132732)
(14.7503 -1.18262 -0.189734)
(15.0102 -1.11355 -0.219307)
(15.2613 -1.043 -0.227754)
(15.5081 -0.975428 -0.22279)
(15.7413 -0.908945 -0.209541)
(15.9543 -0.843354 -0.192183)
(16.1432 -0.779791 -0.173679)
(16.3013 -0.720477 -0.155994)
(16.4315 -0.662723 -0.139428)
(16.5134 -0.612386 -0.123768)
(16.6017 -0.553866 -0.11191)
(16.5605 -0.49959 -0.0894215)
(19.9996 -9.06687e-05 0.000296804)
(19.9959 -0.000429164 0.000996644)
(19.9872 -0.00106912 0.00194856)
(19.9708 -0.00230939 0.00342933)
(19.942 -0.00478182 0.00592639)
(19.8893 -0.00978813 0.0105747)
(19.7919 -0.0210644 0.0193057)
(19.59 -0.0473836 0.0387907)
(19.1883 -0.123972 0.0648297)
(18.2653 -0.352742 0.114048)
(17.7259 -1.16469 -0.218805)
(20.6102 -3.22889 -0.426834)
(19.9481 -6.31639 0.534082)
(6.92095 -3.31339 1.29629)
(0.314911 1.68707 -3.63431)
(4.094 1.51957 -3.21657)
(7.35537 0.974326 -2.59871)
(9.73211 0.693926 -2.14671)
(11.1764 0.587336 -1.82781)
(12.0648 0.527532 -1.5786)
(12.6938 0.475206 -1.37327)
(13.1822 0.429138 -1.20316)
(13.5691 0.39267 -1.06156)
(13.8743 0.36366 -0.943057)
(14.1116 0.337725 -0.843533)
(14.2926 0.311017 -0.75935)
(14.4221 0.287361 -0.688417)
(14.5187 0.255059 -0.624987)
(14.5628 0.254995 -0.57969)
(14.6156 0.199365 -0.508214)
(19.9996 0.000364684 0.000296434)
(19.9959 0.00109824 0.000995328)
(19.9872 0.00206044 0.00194399)
(19.9709 0.00359356 0.00341829)
(19.9422 0.00633293 0.00590452)
(19.8896 0.0117179 0.0105481)
(19.7922 0.0235893 0.019285)
(19.5907 0.0509413 0.038751)
(19.1897 0.129697 0.0647023)
(18.2714 0.365882 0.113471)
(17.4162 0.607672 -0.280604)
(19.9313 0.660331 -0.638283)
(-2.67923 -0.743436 0.130353)
(-0.985285 -1.77428 -3.07928)
(2.06685 -0.859449 -2.67068)
(5.26143 -0.254377 -2.10178)
(7.7306 0.0736633 -1.73356)
(9.18314 0.257851 -1.48976)
(10.0504 0.362997 -1.29154)
(10.6952 0.417997 -1.12109)
(11.2525 0.443885 -0.981804)
(11.752 0.457752 -0.872672)
(12.2014 0.465517 -0.789616)
(12.6076 0.466919 -0.727211)
(12.978 0.462534 -0.680172)
(13.3094 0.455551 -0.645543)
(13.6285 0.440719 -0.615538)
(13.8528 0.439445 -0.600454)
(14.2804 0.381676 -0.56701)
(19.9996 0.000791012 0.000291434)
(19.9961 0.0025294 0.000979724)
(19.988 0.00499364 0.00190387)
(19.9728 0.00909154 0.00331396)
(19.9463 0.0166648 0.00570415)
(19.8989 0.0311998 0.0101204)
(19.8141 0.0624532 0.0182026)
(19.6523 0.132902 0.0347265)
(19.3695 0.320015 0.0576625)
(18.8985 0.835746 0.102152)
(18.583 1.63624 -0.0503012)
(20.7779 3.33299 -0.250961)
(20.9324 3.84438 0.267735)
(14.9544 4.05965 0.845956)
(14.366 0.304106 0.560408)
(13.2866 0.525337 0.310468)
(12.9039 0.930572 0.212722)
(12.8774 1.12124 0.0838906)
(12.7658 1.16269 -0.0456745)
(12.5676 1.15785 -0.137014)
(12.396 1.13777 -0.188723)
(12.2913 1.11028 -0.218701)
(12.2467 1.08186 -0.235501)
(12.2452 1.05489 -0.24584)
(12.2703 1.0293 -0.254818)
(12.3103 1.00577 -0.267834)
(12.37 0.982937 -0.287402)
(12.5095 0.957372 -0.305183)
(12.6334 0.925491 -0.324922)
(13.0013 0.878637 -0.342789)
(19.9997 0.00114389 0.000283045)
(19.9966 0.00370913 0.000947142)
(19.9894 0.00737158 0.00183165)
(19.9762 0.0134837 0.00317068)
(19.9537 0.0245759 0.0053804)
(19.9155 0.0457469 0.00923225)
(19.851 0.0888735 0.0159864)
(19.7461 0.181631 0.0288461)
(19.5906 0.387836 0.0471369)
(19.4617 0.877419 0.0863772)
(19.4519 1.37824 0.0320354)
(20.6443 2.03137 0.0792803)
(21.2231 1.72118 0.318361)
(22.1254 0.860428 0.280821)
(21.0395 -0.523557 0.29091)
(20.276 -0.423454 0.292577)
(19.9922 -0.128835 0.335915)
(19.8862 0.0348004 0.349479)
(19.7142 0.109628 0.340628)
(19.4514 0.171266 0.327946)
(19.152 0.234086 0.316028)
(18.8488 0.29142 0.301614)
(18.5473 0.339124 0.284729)
(18.2483 0.377409 0.266389)
(17.9504 0.40749 0.247528)
(17.6578 0.429557 0.227936)
(17.3791 0.44265 0.206687)
(17.1249 0.452881 0.183878)
(16.9067 0.447279 0.163128)
(16.6542 0.471087 0.125869)
(19.9997 0.00138482 0.0002722)
(19.9971 0.00451255 0.000904197)
(19.9912 0.00897218 0.00173992)
(19.9805 0.0163594 0.00298041)
(19.9631 0.0294694 0.00492573)
(19.9352 0.0537143 0.00811768)
(19.8924 0.0999227 0.0135527)
(19.8322 0.190921 0.0229171)
(19.7677 0.365512 0.038108)
(19.7551 0.691969 0.0599772)
(20.0076 1.13835 0.0756051)
(20.5454 1.05647 0.102999)
(20.9581 0.758225 0.158879)
(21.0022 0.136883 0.138226)
(20.6537 -0.338796 0.0822609)
(20.2482 -0.270354 0.0545315)
(20.0779 -0.06586 0.053458)
(20.0799 0.0503763 0.0584576)
(20.1116 0.101084 0.0654032)
(20.1271 0.143522 0.0780558)
(20.1381 0.189369 0.0960697)
(20.1521 0.230896 0.115984)
(20.164 0.261542 0.135208)
(20.1668 0.280992 0.152863)
(20.1565 0.291935 0.169047)
(20.1331 0.296425 0.183336)
(20.0976 0.295092 0.195379)
(20.0501 0.289938 0.204719)
(19.9994 0.282526 0.212652)
(19.908 0.271751 0.215183)
(19.9998 0.0014927 0.000259267)
(19.9978 0.00486843 0.000857251)
(19.9932 0.00964971 0.00163231)
(19.9853 0.017453 0.00273415)
(19.9729 0.0309492 0.00440127)
(19.9547 0.0549058 0.00703592)
(19.9301 0.0979261 0.0112739)
(19.9016 0.174902 0.0181131)
(19.8864 0.306995 0.0286748)
(19.9187 0.506591 0.0422908)
(20.1152 0.757021 0.0553375)
(20.4666 0.740127 0.0638734)
(20.7358 0.468099 0.0741587)
(20.7608 0.070477 0.0587827)
(20.5597 -0.226513 0.0250974)
(20.3008 -0.248358 0.00626762)
(20.1545 -0.152851 0.010004)
(20.1222 -0.0825095 0.0202994)
(20.1246 -0.0474387 0.0273947)
(20.1224 -0.0180183 0.0316)
(20.1187 0.0144872 0.0348702)
(20.1208 0.0444874 0.0379526)
(20.1287 0.066841 0.0408375)
(20.14 0.0811178 0.0437613)
(20.1522 0.0896298 0.0469405)
(20.1644 0.0948905 0.0502969)
(20.1758 0.0979889 0.0538172)
(20.186 0.0994823 0.0573012)
(20.1936 0.101244 0.0606554)
(20.2029 0.100574 0.0644102)
(19.9998 0.00146009 0.000245979)
(19.9984 0.00475789 0.000808022)
(19.9951 0.00938729 0.00151621)
(19.9898 0.0168202 0.00249412)
(19.9821 0.0293531 0.00392383)
(19.972 0.050765 0.00607588)
(19.961 0.0871701 0.00932691)
(19.9536 0.147479 0.0142163)
(19.9643 0.241612 0.0211389)
(20.0168 0.367187 0.029674)
(20.162 0.503186 0.037323)
(20.3923 0.4883 0.0396917)
(20.5767 0.299412 0.039214)
(20.606 0.0483288 0.0283557)
(20.4871 -0.139846 0.0105403)
(20.319 -0.178356 -0.00020809)
(20.2059 -0.122808 0.0003875)
(20.1664 -0.0624624 0.00456259)
(20.1592 -0.0230143 0.00694797)
(20.1536 0.0065291 0.00785283)
(20.146 0.0329824 0.00889161)
(20.1404 0.0549225 0.010721)
(20.1379 0.070502 0.0132409)
(20.138 0.0801464 0.0161718)
(20.1396 0.0857066 0.0191959)
(20.1418 0.0890322 0.0220252)
(20.144 0.0909065 0.024546)
(20.1459 0.0915502 0.0266408)
(20.147 0.0917924 0.0283167)
(20.1481 0.0896103 0.0298572)
(19.9999 0.00129392 0.000233689)
(19.999 0.00420992 0.000761976)
(19.9969 0.00826655 0.00141374)
(19.9938 0.0146817 0.00228816)
(19.9899 0.0252564 0.0035175)
(19.9861 0.0427465 0.00527592)
(19.9847 0.0711858 0.00777821)
(19.9907 0.115573 0.0112721)
(20.015 0.179803 0.0158489)
(20.0725 0.257592 0.0209473)
(20.1847 0.329645 0.0253892)
(20.3427 0.315443 0.0262829)
(20.4724 0.196788 0.0245262)
(20.5022 0.0370233 0.0170616)
(20.4303 -0.0855084 0.00665313)
(20.3181 -0.121953 -0.000558172)
(20.2313 -0.0944916 -0.00176257)
(20.1898 -0.0563242 0.000112947)
(20.1738 -0.0311626 0.0020368)
(20.1634 -0.0154941 0.00352312)
(20.1534 -0.003189 0.00510182)
(20.1455 0.00718512 0.00700537)
(20.141 0.0154848 0.00907389)
(20.1396 0.0217789 0.0110494)
(20.1403 0.0264354 0.0127011)
(20.1419 0.0298566 0.0139121)
(20.1432 0.0321706 0.0147147)
(20.1442 0.0333325 0.0151805)
(20.1443 0.0339554 0.0154541)
(20.1456 0.0331039 0.0155402)
(19.9999 0.00101309 0.000223141)
(19.9994 0.00329053 0.000723244)
(19.9983 0.00643483 0.00133052)
(19.9969 0.0113458 0.00212322)
(19.9959 0.0192953 0.00319719)
(19.9966 0.0321191 0.0046641)
(20.0016 0.0522724 0.00663967)
(20.0157 0.0823619 0.00921407)
(20.0467 0.123424 0.0123105)
(20.1038 0.169636 0.0154689)
(20.1954 0.207194 0.0179251)
(20.3116 0.196955 0.0180167)
(20.4074 0.125599 0.0158011)
(20.4356 0.0264591 0.0104137)
(20.3915 -0.0508042 0.00382214)
(20.3135 -0.0781866 -0.000957295)
(20.2453 -0.0659817 -0.00229061)
(20.2047 -0.0435114 -0.00139653)
(20.1841 -0.0270081 -0.000104099)
(20.1709 -0.0160663 0.000955953)
(20.1603 -0.00671207 0.00192835)
(20.1523 0.00243101 0.00294825)
(20.1475 0.0110523 0.00396428)
(20.1455 0.0184418 0.00487901)
(20.1454 0.0240556 0.00560649)
(20.146 0.0278046 0.00612943)
(20.1466 0.0299181 0.00650975)
(20.1467 0.0308238 0.00679614)
(20.1467 0.031016 0.00711808)
(20.1466 0.0306492 0.00732284)
(20 0.000645659 0.000215037)
(19.9997 0.00209263 0.000694643)
(19.9993 0.00407927 0.00126968)
(19.9991 0.00715564 0.0020044)
(20 0.0120738 0.00297162)
(20.0035 0.0198738 0.00424508)
(20.0124 0.0318479 0.00588614)
(20.031 0.0492079 0.00790273)
(20.0651 0.0719664 0.0101491)
(20.1205 0.096364 0.0122563)
(20.1997 0.114353 0.0136599)
(20.2927 0.10771 0.0134557)
(20.3689 0.0693168 0.0113394)
(20.3957 0.0154778 0.00730271)
(20.3673 -0.0269458 0.00269363)
(20.3088 -0.0435101 -0.000771538)
(20.252 -0.0388465 -0.00210268)
(20.2131 -0.027244 -0.00182147)
(20.1903 -0.0177742 -0.0010202)
(20.1756 -0.0111037 -0.000241635)
(20.1645 -0.00536319 0.000487143)
(20.1563 0.000113253 0.00122394)
(20.1508 0.00493131 0.00196151)
(20.1477 0.00846456 0.00266385)
(20.1462 0.0103647 0.00329882)
(20.1457 0.0107895 0.00384999)
(20.1455 0.0102738 0.00432484)
(20.1453 0.00928206 0.00474499)
(20.1448 0.00856071 0.00511818)
(20.1464 0.00719704 0.00545847)
(20 0.000222152 0.000211108)
(19.9999 0.000718382 0.000680708)
(19.9998 0.00139746 0.00123999)
(20.0002 0.00244468 0.0019467)
(20.002 0.00410857 0.00286296)
(20.007 0.00672519 0.0040456)
(20.0177 0.0106927 0.00553004)
(20.0382 0.0163655 0.00728619)
(20.0735 0.0236509 0.00914814)
(20.1277 0.0312682 0.0107945)
(20.2011 0.036574 0.0117671)
(20.2837 0.0342441 0.0114388)
(20.351 0.0221532 0.00943731)
(20.377 0.00518025 0.0060558)
(20.3555 -0.00832015 0.00229802)
(20.3057 -0.0138591 -0.000587262)
(20.2544 -0.0127135 -0.00185835)
(20.2167 -0.00912169 -0.00179168)
(20.1932 -0.00597922 -0.00117788)
(20.1778 -0.00366863 -0.000514027)
(20.1665 -0.00167673 0.000103831)
(20.1581 0.000184242 0.000706649)
(20.1522 0.00176992 0.00130458)
(20.1485 0.00288849 0.00188802)
(20.1466 0.00348204 0.00242533)
(20.1459 0.00369495 0.00287956)
(20.1457 0.00377738 0.00322538)
(20.1457 0.00396992 0.00345593)
(20.1458 0.00433832 0.0036157)
(20.1466 0.00506053 0.00358243)
(20 -0.00019988 0.000649513)
(19.9997 -0.000658037 0.0020292)
(19.9994 -0.00130033 0.00364406)
(19.9996 -0.00230543 0.00568187)
(20.0012 -0.00391328 0.00833813)
(20.0058 -0.00644749 0.0118082)
(20.0161 -0.010295 0.0162244)
(20.0361 -0.0157793 0.021604)
(20.0706 -0.0228627 0.0276105)
(20.1241 -0.0303879 0.0332214)
(20.197 -0.035708 0.0368062)
(20.28 -0.0339023 0.0362757)
(20.3495 -0.0226846 0.0304555)
(20.3797 -0.00675445 0.0204569)
(20.3647 0.00613196 0.00950585)
(20.3226 0.0120211 0.00117193)
(20.2778 0.0122048 -0.0031636)
(20.2437 0.0102556 -0.00464384)
(20.2203 0.00839759 -0.00500198)
(20.203 0.00694745 -0.00509642)
(20.1895 0.00573793 -0.00499414)
(20.1792 0.00478777 -0.00474206)
(20.1718 0.00406639 -0.00450857)
(20.1662 0.00342192 -0.00437538)
(20.1616 0.00276607 -0.00431334)
(20.1578 0.00211376 -0.00427463)
(20.1546 0.00151748 -0.00423415)
(20.1517 0.000959715 -0.00412387)
(20.1493 0.000555173 -0.00406895)
(20.1463 -0.000247219 -0.00357846)
(19.9999 -0.000579494 0.000660118)
(19.9996 -0.00191147 0.00206791)
(19.999 -0.00378499 0.00372699)
(19.9986 -0.00672974 0.00584211)
(19.9992 -0.0114705 0.00863836)
(20.0025 -0.0190095 0.012358)
(20.011 -0.0305995 0.0172088)
(20.029 -0.0473565 0.0232923)
(20.0623 -0.0694415 0.0303657)
(20.1167 -0.093469 0.0373907)
(20.195 -0.111445 0.0425038)
(20.2878 -0.106573 0.0427942)
(20.3658 -0.0709294 0.0366191)
(20.397 -0.0205604 0.0252465)
(20.3759 0.0195444 0.0124156)
(20.3262 0.0370119 0.00276002)
(20.2768 0.0365293 -0.00190532)
(20.2415 0.0299178 -0.00326006)
(20.2185 0.0239722 -0.0035664)
(20.2018 0.0193445 -0.00370391)
(20.1888 0.0155703 -0.00362841)
(20.1791 0.0129066 -0.00337831)
(20.1721 0.0113636 -0.00311782)
(20.1668 0.0105031 -0.00290172)
(20.1625 0.00996201 -0.00271365)
(20.1591 0.0096266 -0.00257853)
(20.1562 0.00946451 -0.00252225)
(20.1536 0.00937338 -0.00248022)
(20.1514 0.00950386 -0.00257326)
(20.1489 0.00889624 -0.00230264)
(19.9999 -0.000905117 0.000681163)
(19.9993 -0.00299585 0.00214363)
(19.998 -0.0059572 0.00388899)
(19.9965 -0.0106532 0.00615732)
(19.9953 -0.0183072 0.00923522)
(19.9958 -0.0306812 0.0134662)
(20.0006 -0.0501555 0.0192279)
(20.0142 -0.0791452 0.0268119)
(20.0444 -0.118839 0.0361907)
(20.1003 -0.164114 0.046401)
(20.1901 -0.201368 0.0549167)
(20.3052 -0.194227 0.0568419)
(20.4023 -0.127368 0.0497669)
(20.4352 -0.0347065 0.0353071)
(20.4004 0.0377245 0.0177976)
(20.3339 0.0669005 0.00478472)
(20.2747 0.0630908 -0.000750483)
(20.2373 0.0498877 -0.00189176)
(20.2151 0.0389451 -0.00216903)
(20.1993 0.0302269 -0.00254493)
(20.1871 0.0226986 -0.00285237)
(20.1784 0.0169977 -0.00316428)
(20.1723 0.0133278 -0.00357944)
(20.1675 0.011117 -0.00399973)
(20.1636 0.00977618 -0.00433589)
(20.1603 0.00890874 -0.00463655)
(20.1576 0.00818357 -0.00497355)
(20.155 0.0072182 -0.00532152)
(20.1529 0.00635532 -0.00584688)
(20.1489 0.00391148 -0.00596085)
(19.9999 -0.00114731 0.000710049)
(19.9988 -0.00381263 0.00224847)
(19.9967 -0.00762419 0.00411519)
(19.9935 -0.0137498 0.00660329)
(19.9896 -0.0239172 0.0100953)
(19.9857 -0.0407581 0.0150991)
(19.9843 -0.0681593 0.0222888)
(19.9903 -0.110753 0.0323367)
(20.0139 -0.172529 0.045727)
(20.0697 -0.248228 0.0617609)
(20.1787 -0.318973 0.0761721)
(20.3341 -0.308844 0.0810257)
(20.4641 -0.195116 0.0735674)
(20.4987 -0.0463111 0.0543703)
(20.4396 0.0668771 0.0278992)
(20.344 0.107131 0.00834114)
(20.269 0.0957838 0.00116547)
(20.2294 0.0742391 0.000229578)
(20.2089 0.0588683 0.000185827)
(20.1942 0.0475162 0.000260385)
(20.1828 0.0380932 0.000629945)
(20.1754 0.0313457 0.000859377)
(20.1704 0.0274739 0.00075214)
(20.1664 0.0259863 0.000547238)
(20.1629 0.0263132 0.000461254)
(20.1598 0.0278172 0.000517867)
(20.1569 0.0296289 0.000677442)
(20.1541 0.0309289 0.00096974)
(20.1512 0.0316935 0.00105764)
(20.15 0.0300288 0.00181438)
(19.9998 -0.0012786 0.00074553)
(19.9983 -0.00427157 0.00237151)
(19.995 -0.00860439 0.00438449)
(19.9897 -0.0156803 0.0071493)
(19.9821 -0.0277011 0.0111761)
(19.9723 -0.0482573 0.0172172)
(19.9617 -0.0831925 0.0264228)
(19.9548 -0.140747 0.0401411)
(19.9653 -0.230796 0.0599644)
(20.0155 -0.351874 0.0852342)
(20.155 -0.484604 0.110122)
(20.3819 -0.474209 0.121926)
(20.5638 -0.283216 0.118638)
(20.5967 -0.0514211 0.0922642)
(20.497 0.116606 0.0478165)
(20.3557 0.158768 0.01606)
(20.2592 0.127067 0.006284)
(20.2191 0.0906221 0.00426056)
(20.2029 0.0674526 0.00162873)
(20.1903 0.0507576 -0.00104655)
(20.1807 0.0368025 -0.00292857)
(20.1751 0.0257855 -0.00476321)
(20.1719 0.017552 -0.00698603)
(20.1695 0.0119075 -0.00941658)
(20.1671 0.00885906 -0.0117965)
(20.1646 0.00802836 -0.013962)
(20.1616 0.00822266 -0.0157123)
(20.158 0.00823252 -0.0168403)
(20.1549 0.00760563 -0.0177637)
(20.1481 0.00364596 -0.0167441)
(19.9998 -0.00128155 0.000783586)
(19.9977 -0.00430274 0.00250546)
(19.9931 -0.00875036 0.00466477)
(19.9854 -0.0161571 0.00773253)
(19.9734 -0.0290526 0.0123872)
(19.9559 -0.0519716 0.0197076)
(19.9324 -0.0930565 0.031533)
(19.9054 -0.166184 0.0505068)
(19.891 -0.291783 0.0796132)
(19.9202 -0.482346 0.119714)
(20.1088 -0.734207 0.164892)
(20.4594 -0.712882 0.194633)
(20.7243 -0.413488 0.211274)
(20.7461 -0.0489608 0.173908)
(20.5733 0.222909 0.0908)
(20.3577 0.25892 0.0345976)
(20.2354 0.190346 0.022349)
(20.2005 0.132723 0.0239694)
(20.1915 0.101774 0.0239982)
(20.1819 0.0837472 0.0233696)
(20.1737 0.0730701 0.0236618)
(20.1693 0.0680864 0.0242705)
(20.1672 0.0667791 0.0245457)
(20.1659 0.0679308 0.0241201)
(20.165 0.0712651 0.0228042)
(20.1635 0.0762974 0.0207132)
(20.1608 0.0814689 0.0184006)
(20.1571 0.0856642 0.0163906)
(20.1522 0.0869932 0.014842)
(20.1523 0.084323 0.0143889)
(19.9997 -0.00114833 0.000819545)
(19.9971 -0.00389299 0.00263887)
(19.9913 -0.00798263 0.00494836)
(19.9809 -0.014961 0.00828334)
(19.964 -0.0274545 0.0135796)
(19.9374 -0.0504951 0.0223284)
(19.8968 -0.0943365 0.0373467)
(19.8398 -0.180251 0.0632646)
(19.7786 -0.345925 0.105761)
(19.7598 -0.658104 0.168765)
(20.0041 -1.13556 0.249614)
(20.5623 -0.997633 0.327643)
(20.9645 -0.61577 0.421558)
(20.9908 -0.0984019 0.365212)
(20.6956 0.334293 0.202333)
(20.3502 0.357515 0.0995283)
(20.1971 0.243654 0.0633161)
(20.1789 0.157739 0.0451861)
(20.1856 0.104556 0.0270805)
(20.1843 0.0629658 0.0108624)
(20.1816 0.0298325 -0.00204635)
(20.1807 0.00585394 -0.0117466)
(20.1801 -0.0101683 -0.0188373)
(20.1793 -0.0193282 -0.02429)
(20.1781 -0.0224575 -0.0292321)
(20.1755 -0.0204552 -0.0340644)
(20.1711 -0.0161988 -0.038221)
(20.1633 -0.00968447 -0.0408589)
(20.1577 -0.00851014 -0.0423561)
(20.1399 -0.00780327 -0.0388822)
(19.9997 -0.000888573 0.000850816)
(19.9966 -0.00305011 0.00275285)
(19.9896 -0.00634741 0.00521516)
(19.9768 -0.0120367 0.00880062)
(19.9553 -0.022573 0.0146189)
(19.919 -0.0427864 0.0245016)
(19.858 -0.0834745 0.0428672)
(19.7579 -0.170883 0.0767401)
(19.61 -0.363692 0.136355)
(19.457 -0.860706 0.232379)
(19.5714 -1.47789 0.263327)
(20.4759 -1.96309 0.368369)
(21.1545 -1.08393 0.749792)
(21.3297 -0.515843 0.888167)
(20.903 0.628731 0.554746)
(20.3343 0.530654 0.398339)
(20.1447 0.365732 0.386492)
(20.144 0.298005 0.387873)
(20.1568 0.286842 0.37876)
(20.1519 0.281795 0.365541)
(20.1454 0.272572 0.350417)
(20.1422 0.260874 0.333196)
(20.1405 0.249278 0.315071)
(20.1394 0.239352 0.296153)
(20.139 0.231803 0.276079)
(20.1364 0.226527 0.25491)
(20.1339 0.22231 0.235131)
(20.1207 0.220478 0.216168)
(20.1191 0.212566 0.204852)
(20.0877 0.202116 0.196707)
(19.9996 -0.000523898 0.000873736)
(19.9962 -0.00185479 0.00283627)
(19.9883 -0.00394884 0.00540418)
(19.9737 -0.00765245 0.00922657)
(19.9484 -0.0146562 0.0154903)
(19.9037 -0.0281555 0.0262511)
(19.8238 -0.0574534 0.0471965)
(19.6703 -0.123843 0.087774)
(19.3914 -0.299905 0.163777)
(18.8335 -0.828647 0.302076)
(18.6352 -2.06859 0.277239)
(20.3197 -3.56288 0.181806)
(21.3018 -1.71415 1.81131)
(22.0376 -1.55673 2.71666)
(19.8927 1.78068 0.864296)
(19.3444 1.20778 0.34739)
(19.4 0.716647 0.202809)
(19.6233 0.472932 0.116852)
(19.7863 0.385477 0.0427616)
(19.8734 0.351296 -0.00750109)
(19.9275 0.330816 -0.0350777)
(19.9638 0.314279 -0.0472192)
(19.9829 0.300273 -0.0474673)
(19.9841 0.288035 -0.0395823)
(19.9666 0.276582 -0.0267022)
(19.927 0.264395 -0.0111078)
(19.8684 0.252979 0.00722936)
(19.7625 0.237616 0.0256861)
(19.6869 0.231059 0.047189)
(19.3759 0.19604 0.0783368)
(19.9996 -9.1688e-05 0.000885277)
(19.996 -0.000428124 0.00288127)
(19.9876 -0.00106055 0.00550381)
(19.972 -0.00227847 0.00945136)
(19.9446 -0.00466941 0.0160229)
(19.8951 -0.00946527 0.0276044)
(19.8039 -0.0200803 0.0501307)
(19.6146 -0.0437392 0.0947522)
(19.2098 -0.11756 0.179969)
(18.0706 -0.365418 0.337023)
(16.1714 -1.61102 -0.0148022)
(19.135 -11.29 -4.20164)
(15.426 -7.80778 14.5579)
(12.3405 -2.72196 1.9145)
(9.93113 3.51644 -2.49351)
(11.9555 2.74816 -2.30813)
(13.7742 1.97995 -1.80291)
(15.136 1.51442 -1.45072)
(15.9912 1.26545 -1.22944)
(16.5322 1.12213 -1.06089)
(16.9263 1.02933 -0.919563)
(17.2424 0.96399 -0.802404)
(17.5022 0.916188 -0.705458)
(17.7144 0.878366 -0.624866)
(17.8828 0.844828 -0.55724)
(18.0094 0.811453 -0.499446)
(18.0958 0.780316 -0.449611)
(18.1403 0.741263 -0.404681)
(18.1635 0.73059 -0.368671)
(18.0841 0.656217 -0.316259)
(19.9996 0.000361938 0.000884476)
(19.996 0.00107966 0.00287909)
(19.9876 0.0020057 0.0055058)
(19.9721 0.00346021 0.00945162)
(19.9448 0.00609571 0.0159544)
(19.8953 0.0112374 0.0274109)
(19.8042 0.02236 0.0498985)
(19.6151 0.0468522 0.0944789)
(19.2109 0.122487 0.179491)
(18.0757 0.376116 0.3351)
(15.5975 0.853219 -0.130691)
(-0.166667 1.58639 2.49498)
(8.39664 -3.0244 -2.15403)
(10.8065 -2.56352 -1.77524)
(12.7399 -1.99685 -1.18816)
(14.0849 -1.5719 -0.854485)
(14.8452 -1.25098 -0.695514)
(15.2691 -0.99489 -0.594612)
(15.5681 -0.784385 -0.520358)
(15.8342 -0.609604 -0.474145)
(16.0905 -0.454824 -0.450241)
(16.3343 -0.311705 -0.44001)
(16.5633 -0.184422 -0.438202)
(16.7755 -0.0767435 -0.440131)
(16.9657 0.011349 -0.444426)
(17.1435 0.0756824 -0.445232)
(17.2705 0.138399 -0.455441)
(17.4681 0.15462 -0.442131)
(19.9996 0.000788059 0.000872007)
(19.9962 0.00248513 0.00282307)
(19.9884 0.00491255 0.00541428)
(19.9739 0.00890259 0.00922851)
(19.9487 0.0161775 0.0154221)
(19.9043 0.0299719 0.026092)
(19.8246 0.0596949 0.0470062)
(19.6719 0.126779 0.0874653)
(19.3943 0.304322 0.162872)
(18.8457 0.837072 0.298011)
(17.8453 2.14066 0.175844)
(19.6156 9.3863 -2.84105)
(17.6235 3.52102 11.7059)
(3.22691 1.73541 2.17964)
(19.0212 -1.91331 0.894816)
(18.1509 -1.26482 0.706125)
(17.7828 -0.647333 0.795871)
(17.5504 -0.267635 0.801092)
(17.2218 -0.0582531 0.736282)
(16.8249 0.0690842 0.674475)
(16.4356 0.154424 0.627521)
(16.1228 0.210842 0.584075)
(15.8839 0.250124 0.534821)
(15.7348 0.273411 0.477745)
(15.6773 0.286046 0.417364)
(15.7214 0.288904 0.357941)
(15.8548 0.284026 0.297554)
(16.0551 0.277348 0.236824)
(16.249 0.267377 0.170566)
(16.6473 0.246956 0.0942565)