/*--------------------------------*- C++ -*----------------------------------*\
| =========                 |                                                 |
| \\      /  F ield         | OpenFOAM: The Open Source CFD Toolbox           |
|  \\    /   O peration     | Version:  2512                                  |
|   \\  /    A nd           | Website:  www.openfoam.com                      |
|    \\/     M anipulation  |                                                 |
\*---------------------------------------------------------------------------*/
FoamFile
{
    version     2.0;
    format      ascii;
    arch        "LSB;label=32;scalar=64";
    class       volVectorField;
    location    "200";
    object      U;
}
// * * * * * * * * * * * * * * * * * * * * * * * * * * * * * * * * * * * * * //

dimensions      [0 1 -1 0 0 0 0];

internalField   nonuniform List<vector> 
90398
(
(20.0002 -0.000450905 0.000182559)
(20.0021 -0.00144805 0.000583424)
(20.0062 -0.00268979 0.00105904)
(20.0132 -0.00440187 0.0016528)
(20.0243 -0.00685714 0.00240722)
(20.0419 -0.010397 0.00336126)
(20.0693 -0.0153658 0.00458333)
(20.1113 -0.0219899 0.00601556)
(20.173 -0.0297862 0.00735688)
(20.2586 -0.0375586 0.00825951)
(20.3671 -0.0422494 0.00806855)
(20.488 -0.0403116 0.00632692)
(20.6032 -0.0336286 0.00313205)
(20.7052 -0.0294542 -0.000514132)
(20.8096 -0.0331558 -0.00325575)
(20.944 -0.0433946 -0.00447669)
(21.1262 -0.0560087 -0.00460291)
(21.3567 -0.0688731 -0.00399147)
(21.628 -0.0818735 -0.00193426)
(21.932 -0.0947816 0.00319342)
(22.2533 -0.105863 0.0123093)
(22.5696 -0.114608 0.0287182)
(22.8284 -0.134597 0.0715158)
(23.0796 -0.174963 0.125223)
(23.5625 -0.20273 0.108885)
(24.3464 -0.195103 0.0224425)
(25.262 -0.171273 -0.0609734)
(26.3129 -0.141513 -0.130062)
(27.0473 -0.126387 -0.158161)
(28.678 -0.089226 -0.311505)
(20.0002 -0.00132162 0.000184507)
(20.0019 -0.00425175 0.000593751)
(20.0056 -0.00790959 0.00108429)
(20.0118 -0.0129658 0.00170649)
(20.0219 -0.0202588 0.00251748)
(20.0379 -0.0308641 0.00357399)
(20.0635 -0.0459103 0.00497103)
(20.1037 -0.0662767 0.00666626)
(20.1647 -0.0907625 0.00841834)
(20.2523 -0.115538 0.00979445)
(20.3665 -0.130542 0.0098033)
(20.4941 -0.12345 0.00779808)
(20.6106 -0.100678 0.00396609)
(20.7063 -0.086506 -0.000295354)
(20.8018 -0.0977888 -0.00327438)
(20.9307 -0.129508 -0.00438059)
(21.1113 -0.168096 -0.00435362)
(21.3415 -0.207087 -0.00369447)
(21.6127 -0.246672 -0.00148457)
(21.9183 -0.286454 0.00423122)
(22.2419 -0.320961 0.015372)
(22.5575 -0.351632 0.0381892)
(22.8428 -0.419446 0.0850234)
(23.1436 -0.529991 0.125291)
(23.6165 -0.597914 0.10049)
(24.3211 -0.578006 0.0257768)
(25.1393 -0.515029 -0.044794)
(26.099 -0.43557 -0.105125)
(26.7768 -0.388805 -0.135532)
(28.3222 -0.291197 -0.278403)
(20.0002 -0.00211595 0.000193092)
(20.0016 -0.0068205 0.000624604)
(20.0044 -0.0127095 0.00115002)
(20.0092 -0.020888 0.00183761)
(20.017 -0.032805 0.00276726)
(20.0299 -0.0503888 0.00403966)
(20.0515 -0.0759546 0.00578078)
(20.0878 -0.111477 0.00806144)
(20.147 -0.155703 0.0106539)
(20.2386 -0.202082 0.0130529)
(20.3657 -0.23036 0.0135599)
(20.5091 -0.213783 0.0109584)
(20.6288 -0.166273 0.00568461)
(20.7102 -0.137617 -4.29208e-05)
(20.787 -0.157479 -0.00355589)
(20.905 -0.213523 -0.00445048)
(21.0831 -0.279701 -0.00417726)
(21.3131 -0.345972 -0.00352088)
(21.5842 -0.414407 -0.00144604)
(21.8923 -0.484245 0.00494209)
(22.2182 -0.545269 0.0179908)
(22.5429 -0.609813 0.0456757)
(22.8689 -0.729261 0.087638)
(23.2445 -0.878293 0.102379)
(23.7343 -0.94974 0.0646227)
(24.3794 -0.912756 0.00337799)
(25.1002 -0.822409 -0.049075)
(25.9515 -0.709726 -0.0955143)
(26.5537 -0.637179 -0.119002)
(27.9652 -0.500066 -0.247375)
(20.0001 -0.00279807 0.000204385)
(20.001 -0.00902913 0.000665353)
(20.0026 -0.0168496 0.00123982)
(20.0053 -0.027773 0.00201952)
(20.0097 -0.0439141 0.00312965)
(20.0176 -0.0682621 0.00471802)
(20.0325 -0.104899 0.00703565)
(20.0616 -0.157991 0.0103025)
(20.1164 -0.227985 0.0144585)
(20.2141 -0.306073 0.0189058)
(20.3651 -0.353656 0.0205329)
(20.538 -0.316965 0.0168183)
(20.6624 -0.226513 0.00889547)
(20.7176 -0.175531 0.000633783)
(20.7626 -0.207365 -0.00364692)
(20.864 -0.293034 -0.00409103)
(21.039 -0.387002 -0.00351016)
(21.2678 -0.478959 -0.00311468)
(21.5376 -0.576854 -0.00152559)
(21.8474 -0.678698 0.00515653)
(22.1775 -0.768559 0.0189915)
(22.5259 -0.875526 0.043104)
(22.9089 -1.03857 0.0651316)
(23.3344 -1.19093 0.0579575)
(23.8254 -1.24375 0.0210517)
(24.4147 -1.19034 -0.0229107)
(25.0467 -1.08439 -0.0572982)
(25.7895 -0.951441 -0.0891842)
(26.3137 -0.864226 -0.10399)
(27.5634 -0.697959 -0.213773)
(20.0001 -0.00332817 0.000217641)
(20.0003 -0.0107437 0.000713891)
(20.0004 -0.0200662 0.00134908)
(20.0003 -0.0331595 0.00224772)
(20.0001 -0.0528299 0.00359676)
(20.0008 -0.0833678 0.00565214)
(20.0053 -0.131543 0.00883863)
(20.0215 -0.205474 0.0137632)
(20.0663 -0.311105 0.020785)
(20.1722 -0.441734 0.0292855)
(20.3669 -0.522464 0.0327834)
(20.5924 -0.44818 0.0260256)
(20.7221 -0.282542 0.0121266)
(20.7295 -0.195236 -0.000800673)
(20.7239 -0.248521 -0.00581932)
(20.8041 -0.378625 -0.00519)
(20.9781 -0.505888 -0.00459833)
(21.2061 -0.62284 -0.00556972)
(21.4754 -0.748335 -0.00542408)
(21.7911 -0.879043 0.00139993)
(22.1399 -0.996604 0.0155292)
(22.5311 -1.13762 0.0306309)
(22.9559 -1.31097 0.0330436)
(23.4009 -1.44495 0.0129366)
(23.878 -1.47937 -0.0179714)
(24.4095 -1.41749 -0.0462426)
(24.9561 -1.30561 -0.0651092)
(25.5892 -1.1626 -0.083553)
(26.0328 -1.06763 -0.0900019)
(27.0992 -0.882622 -0.178461)
(20 -0.00367215 0.000231771)
(19.9994 -0.0118571 0.000766454)
(19.9978 -0.022137 0.00146744)
(19.9943 -0.0366047 0.00249957)
(19.9884 -0.058705 0.0041567)
(19.9793 -0.0941762 0.00686035)
(19.9684 -0.153591 0.0113926)
(19.9627 -0.252415 0.0190662)
(19.985 -0.409787 0.0310292)
(20.0988 -0.627439 0.0485927)
(20.3721 -0.762653 0.0572235)
(20.6886 -0.620764 0.046727)
(20.8152 -0.329057 0.0237808)
(20.7346 -0.182126 0.00382451)
(20.6488 -0.267134 -0.00197589)
(20.713 -0.453975 -0.000672615)
(20.9125 -0.621599 0.000624396)
(21.1676 -0.772908 0.00138727)
(21.4591 -0.933108 0.00536058)
(21.7963 -1.09193 0.0186777)
(22.17 -1.22833 0.0343703)
(22.5773 -1.37426 0.0367752)
(22.9933 -1.52825 0.0166361)
(23.409 -1.63411 -0.0152117)
(23.8336 -1.65307 -0.0435996)
(24.2866 -1.58901 -0.0620328)
(24.7415 -1.47887 -0.0700645)
(25.2649 -1.33492 -0.0776433)
(25.6309 -1.2378 -0.0772138)
(26.513 -1.04576 -0.143055)
(19.9999 -0.00381361 0.000245272)
(19.9986 -0.012302 0.000814861)
(19.995 -0.0229057 0.00158197)
(19.9879 -0.0377474 0.00274604)
(19.9753 -0.0605852 0.00473324)
(19.9537 -0.0984594 0.00819026)
(19.9205 -0.16656 0.0145971)
(19.8778 -0.290966 0.0264505)
(19.8541 -0.537102 0.0475387)
(19.9664 -0.878723 0.0813147)
(20.3568 -1.07775 0.10063)
(20.8375 -0.797428 0.0823647)
(20.9881 -0.326802 0.0418382)
(20.7756 -0.125897 0.0132674)
(20.6181 -0.306826 0.0275628)
(20.7119 -0.571407 0.0559463)
(20.9371 -0.775859 0.0855956)
(21.1464 -0.965841 0.113426)
(21.3298 -1.16581 0.135681)
(21.534 -1.34773 0.150694)
(21.7978 -1.47837 0.145656)
(22.1187 -1.58223 0.103157)
(22.4683 -1.67902 0.0357664)
(22.8402 -1.74477 -0.0241777)
(23.2389 -1.75324 -0.0608385)
(23.6719 -1.69853 -0.0758197)
(24.1088 -1.60349 -0.0762276)
(24.5981 -1.47157 -0.0740034)
(24.9487 -1.38114 -0.0676705)
(25.7199 -1.19277 -0.1093)
(19.9998 -0.00375756 0.000256438)
(19.9978 -0.0120685 0.000859191)
(19.9924 -0.022315 0.00167946)
(19.9818 -0.0364155 0.00294109)
(19.9621 -0.0580435 0.00517525)
(19.9263 -0.0937273 0.0094047)
(19.8627 -0.164077 0.0182311)
(19.7552 -0.30088 0.0352849)
(19.632 -0.654299 0.077948)
(19.7575 -0.968385 0.0599049)
(20.215 -1.44358 0.0689659)
(21.1303 -1.37401 0.0038539)
(21.7019 -0.317557 -0.0570681)
(21.2989 0.20772 -0.0813157)
(20.3163 -0.350364 0.349001)
(19.7811 -0.738121 0.415385)
(19.3894 -0.979345 0.424557)
(19.0589 -1.20133 0.389175)
(18.8454 -1.43124 0.322962)
(18.8334 -1.62177 0.234891)
(19.0724 -1.73496 0.141893)
(19.5495 -1.7816 0.0445641)
(20.187 -1.81352 -0.0415088)
(20.9099 -1.8505 -0.0951428)
(21.6554 -1.86792 -0.114619)
(22.3807 -1.83786 -0.110516)
(23.0391 -1.76569 -0.0943467)
(23.6654 -1.64611 -0.0771663)
(24.1124 -1.56198 -0.0629762)
(24.8697 -1.36468 -0.0782181)
(19.9998 -0.00351666 0.0002639)
(19.9971 -0.0112336 0.000888104)
(19.9902 -0.0204814 0.00175641)
(19.9765 -0.0326072 0.00309233)
(19.9509 -0.0506638 0.00538016)
(19.901 -0.0797975 0.010272)
(19.8036 -0.135474 0.0203941)
(19.6098 -0.26941 0.0496654)
(19.4809 -0.462617 0.0463838)
(19.2264 -1.4828 0.122862)
(19.8214 -2.19794 0.166441)
(21.0069 -2.6286 1.41429)
(17.2655 -1.02253 1.42525)
(13.8037 -0.259252 1.11562)
(10.5707 -1.09365 0.587147)
(11.0251 -1.55865 0.219331)
(11.8488 -1.66503 -0.0210769)
(12.6917 -1.72523 -0.180664)
(13.6099 -1.80855 -0.287737)
(14.6322 -1.8853 -0.349278)
(15.7002 -1.95767 -0.350034)
(16.8452 -2.03369 -0.296225)
(18.1279 -2.12733 -0.236326)
(19.4703 -2.21873 -0.198688)
(20.7168 -2.25646 -0.171733)
(21.7744 -2.21241 -0.142224)
(22.6174 -2.10668 -0.109539)
(23.3007 -1.94472 -0.0789329)
(23.7644 -1.8283 -0.0574771)
(24.386 -1.5749 -0.0487424)
(19.9997 -0.00312788 0.000267277)
(19.9966 -0.00991332 0.000897895)
(19.9887 -0.0176728 0.0017852)
(19.9729 -0.0271521 0.00320661)
(19.9438 -0.039661 0.00569041)
(19.8835 -0.0572616 0.0108593)
(19.7661 -0.088811 0.0225785)
(19.4643 -0.153635 0.0591838)
(19.1391 -0.329176 0.0718675)
(18.4159 -1.26563 0.0789091)
(19.8941 -2.72101 -0.00229754)
(9.03733 -11.3389 -2.70209)
(11.0948 -2.75336 -1.58638)
(10.1688 -3.62731 0.425954)
(8.99282 -0.505389 -0.947579)
(10.8704 -1.14194 -1.00343)
(12.6172 -1.48338 -0.915465)
(13.8754 -1.71264 -0.79648)
(14.9908 -1.92676 -0.676088)
(16.1432 -2.16626 -0.542796)
(17.3236 -2.42216 -0.381194)
(18.5384 -2.65255 -0.249594)
(19.8008 -2.81168 -0.1995)
(20.9988 -2.85991 -0.19463)
(22.0056 -2.79054 -0.185188)
(22.7798 -2.62938 -0.157763)
(23.3427 -2.42447 -0.120642)
(23.7461 -2.18721 -0.0831115)
(24.0044 -2.02166 -0.0555711)
(24.2655 -1.7138 -0.0259725)
(19.9997 -0.00264141 0.000265009)
(19.9964 -0.00828061 0.000889668)
(19.9881 -0.0142806 0.00176777)
(19.9715 -0.0206602 0.00317271)
(19.9416 -0.0269444 0.00565149)
(19.8799 -0.0316741 0.0107714)
(19.7624 -0.0271262 0.0224439)
(19.4508 0.00541788 0.0588961)
(19.0502 0.0510411 0.077789)
(17.2186 0.266972 0.125868)
(10.983 7.31838 -7.81518)
(13.2445 2.96781 -1.91789)
(8.56683 1.62259 -0.27865)
(15.1682 -2.7629 0.251882)
(16.5116 -2.4651 -0.107051)
(17.622 -2.35254 -0.229062)
(18.4014 -2.34434 -0.25722)
(19.1017 -2.42992 -0.252963)
(19.8402 -2.61565 -0.242827)
(20.6181 -2.83492 -0.244861)
(21.4239 -2.99764 -0.273836)
(22.199 -3.05448 -0.301936)
(22.8619 -2.99898 -0.299119)
(23.3702 -2.85439 -0.26375)
(23.724 -2.65197 -0.210705)
(23.9522 -2.42952 -0.154938)
(24.0693 -2.18923 -0.103444)
(24.134 -2.02173 -0.0652542)
(24.0645 -1.71925 -0.0116251)
(19.9997 -0.00211335 0.000257166)
(19.9964 -0.00652718 0.000861973)
(19.9882 -0.0107259 0.00170201)
(19.9724 -0.0141295 0.00299137)
(19.944 -0.0145118 0.00518755)
(19.8904 -0.00765157 0.00987361)
(19.7904 0.0214825 0.0198429)
(19.5814 0.12204 0.0486524)
(19.3048 0.329468 0.0623824)
(18.4892 1.69175 0.202238)
(20.6099 4.46391 0.143134)
(20.6196 2.85009 1.04297)
(20.5104 -1.4998 0.777664)
(21.4998 -3.04928 0.145379)
(20.0311 -2.02332 -0.23998)
(20.2331 -1.66537 -0.263606)
(20.5455 -1.65237 -0.26087)
(20.7646 -1.76077 -0.256242)
(20.9746 -1.92669 -0.264643)
(21.2606 -2.1524 -0.304316)
(21.6813 -2.40294 -0.367116)
(22.2188 -2.60671 -0.413664)
(22.7749 -2.71548 -0.415463)
(23.2557 -2.71884 -0.375061)
(23.6155 -2.63282 -0.310145)
(23.8439 -2.48214 -0.238292)
(23.9643 -2.30022 -0.171326)
(23.9666 -2.09159 -0.111653)
(23.9525 -1.93932 -0.0678049)
(23.6824 -1.65922 0.00578481)
(19.9997 -0.00159566 0.000245092)
(19.9966 -0.00483111 0.0008158)
(19.9891 -0.0074126 0.00158627)
(19.975 -0.00815364 0.00274893)
(19.9506 -0.0042307 0.00484724)
(19.9089 0.00986 0.00887038)
(19.8382 0.0546927 0.0173995)
(19.7231 0.156624 0.0338333)
(19.5793 0.498898 0.0777881)
(19.5104 1.00993 0.100139)
(20.4216 1.7629 0.158703)
(21.8378 0.570452 0.0582437)
(21.6683 -1.12887 0.0152853)
(20.9365 -1.78006 -0.0421999)
(20.1315 -1.37641 -0.164067)
(20.057 -1.24812 -0.183111)
(20.1662 -1.33395 -0.207475)
(20.2836 -1.47986 -0.225163)
(20.4131 -1.62656 -0.251331)
(20.7004 -1.81769 -0.328249)
(21.2512 -2.07619 -0.412346)
(21.9537 -2.31309 -0.4516)
(22.6304 -2.45991 -0.438377)
(23.1723 -2.4987 -0.386514)
(23.5457 -2.44403 -0.315333)
(23.7525 -2.3197 -0.240767)
(23.8306 -2.15819 -0.172856)
(23.7631 -1.96737 -0.111321)
(23.6968 -1.82293 -0.0659664)
(23.2672 -1.56013 0.0235875)
(19.9997 -0.00113134 0.000229857)
(19.997 -0.00332622 0.000755614)
(19.9905 -0.00461929 0.00145244)
(19.9786 -0.00360285 0.00251975)
(19.9594 0.00269367 0.00435691)
(19.9296 0.0203185 0.00755513)
(19.8864 0.06356 0.0135139)
(19.834 0.157606 0.0245528)
(19.8066 0.368559 0.0441796)
(19.96 0.696108 0.0755764)
(20.4383 0.712201 0.0666932)
(20.8672 0.0649605 0.0063572)
(20.8433 -0.574081 -0.0538396)
(20.5098 -0.975636 -0.0923189)
(20.1996 -1.02317 -0.110894)
(20.1089 -1.00715 -0.123946)
(20.1808 -1.07479 -0.135047)
(20.2895 -1.19438 -0.141586)
(20.4038 -1.31916 -0.147616)
(20.6655 -1.48584 -0.228935)
(21.2182 -1.74838 -0.349653)
(21.9438 -2.00699 -0.422247)
(22.6346 -2.17862 -0.430155)
(23.17 -2.24224 -0.389106)
(23.5175 -2.21017 -0.322505)
(23.6808 -2.10636 -0.248862)
(23.7056 -1.9639 -0.180048)
(23.5667 -1.79262 -0.115495)
(23.4473 -1.65945 -0.0674406)
(22.8727 -1.41911 0.0379622)
(19.9998 -0.000742795 0.000212257)
(19.9975 -0.00211785 0.000693234)
(19.992 -0.00249281 0.00131878)
(19.9826 -0.000433025 0.00223226)
(19.9684 0.00671099 0.00370236)
(19.9486 0.0237764 0.00609567)
(19.9248 0.0602227 0.0100867)
(19.9055 0.129977 0.0168338)
(19.9162 0.249167 0.0268242)
(20.0356 0.40945 0.0408756)
(20.3185 0.404899 0.0354125)
(20.5806 0.0406225 0.000349821)
(20.5886 -0.421061 -0.03861)
(20.3907 -0.723436 -0.0671162)
(20.1835 -0.822464 -0.0840343)
(20.1018 -0.839398 -0.0954779)
(20.1375 -0.900781 -0.107291)
(20.2227 -1.01052 -0.119388)
(20.3253 -1.12268 -0.125579)
(20.5697 -1.25214 -0.191341)
(21.127 -1.47693 -0.330343)
(21.8777 -1.71585 -0.423473)
(22.59 -1.88424 -0.442667)
(23.1288 -1.95582 -0.405271)
(23.4602 -1.93897 -0.338162)
(23.5901 -1.85444 -0.262202)
(23.5708 -1.73101 -0.190392)
(23.3712 -1.5797 -0.121441)
(23.2057 -1.4593 -0.0697621)
(22.5061 -1.24491 0.0506461)
(19.9998 -0.000446792 0.000195121)
(19.998 -0.00121341 0.000631568)
(19.9936 -0.00102496 0.00117756)
(19.9864 0.00138079 0.00194245)
(19.9763 0.00811734 0.00309229)
(19.9641 0.0226419 0.00480459)
(19.9525 0.0505503 0.00741162)
(19.9502 0.0980736 0.0113312)
(19.9746 0.167188 0.0164251)
(20.0624 0.242836 0.0216309)
(20.2314 0.221332 0.0173889)
(20.3886 0.000298303 -0.00165389)
(20.4058 -0.300262 -0.026178)
(20.2884 -0.517625 -0.0484908)
(20.1471 -0.616216 -0.064843)
(20.0764 -0.657337 -0.0785196)
(20.0909 -0.719267 -0.0935094)
(20.1629 -0.812766 -0.109603)
(20.266 -0.905485 -0.119226)
(20.4978 -0.999857 -0.172533)
(21.0498 -1.18444 -0.323345)
(21.8128 -1.39821 -0.432033)
(22.5395 -1.55841 -0.460015)
(23.0803 -1.63516 -0.425255)
(23.3985 -1.63137 -0.356273)
(23.4997 -1.56413 -0.276084)
(23.4415 -1.46026 -0.200156)
(23.1893 -1.33143 -0.126692)
(22.9828 -1.22669 -0.0714169)
(22.1766 -1.04252 0.062436)
(19.9999 -0.000236172 0.000179218)
(19.9984 -0.000598507 0.000573198)
(19.995 -0.000155448 0.00105008)
(19.9895 0.00210847 0.00168931)
(19.9827 0.00773161 0.00257812)
(19.9757 0.0189795 0.0037989)
(19.9717 0.0388727 0.00549458)
(19.9775 0.0697994 0.0077461)
(20.0043 0.108869 0.0101003)
(20.0687 0.141458 0.0116179)
(20.1739 0.115264 0.00766428)
(20.2692 -0.020206 -0.00373412)
(20.2816 -0.213319 -0.0194729)
(20.2056 -0.369842 -0.0369713)
(20.1042 -0.458411 -0.052605)
(20.0445 -0.508055 -0.0679711)
(20.0495 -0.563249 -0.0853524)
(20.114 -0.636295 -0.104543)
(20.2211 -0.707796 -0.118751)
(20.4465 -0.767434 -0.161315)
(20.9903 -0.898073 -0.315144)
(21.7581 -1.07084 -0.435594)
(22.4944 -1.21056 -0.472306)
(23.036 -1.28407 -0.441278)
(23.3422 -1.28962 -0.371737)
(23.418 -1.23977 -0.288016)
(23.3254 -1.15735 -0.207821)
(23.0278 -1.05363 -0.12976)
(22.7855 -0.968199 -0.0710001)
(21.8908 -0.818944 0.0742744)
(19.9999 -9.97542e-05 0.00016611)
(19.9987 -0.000227556 0.000525805)
(19.996 0.000240756 0.000948382)
(19.992 0.0020389 0.00148701)
(19.9874 0.00618503 0.00218938)
(19.9838 0.0140404 0.00308342)
(19.9841 0.0270996 0.00419322)
(19.9935 0.0459113 0.00543611)
(20.0188 0.0669558 0.00635917)
(20.0671 0.0796812 0.00613536)
(20.1357 0.0572883 0.00238175)
(20.1939 -0.0254232 -0.00598594)
(20.1991 -0.145368 -0.0179781)
(20.1443 -0.250573 -0.0322857)
(20.0673 -0.317439 -0.0470075)
(20.0166 -0.359508 -0.0633056)
(20.0177 -0.401773 -0.0825079)
(20.0783 -0.453245 -0.103909)
(20.1922 -0.502073 -0.122407)
(20.4164 -0.531906 -0.154288)
(20.9508 -0.60758 -0.300207)
(21.7175 -0.730799 -0.426707)
(22.4593 -0.841728 -0.472313)
(23.0003 -0.906769 -0.447006)
(23.2954 -0.919936 -0.378934)
(23.3491 -0.888605 -0.293373)
(23.227 -0.830666 -0.210199)
(22.8916 -0.755264 -0.128428)
(22.6189 -0.692952 -0.0668196)
(21.6544 -0.58175 0.0871542)
(19.9999 -1.99353e-05 0.000156066)
(19.999 -3.12066e-05 0.000490686)
(19.9967 0.000312846 0.000874064)
(19.9936 0.00145688 0.00134213)
(19.9904 0.00397614 0.00191994)
(19.9888 0.00857951 0.0026012)
(19.9914 0.0159014 0.00335036)
(20.0022 0.0258887 0.0040111)
(20.0254 0.0360441 0.00416673)
(20.0636 0.0401903 0.00310887)
(20.1118 0.0253391 -0.00049703)
(20.1492 -0.019937 -0.00742251)
(20.1487 -0.0855265 -0.0174848)
(20.1044 -0.145744 -0.0300552)
(20.041 -0.186912 -0.0442741)
(19.996 -0.214776 -0.0611518)
(19.9956 -0.241577 -0.0815914)
(20.0551 -0.271868 -0.104188)
(20.1766 -0.298734 -0.125888)
(20.4025 -0.308761 -0.147413)
(20.931 -0.340896 -0.278931)
(21.6969 -0.408702 -0.404094)
(22.442 -0.478508 -0.455878)
(22.9811 -0.524575 -0.436833)
(23.2655 -0.538517 -0.372137)
(23.2999 -0.523335 -0.286871)
(23.1533 -0.491029 -0.203014)
(22.788 -0.445729 -0.119535)
(22.4914 -0.410901 -0.0573633)
(21.476 -0.33817 0.102556)
(19.9999 3.98937e-06 0.000151041)
(19.9991 1.61755e-05 0.000473638)
(19.9971 0.000143892 0.000838159)
(19.9944 0.000536586 0.00127217)
(19.9919 0.00137976 0.00179093)
(19.9912 0.00289014 0.00237065)
(19.9948 0.00523876 0.00295478)
(20.0059 0.00834408 0.0033531)
(20.0278 0.0113061 0.00315749)
(20.0611 0.0121262 0.00173265)
(20.1 0.00691757 -0.00182841)
(20.1281 -0.00757458 -0.00823939)
(20.1245 -0.0285079 -0.0175509)
(20.0841 -0.0481965 -0.0293379)
(20.0265 -0.0622234 -0.0432793)
(19.9844 -0.07207 -0.0603396)
(19.9839 -0.081282 -0.0812864)
(20.044 -0.0911118 -0.104314)
(20.1708 -0.0991866 -0.127534)
(20.398 -0.100527 -0.138499)
(20.937 -0.108189 -0.259416)
(21.716 -0.128096 -0.381447)
(22.4653 -0.15057 -0.432183)
(22.9977 -0.166758 -0.414155)
(23.2677 -0.172591 -0.35048)
(23.2825 -0.1684 -0.265714)
(23.1152 -0.158597 -0.18353)
(22.7271 -0.143513 -0.0997597)
(22.4144 -0.133508 -0.0420736)
(21.3664 -0.106615 0.124291)
(20.0002 -0.000456036 0.000552564)
(20.0022 -0.00145021 0.00171705)
(20.0063 -0.00268456 0.0030795)
(20.0135 -0.00437971 0.00478945)
(20.0249 -0.00681107 0.00696434)
(20.0428 -0.0103078 0.00971596)
(20.0706 -0.0151951 0.0130344)
(20.1129 -0.021686 0.0168053)
(20.175 -0.0293586 0.0203994)
(20.2607 -0.0368095 0.0229053)
(20.3693 -0.0414873 0.0226408)
(20.4904 -0.039892 0.01779)
(20.6068 -0.033953 0.00868274)
(20.7111 -0.0305265 -0.00175279)
(20.8191 -0.0345832 -0.0102547)
(20.9579 -0.0448472 -0.0156831)
(21.1444 -0.0575072 -0.0184164)
(21.3796 -0.0704153 -0.0188609)
(21.6561 -0.0834764 -0.0151635)
(21.9665 -0.0961763 -0.00428681)
(22.306 -0.106026 0.013886)
(22.6602 -0.13788 0.0648992)
(23.1377 -0.21594 0.154009)
(23.9948 -0.275084 0.146567)
(25.234 -0.258541 -0.0463514)
(26.4567 -0.204821 -0.247022)
(27.4697 -0.16304 -0.342855)
(28.4079 -0.134553 -0.393437)
(29.0896 -0.123153 -0.43167)
(30.2728 -0.0935398 -0.624642)
(20.0002 -0.00133267 0.000561048)
(20.002 -0.00424933 0.00175269)
(20.0057 -0.00787868 0.00315973)
(20.0121 -0.012874 0.00495242)
(20.0225 -0.0200762 0.00728164)
(20.0389 -0.0305067 0.0103027)
(20.0648 -0.0452514 0.0140891)
(20.1054 -0.0650626 0.0185899)
(20.1667 -0.0889726 0.0231571)
(20.254 -0.112566 0.0267912)
(20.3676 -0.127379 0.0273155)
(20.4946 -0.121395 0.0219145)
(20.6118 -0.100921 0.0111041)
(20.7093 -0.0890535 -0.000992723)
(20.8081 -0.101359 -0.01011)
(20.9406 -0.13304 -0.0153808)
(21.1244 -0.171663 -0.0179598)
(21.3578 -0.210714 -0.0183037)
(21.6334 -0.25072 -0.0143549)
(21.9464 -0.290328 -0.0031919)
(22.2927 -0.32552 0.0214203)
(22.692 -0.420835 0.0780238)
(23.2334 -0.617713 0.146934)
(24.0275 -0.776114 0.123243)
(25.0751 -0.746034 -0.0409526)
(26.1317 -0.614755 -0.203204)
(27.0751 -0.500738 -0.291908)
(27.9766 -0.417774 -0.344244)
(28.641 -0.376541 -0.389652)
(29.7879 -0.29766 -0.570809)
(20.0002 -0.00213145 0.000584614)
(20.0016 -0.0068135 0.00183665)
(20.0046 -0.0126544 0.00333958)
(20.0096 -0.0207313 0.00530543)
(20.0177 -0.0324851 0.00796679)
(20.0311 -0.0497481 0.0115903)
(20.0532 -0.0747411 0.0164377)
(20.09 -0.109171 0.0226208)
(20.1497 -0.152116 0.0295477)
(20.2409 -0.196158 0.0359338)
(20.3666 -0.223502 0.0380593)
(20.5085 -0.209302 0.0312147)
(20.6286 -0.166322 0.0162606)
(20.7125 -0.141849 0.000474497)
(20.7934 -0.163284 -0.00994597)
(20.9154 -0.219033 -0.0149527)
(21.0965 -0.285121 -0.0172697)
(21.3292 -0.351319 -0.0179564)
(21.6057 -0.421075 -0.0147563)
(21.9231 -0.49089 -0.00324906)
(22.286 -0.562932 0.0250892)
(22.7623 -0.738491 0.075856)
(23.4035 -1.02211 0.114659)
(24.1791 -1.19951 0.0546527)
(25.016 -1.14288 -0.0740834)
(25.8908 -0.97613 -0.186903)
(26.7214 -0.821127 -0.252668)
(27.5464 -0.697984 -0.297227)
(28.1642 -0.626015 -0.340403)
(29.2385 -0.510424 -0.508236)
(20.0001 -0.00282012 0.000616992)
(20.001 -0.00902445 0.00195223)
(20.0028 -0.0167809 0.00359191)
(20.0058 -0.0275636 0.00580886)
(20.0106 -0.0434809 0.00898013)
(20.0191 -0.0673465 0.0135728)
(20.0349 -0.103019 0.0202195)
(20.0648 -0.154226 0.0293934)
(20.1205 -0.221628 0.0409146)
(20.2175 -0.295062 0.0526806)
(20.3657 -0.340349 0.0576857)
(20.5354 -0.308528 0.0477376)
(20.6601 -0.226391 0.0254189)
(20.7192 -0.182347 0.00370107)
(20.77 -0.215894 -0.00821442)
(20.8761 -0.300396 -0.0121711)
(21.0538 -0.394128 -0.01417)
(21.2852 -0.486566 -0.0160657)
(21.5619 -0.587711 -0.0146061)
(21.882 -0.688754 -0.00467965)
(22.2792 -0.81336 0.0169111)
(22.8415 -1.07888 0.0446049)
(23.5337 -1.40706 0.0385761)
(24.2153 -1.544 -0.0223547)
(24.9103 -1.46525 -0.109834)
(25.6431 -1.28883 -0.179827)
(26.3565 -1.11381 -0.221056)
(27.0847 -0.961923 -0.253125)
(27.6368 -0.8659 -0.288604)
(28.6077 -0.715861 -0.437514)
(20.0001 -0.0033554 0.000655467)
(20.0003 -0.0107425 0.00209135)
(20.0006 -0.0199908 0.00390157)
(20.0008 -0.0329199 0.00644815)
(20.0013 -0.0522395 0.0102712)
(20.0029 -0.0821088 0.0162173)
(20.0088 -0.128796 0.025587)
(20.0267 -0.199615 0.0397496)
(20.0733 -0.300306 0.0596861)
(20.178 -0.420289 0.081712)
(20.3665 -0.495803 0.0912984)
(20.5864 -0.430146 0.074817)
(20.7155 -0.278279 0.0402801)
(20.7305 -0.20245 0.00909899)
(20.7343 -0.256691 -0.00383905)
(20.8205 -0.384125 -0.00530711)
(20.9965 -0.510357 -0.0073309)
(21.2264 -0.628573 -0.0114785)
(21.4988 -0.760066 -0.0117045)
(21.8257 -0.891052 -0.0059069)
(22.2777 -1.07211 -0.00251078)
(22.9017 -1.40401 -0.0121338)
(23.5573 -1.71689 -0.0453246)
(24.1517 -1.82021 -0.0948151)
(24.7406 -1.73526 -0.144023)
(25.3527 -1.55955 -0.177725)
(25.9516 -1.37464 -0.19555)
(26.5728 -1.20281 -0.212796)
(27.0472 -1.08804 -0.237604)
(27.8909 -0.909248 -0.361885)
(20 -0.00370831 0.000697449)
(19.9995 -0.0118662 0.00224345)
(19.9981 -0.0220678 0.00424014)
(19.9951 -0.0363692 0.00717394)
(19.99 -0.0580185 0.0117794)
(19.9823 -0.0925716 0.0195254)
(19.9737 -0.149835 0.0328862)
(19.9713 -0.243548 0.0548529)
(19.9981 -0.390519 0.0893287)
(20.1104 -0.587999 0.133539)
(20.3712 -0.716037 0.153481)
(20.6788 -0.586563 0.124995)
(20.8092 -0.319007 0.0693163)
(20.744 -0.186443 0.0251597)
(20.6731 -0.262252 0.0161103)
(20.7367 -0.44299 0.0232966)
(20.9209 -0.610104 0.0259292)
(21.1546 -0.76358 0.0241011)
(21.4246 -0.930625 0.0232164)
(21.777 -1.08725 0.0112382)
(22.2877 -1.31205 -0.0233583)
(22.9138 -1.67296 -0.0774303)
(23.4816 -1.95206 -0.124549)
(23.9864 -2.03586 -0.156936)
(24.4773 -1.95445 -0.174296)
(24.9798 -1.78527 -0.178499)
(25.4704 -1.59749 -0.175324)
(25.9836 -1.41328 -0.177122)
(26.3771 -1.28472 -0.189883)
(27.0817 -1.08433 -0.285003)
(19.9999 -0.00385607 0.000735521)
(19.9987 -0.0123303 0.00239309)
(19.9954 -0.0228558 0.00459314)
(19.9889 -0.0375509 0.00792715)
(19.9773 -0.060008 0.0134507)
(19.9579 -0.0968607 0.023364)
(19.9286 -0.161947 0.0422357)
(19.8927 -0.278504 0.0763895)
(19.8793 -0.500462 0.135554)
(19.9903 -0.809718 0.226063)
(20.3632 -1.01729 0.274671)
(20.8252 -0.749441 0.236614)
(20.9681 -0.345825 0.150657)
(20.7839 -0.15178 0.0882246)
(20.6075 -0.289347 0.0954502)
(20.6487 -0.520459 0.124412)
(20.8548 -0.712781 0.141046)
(21.106 -0.899862 0.145246)
(21.3946 -1.09694 0.127979)
(21.7732 -1.26288 0.0589799)
(22.2611 -1.49316 -0.042309)
(22.7641 -1.828 -0.129815)
(23.2031 -2.08804 -0.185564)
(23.6151 -2.17919 -0.205716)
(24.0288 -2.11791 -0.200145)
(24.4515 -1.96465 -0.181391)
(24.861 -1.7816 -0.159888)
(25.2858 -1.59216 -0.146327)
(25.6117 -1.45483 -0.147048)
(26.1846 -1.2389 -0.209318)
(19.9998 -0.00379825 0.000766583)
(19.9979 -0.0121233 0.00250874)
(19.9928 -0.0223247 0.00489105)
(19.9828 -0.036243 0.00870525)
(19.9646 -0.0574914 0.0151467)
(19.9319 -0.0924896 0.0272767)
(19.875 -0.159031 0.053076)
(19.7828 -0.284992 0.104458)
(19.6831 -0.598813 0.213774)
(19.7113 -1.01339 0.294355)
(20.1098 -1.48965 0.396039)
(20.9353 -1.42573 0.375676)
(21.3321 -0.489313 0.318808)
(21.0156 -0.0722633 0.203487)
(20.5643 -0.285487 0.293376)
(20.5973 -0.634267 0.350667)
(20.8119 -0.807242 0.343342)
(21.0445 -0.967438 0.284809)
(21.3128 -1.13739 0.184892)
(21.6336 -1.26827 0.0483304)
(21.9161 -1.45874 -0.0806286)
(22.1669 -1.7885 -0.178484)
(22.5005 -2.10596 -0.236318)
(22.9222 -2.26597 -0.24829)
(23.3629 -2.25214 -0.226193)
(23.7842 -2.12231 -0.188446)
(24.1657 -1.94598 -0.149908)
(24.5355 -1.75266 -0.120793)
(24.8138 -1.60838 -0.109711)
(25.2649 -1.37661 -0.137283)
(19.9998 -0.00356372 0.000789218)
(19.9972 -0.0112904 0.00258279)
(19.9906 -0.0205591 0.00506335)
(19.9776 -0.0327736 0.00923159)
(19.9535 -0.0504207 0.0166459)
(19.9079 -0.0788 0.0310284)
(19.8212 -0.131605 0.0626338)
(19.6552 -0.253421 0.139246)
(19.4613 -0.484612 0.228709)
(19.2233 -1.37549 0.539655)
(19.8121 -2.00325 0.762083)
(21.241 -2.72238 0.784584)
(22.098 -0.632788 1.57241)
(21.062 0.38982 1.34509)
(19.8281 0.717026 0.119112)
(20.0014 -0.00962015 0.00779321)
(20.2519 -0.330693 -0.0976347)
(20.2895 -0.528861 -0.171207)
(20.2451 -0.693936 -0.220913)
(20.2269 -0.829196 -0.230717)
(20.3169 -1.08329 -0.20811)
(20.7667 -1.60083 -0.231445)
(21.5254 -2.13438 -0.27901)
(22.2659 -2.41245 -0.289937)
(22.8452 -2.43208 -0.25649)
(23.287 -2.30064 -0.201419)
(23.6325 -2.11261 -0.145999)
(23.9281 -1.90418 -0.101459)
(24.1395 -1.74719 -0.07752)
(24.4372 -1.49365 -0.0720893)
(19.9997 -0.0031764 0.000796554)
(19.9967 -0.0100017 0.00261927)
(19.9892 -0.01777 0.00512344)
(19.9741 -0.0273307 0.00927578)
(19.9467 -0.0401834 0.0171047)
(19.8915 -0.0583503 0.0324586)
(19.7871 -0.0883827 0.0678384)
(19.5349 -0.150249 0.162287)
(19.1551 -0.332541 0.308809)
(18.1828 -1.29835 0.792361)
(19.7831 -2.33173 1.61371)
(19.0896 -2.05944 -1.82999)
(22.7377 1.96402 -1.61563)
(20.8107 2.01473 -1.79855)
(11.484 1.92784 0.813045)
(13.1185 0.92857 0.375155)
(14.1373 0.324098 0.190269)
(14.7572 -0.136063 0.104315)
(15.3984 -0.564 0.047312)
(16.378 -1.01743 -0.0110897)
(17.999 -1.58581 -0.135839)
(19.9274 -2.18365 -0.310937)
(21.4358 -2.58173 -0.404225)
(22.3463 -2.70574 -0.387858)
(22.863 -2.63029 -0.313893)
(23.1773 -2.44919 -0.228133)
(23.3854 -2.23304 -0.15236)
(23.5342 -2.00523 -0.0925075)
(23.629 -1.8341 -0.0534546)
(23.7219 -1.56418 -0.0169998)
(19.9997 -0.00269359 0.000789006)
(19.9965 -0.00838491 0.00259247)
(19.9885 -0.0144714 0.00507015)
(19.9728 -0.0209358 0.00917787)
(19.9444 -0.027137 0.0169577)
(19.8879 -0.0317794 0.0321787)
(19.783 -0.0293787 0.0673555)
(19.5237 -0.00080746 0.16151)
(19.0807 0.0365759 0.326397)
(17.0914 0.26501 1.05827)
(1.21088 -0.0648783 -2.84704)
(11.9449 -2.7068 0.288273)
(14.1853 -2.10393 -0.0892507)
(15.8049 -1.88329 -0.266687)
(16.9107 -1.86888 -0.3645)
(17.8964 -1.97262 -0.448337)
(19.0862 -2.15776 -0.542041)
(20.4416 -2.42897 -0.635882)
(21.587 -2.69947 -0.672907)
(22.347 -2.839 -0.621948)
(22.788 -2.81675 -0.511655)
(23.024 -2.67695 -0.3845)
(23.1377 -2.47229 -0.267772)
(23.1807 -2.24792 -0.171766)
(23.1713 -2.01713 -0.0957719)
(23.1443 -1.84174 -0.0396514)
(23.0329 -1.57304 0.0292763)
(19.9997 -0.00216513 0.000766336)
(19.9965 -0.00665976 0.00250014)
(19.9886 -0.0109501 0.0048956)
(19.9735 -0.0144744 0.00895726)
(19.9466 -0.015567 0.0161751)
(19.8972 -0.0098831 0.0301049)
(19.8075 0.0157784 0.0609898)
(19.6293 0.103184 0.137204)
(19.3129 0.30112 0.262772)
(18.6567 1.41202 0.840964)
(20.0774 3.2442 1.78472)
(24.1803 3.51509 -2.76834)
(20.9679 -1.97585 -1.29097)
(21.573 -2.1019 -1.04097)
(19.9553 -1.6942 -0.759944)
(20.1822 -1.16017 -0.751777)
(20.4975 -1.10479 -0.738796)
(20.7028 -1.2291 -0.732809)
(20.8618 -1.4132 -0.738087)
(21.139 -1.77751 -0.798558)
(21.6554 -2.25414 -0.856043)
(22.2132 -2.60633 -0.834426)
(22.6267 -2.75408 -0.729346)
(22.8595 -2.73095 -0.580976)
(22.949 -2.59647 -0.428737)
(22.9381 -2.40045 -0.29462)
(22.8667 -2.18438 -0.185378)
(22.7378 -1.9613 -0.0971071)
(22.6158 -1.78777 -0.0272318)
(22.3337 -1.53049 0.0726274)
(19.9997 -0.00164962 0.000728189)
(19.9967 -0.00496204 0.00237356)
(19.9894 -0.00771106 0.0046224)
(19.9759 -0.00881329 0.00822272)
(19.953 -0.00547524 0.014301)
(19.9144 0.00762384 0.025827)
(19.8503 0.0477463 0.0506764)
(19.7507 0.139042 0.0999696)
(19.6367 0.429523 0.211389)
(19.5041 0.943778 0.371124)
(20.246 1.57434 0.514477)
(21.5907 0.757653 0.0250995)