/*--------------------------------*- C++ -*----------------------------------*\
| =========                 |                                                 |
| \\      /  F ield         | OpenFOAM: The Open Source CFD Toolbox           |
|  \\    /   O peration     | Version:  2512                                  |
|   \\  /    A nd           | Website:  www.openfoam.com                      |
|    \\/     M anipulation  |                                                 |
\*---------------------------------------------------------------------------*/
FoamFile
{
    version     2.0;
    format      ascii;
    arch        "LSB;label=32;scalar=64";
    class       volScalarField;
    location    "260";
    object      k;
}
// * * * * * * * * * * * * * * * * * * * * * * * * * * * * * * * * * * * * * //

dimensions      [0 2 -2 0 0 0 0];

internalField   nonuniform List<scalar> 
90398
(
0.231944
0.224239
0.216995
0.210164
0.203728
0.197657
0.19191
0.18649
0.18139
0.176589
0.1721
0.167894
0.163901
0.160096
0.156432
0.152901
0.149494
0.146241
0.143129
0.140158
0.137323
0.134624
0.132063
0.129638
0.127351
0.125215
0.123228
0.121437
0.119768
0.118445
0.231944
0.224239
0.217
0.210174
0.203746
0.197685
0.191953
0.186549
0.181464
0.176678
0.172207
0.168016
0.164035
0.160232
0.156564
0.153023
0.149607
0.146347
0.143227
0.140245
0.137399
0.134692
0.132124
0.129694
0.127406
0.125271
0.123287
0.121505
0.119849
0.11859
0.231945
0.224241
0.217008
0.210188
0.203769
0.19772
0.191999
0.186621
0.181565
0.176813
0.17239
0.168237
0.164287
0.160495
0.15682
0.153266
0.149836
0.146567
0.14344
0.140453
0.137604
0.134899
0.132337
0.129916
0.127639
0.125519
0.123555
0.121802
0.120184
0.11919
0.231945
0.224243
0.217015
0.210202
0.20379
0.197754
0.192046
0.186695
0.181684
0.176997
0.172658
0.168579
0.164688
0.160917
0.157238
0.153667
0.150221
0.146943
0.143808
0.140812
0.137958
0.135248
0.13269
0.130285
0.128032
0.125943
0.124016
0.12232
0.120813
0.120817
0.231945
0.224245
0.217019
0.210215
0.203809
0.197786
0.192096
0.186781
0.181832
0.177219
0.172959
0.16901
0.165258
0.161529
0.157844
0.154253
0.1508
0.147525
0.144398
0.141418
0.138588
0.135912
0.133401
0.131054
0.128871
0.126864
0.125034
0.123463
0.122284
0.125424
0.23195
0.224245
0.217021
0.210227
0.203828
0.197813
0.192161
0.186884
0.181985
0.177439
0.173727
0.170155
0.166563
0.162786
0.159004
0.155305
0.151785
0.14846
0.145291
0.142284
0.139444
0.136777
0.134297
0.132012
0.129918
0.128025
0.126335
0.124956
0.12443
0.133818
0.231955
0.224254
0.217022
0.210235
0.203846
0.197844
0.192225
0.187
0.182089
0.177942
0.179425
0.180575
0.177364
0.172337
0.167598
0.163675
0.160083
0.156262
0.152526
0.148923
0.145466
0.142208
0.139202
0.136484
0.134102
0.132061
0.130366
0.129135
0.12936
0.144497
0.231955
0.224262
0.217036
0.210259
0.20387
0.19788
0.192293
0.187033
0.182262
0.177763
0.187783
0.254775
0.251706
0.221957
0.307588
0.300052
0.288611
0.272988
0.256132
0.239232
0.223155
0.208663
0.196129
0.185796
0.177592
0.171191
0.166344
0.162979
0.161854
0.172631
0.231955
0.224263
0.217051
0.210283
0.203909
0.197914
0.192349
0.187111
0.181982
0.174322
0.538579
1.58679
1.65638
1.34623
1.32172
1.16235
1.03228
0.911725
0.801592
0.704298
0.620851
0.551345
0.495888
0.452004
0.417814
0.39198
0.372977
0.359642
0.351518
0.354739
0.231956
0.224265
0.217051
0.210281
0.203923
0.197937
0.19239
0.187199
0.182282
0.175313
2.0028
4.507
3.55661
2.65706
2.18118
1.85639
1.60665
1.40396
1.23812
1.09929
0.982017
0.882056
0.795336
0.721168
0.658394
0.605695
0.561664
0.525159
0.495885
0.482703
0.231956
0.224266
0.217054
0.210285
0.203927
0.19794
0.192389
0.187186
0.182297
0.176284
4.62965
4.33621
2.99842
1.79384
1.66055
1.54539
1.44773
1.36036
1.27585
1.18969
1.10201
1.0151
0.93227
0.856118
0.787943
0.728157
0.677079
0.637742
0.643439
0.231957
0.224267
0.217058
0.210292
0.203919
0.197922
0.192348
0.187102
0.182025
0.175556
0.392027
0.479186
0.260258
0.23643
0.463054
0.480374
0.496595
0.516005
0.539631
0.567297
0.59706
0.627313
0.655195
0.677406
0.690821
0.695342
0.692095
0.682503
0.675162
0.726051
0.231957
0.224267
0.217046
0.210272
0.203885
0.197895
0.192297
0.187075
0.182237
0.177422
0.172489
0.166454
0.159912
0.154419
0.169041
0.166939
0.165125
0.164052
0.164347
0.16682
0.172336
0.181835
0.19581
0.214048
0.236851
0.262499
0.289096
0.314423
0.351157
0.543542
0.231956
0.224259
0.217032
0.21025
0.203864
0.197863
0.19224
0.186993
0.182111
0.177698
0.173722
0.169996
0.166873
0.1639
0.161005
0.158032
0.155011
0.152037
0.149117
0.146331
0.143823
0.141772
0.140371
0.139813
0.140235
0.141709
0.144113
0.148931
0.219559
0.736415
0.231952
0.22425
0.217031
0.210242
0.203847
0.197835
0.192182
0.186894
0.182001
0.177459
0.173241
0.169369
0.165937
0.162688
0.159412
0.156055
0.152635
0.149273
0.145941
0.142652
0.139442
0.136351
0.133433
0.130703
0.128169
0.125827
0.123739
0.12585
0.225892
0.830967
0.231947
0.224249
0.217028
0.210229
0.203829
0.19781
0.192123
0.186805
0.181838
0.177213
0.172928
0.168888
0.165186
0.161628
0.15812
0.154626
0.151158
0.147815
0.144566
0.141402
0.138325
0.13534
0.132451
0.129663
0.12699
0.124443
0.122155
0.123423
0.205136
0.721625
0.231946
0.224247
0.217023
0.210215
0.203808
0.197778
0.192078
0.186731
0.181719
0.177014
0.172634
0.168511
0.164631
0.160935
0.157334
0.153799
0.150321
0.146975
0.143732
0.140585
0.137534
0.134585
0.131741
0.12901
0.126403
0.123935
0.121707
0.121707
0.174602
0.549628
0.231945
0.224244
0.217014
0.210198
0.203785
0.197746
0.192036
0.186672
0.18163
0.176883
0.17245
0.168275
0.164321
0.160552
0.156901
0.153345
0.149866
0.146523
0.143294
0.140172
0.137155
0.134249
0.131453
0.128773
0.126222
0.12381
0.121615
0.120569
0.147519
0.377261
0.231944
0.224241
0.217004
0.210182
0.203762
0.197713
0.192
0.18662
0.18156
0.176796
0.172333
0.168129
0.164131
0.160323
0.156647
0.153083
0.14961
0.146273
0.143055
0.13995
0.136956
0.134073
0.131306
0.128656
0.126137
0.123761
0.12159
0.119954
0.129637
0.24093
0.231944
0.22424
0.216999
0.210172
0.203747
0.197694
0.191973
0.186587
0.181522
0.17675
0.172275
0.16806
0.164043
0.160219
0.156533
0.152964
0.149493
0.146154
0.142936
0.139833
0.136841
0.133962
0.1312
0.128556
0.126045
0.123678
0.121512
0.119627
0.12161
0.166103
0.238839
0.237495
0.236014
0.23442
0.232739
0.230994
0.229197
0.227384
0.22559
0.223839
0.222085
0.220249
0.21832
0.216401
0.21452
0.212652
0.210786
0.208938
0.207112
0.205305
0.203521
0.201764
0.20004
0.198353
0.19671
0.195131
0.193639
0.192241
0.191038
0.190087
0.238839
0.237495
0.236014
0.234421
0.232741
0.230997
0.2292
0.227396
0.225624
0.223918
0.22223
0.220441
0.218545
0.216639
0.214759
0.212886
0.211011
0.20916
0.20733
0.205522
0.203738
0.201981
0.200256
0.198567
0.196927
0.19535
0.193862
0.192473
0.191332
0.191092
0.238839
0.237495
0.236015
0.234423
0.232744
0.231002
0.229208
0.227428
0.225717
0.224146
0.222645
0.220985
0.219187
0.217319
0.215441
0.213559
0.211666
0.209807
0.207972
0.206162
0.204378
0.202622
0.200898
0.199215
0.197584
0.196019
0.194547
0.193199
0.192424
0.19643
0.238839
0.237495
0.236016
0.234425
0.232747
0.23101
0.22923
0.227501
0.225945
0.224719
0.223687
0.222379
0.220785
0.218978
0.217086
0.215164
0.213229
0.211333
0.209467
0.207635
0.205837
0.204079
0.202353
0.200678
0.199061
0.197517
0.196083
0.194874
0.195737
0.217314
0.238839
0.237495
0.236017
0.234427
0.232757
0.23103
0.22928
0.227666
0.226473
0.225999
0.225816
0.22528
0.224049
0.222346
0.220444
0.218449
0.216426
0.214456
0.212525
0.210634
0.208786
0.206984
0.205229
0.203538
0.20192
0.200391
0.199007
0.198183
0.204484
0.27463
0.238839
0.237495
0.236017
0.23443
0.232765
0.231071
0.229391
0.22801
0.22754
0.228018
0.229069
0.229334
0.228978
0.227397
0.225327
0.223163
0.220956
0.218834
0.216807
0.21487
0.213007
0.211224
0.209515
0.207888
0.206367
0.204975
0.203805
0.203918
0.221653
0.373944
0.23884
0.237495
0.236019
0.234437
0.232774
0.231113
0.229587
0.228695
0.229102
0.231165
0.23521
0.237781
0.238326
0.237357
0.234999
0.232331
0.229687
0.227146
0.224811
0.222669
0.220726
0.219004
0.2175
0.216225
0.215155
0.214333
0.213885
0.215556
0.247305
0.486058
0.238841
0.237498
0.236025
0.234453
0.232786
0.231146
0.229819
0.229564
0.231347
0.232339
0.243857
0.26556
0.270511
0.266007
0.283869
0.275819
0.268928
0.262713
0.257304
0.252779
0.249365
0.24689
0.245246
0.244439
0.244559
0.245828
0.248515
0.254355
0.285578
0.517033
0.238841
0.2375
0.236029
0.234462
0.232806
0.231172
0.230064
0.230251
0.230601
0.236945
0.384459
0.616705
0.605895
0.47492
0.716164
0.656908
0.608015
0.567537
0.539425
0.521578
0.512351
0.510846
0.516123
0.527241
0.543297
0.56322
0.58608
0.611178
0.663887
0.872966
0.238841
0.2375
0.23603
0.234465
0.232833
0.231212
0.230289
0.230927
0.232273
0.238855
0.684297
5.53783
1.22912
1.37812
1.45479
1.13333
0.952245
0.837191
0.758694
0.702274
0.661461
0.633133
0.61517
0.605744
0.602972
0.604579
0.608545
0.613783
0.668537
0.971641
0.238841
0.2375
0.23603
0.234465
0.232832
0.231207
0.230236
0.23082
0.232543
0.243899
2.31607
2.03992
1.51176
1.21959
1.04116
0.924783
0.842715
0.780435
0.730348
0.688722
0.653726
0.624505
0.601376
0.58629
0.586861
0.70417
1.42076
0.238841
0.237501
0.23603
0.234461
0.232803
0.231156
0.229952
0.230015
0.230826
0.240901
0.301926
0.649424
1.63833
3.00778
0.874322
0.882315
0.873183
0.868137
0.8742
0.891269
0.919036
0.955643
0.998041
1.03889
1.07275
1.09602
1.10753
1.11196
1.285
2.50423
0.238841
0.237498
0.236026
0.234454
0.232785
0.231131
0.229726
0.229255
0.230487
0.232557
0.238722
0.245769
0.249763
0.250895
0.255874
0.258406
0.259155
0.260299
0.263301
0.269275
0.278489
0.291639
0.308416
0.329151
0.353994
0.382186
0.412362
0.463558
0.978336
3.23979
0.23884
0.237496
0.236021
0.234439
0.232777
0.231108
0.229527
0.228392
0.228412
0.229533
0.231327
0.232969
0.234199
0.234855
0.234387
0.232625
0.230331
0.228015
0.225878
0.224
0.222489
0.221497
0.221141
0.221511
0.222676
0.224602
0.229148
0.315431
1.32826
4.33513
0.238839
0.237496
0.236019
0.234434
0.232771
0.231076
0.229371
0.227854
0.227
0.226858
0.226983
0.226952
0.226761
0.226251
0.224952
0.223156
0.221094
0.218948
0.216747
0.214507
0.212242
0.209984
0.207745
0.205549
0.203426
0.201467
0.202962
0.312057
1.33667
4.41768
0.23884
0.237496
0.236019
0.234432
0.232766
0.231042
0.229287
0.227616
0.226189
0.225156
0.224258
0.223281
0.222178
0.220933
0.219395
0.217551
0.215549
0.213505
0.21145
0.209394
0.20734
0.205293
0.203259
0.20125
0.199282
0.197439
0.19842
0.285496
1.13023
3.81464
0.238839
0.237496
0.236019
0.234431
0.232758
0.231028
0.229254
0.227508
0.225854
0.224348
0.222886
0.221369
0.219815
0.218222
0.216528
0.214702
0.2128
0.210874
0.208942
0.207004
0.205066
0.203133
0.201205
0.199305
0.197444
0.195683
0.195665
0.249858
0.862292
2.96997
0.238839
0.237496
0.236018
0.234429
0.232756
0.231023
0.229241
0.227462
0.225716
0.224024
0.222328
0.220576
0.21881
0.217057
0.215281
0.213449
0.211575
0.209683
0.207791
0.205901
0.204014
0.202137
0.200273
0.198435
0.19664
0.194929
0.194102
0.220136
0.596426
2.06846
0.238839
0.237496
0.236017
0.234428
0.232754
0.231021
0.229238
0.227445
0.225661
0.223896
0.222106
0.220272
0.218416
0.216594
0.214782
0.212943
0.21108
0.209199
0.207323
0.205452
0.203588
0.201736
0.199902
0.198093
0.196326
0.194636
0.193355
0.202171
0.383221
1.25006
0.23884
0.237496
0.236017
0.234428
0.232754
0.231021
0.229239
0.227441
0.225646
0.223856
0.222031
0.220164
0.218277
0.216428
0.2146
0.212756
0.210892
0.209012
0.20714
0.205274
0.203416
0.201572
0.199748
0.197952
0.196196
0.194513
0.193046
0.194678
0.260388
0.686726
0.239048
0.238076
0.23709
0.236088
0.235071
0.234046
0.233025
0.232034
0.231108
0.230262
0.229423
0.228455
0.227335
0.226182
0.225039
0.223885
0.222715
0.22153
0.220351
0.219174
0.218
0.216835
0.215683
0.214553
0.213456
0.212409
0.211463
0.210602
0.210158
0.210853
0.239048
0.238076
0.23709
0.236089
0.235071
0.23405
0.233036
0.232063
0.231176
0.230403
0.229666
0.228782
0.227712
0.226583
0.225445
0.224286
0.223114
0.221924
0.22074
0.219558
0.218381
0.217213
0.216059
0.214925
0.213826
0.212778
0.211836
0.21102
0.211305
0.2196
0.239048
0.238076
0.237091
0.23609
0.235074
0.234059
0.233062
0.232132
0.231347
0.230773
0.230306
0.229637
0.228711
0.227645
0.226517
0.22535
0.224161
0.222962
0.221766
0.220571
0.219383
0.218205
0.21704
0.215898
0.214795
0.213747
0.212825
0.212297
0.21695
0.266456
0.239048
0.238076
0.237092
0.236093
0.23508
0.234075
0.23311
0.23227
0.231709
0.231577
0.231603
0.231458
0.230796
0.229854
0.228747
0.227552
0.226323
0.225088
0.223856
0.222631
0.221416
0.220217
0.219033
0.217881
0.216775
0.215735
0.214892
0.215678
0.239501
0.421048
0.239048
0.238077
0.237093
0.236096
0.235094
0.234101
0.233195
0.232528
0.232415
0.232799
0.233517
0.233954
0.233955
0.23336
0.232394
0.231215
0.229958
0.228683
0.227404
0.226134
0.224878
0.223641
0.222429
0.221257
0.220141
0.219109
0.218471
0.22365
0.303471
0.750729
0.239048
0.238078
0.237095
0.236101
0.235109
0.234142
0.233336
0.232992
0.233362
0.234692
0.236668
0.238049
0.238731
0.238701
0.237887
0.236724
0.235415
0.234076
0.232737
0.231417
0.230127
0.228879
0.227684
0.226567
0.225541
0.224656
0.224613
0.239818
0.421644
1.24367
0.239048
0.238077
0.237098
0.236106
0.235125
0.234203
0.233554
0.233633
0.234823
0.237642
0.241708
0.245267
0.247335
0.248248
0.248003
0.246768
0.245305
0.243827
0.242381
0.240961
0.239611
0.238368
0.237269
0.236342
0.235634
0.235238
0.236275
0.264105
0.573555
1.80236
0.239049
0.238077
0.237097
0.236108
0.235144
0.234276
0.233839
0.234371
0.236683
0.242565
0.245961
0.255589
0.262048
0.265277
0.279143
0.278084
0.275651
0.272978
0.270499
0.268422
0.266965
0.266441
0.266921
0.268465
0.271172
0.275163
0.281306
0.312393
0.670083
2.25427
0.23905
0.238079
0.2371
0.23611
0.235153
0.234336
0.234155
0.235046
0.236309
0.243605
0.26289
0.292054
0.540845
0.458791
0.674036
0.60077
0.550106
0.512334
0.487232
0.472329
0.464827
0.463441
0.466879
0.474189
0.48451
0.496866
0.510972
0.549632
0.927108
2.58734
0.23905
0.23808
0.237104
0.23612
0.235167
0.234383
0.234348
0.235597
0.237572
0.245225
0.309063
1.14301
6.87417
2.42292
1.71794
1.33796
1.1125
0.968521
0.872052
0.805264
0.758235
0.7254
0.702954
0.688135
0.678904
0.673552
0.67257
0.715296
1.29155
3.57247
0.23905
0.23808
0.237104
0.236119
0.235165
0.234373
0.234315
0.2355
0.237609
0.246448
0.9664
4.5459
2.12129
1.64328
1.36242
1.18581
1.07221
0.997865
0.950055
0.920812
0.904811
0.897484
0.895137
0.89365
0.891784
0.959639
1.92655
5.11765
0.23905
0.238079
0.2371
0.236109
0.235147
0.234308
0.23402
0.234783
0.236289
0.244808
0.263332
0.87955
3.97456
3.0886
0.829212
0.836223
0.824573
0.811231
0.800973
0.794499
0.793425
0.798263
0.808807
0.822147
0.835191
0.843761
0.846146
0.9651
2.62537
7.08609
0.239049
0.238077
0.237097
0.236106
0.235137
0.234244
0.233698
0.234048
0.235813
0.239982
0.243501
0.256041
0.261757
0.264461
0.264884
0.26867
0.270707
0.272057
0.273853
0.276283
0.278673
0.281178
0.284284
0.289036
0.295865
0.304633
0.325225
0.688185
3.499
8.97695
0.239048
0.238077
0.237098
0.236105
0.235119
0.234178
0.233447
0.233354
0.234163
0.236028
0.238648
0.241124
0.242831
0.243936
0.244084
0.243493
0.242221
0.240872
0.23973
0.238874
0.238307
0.238002
0.237918
0.238049
0.238385
0.239664
0.275624
0.903214
4.12063
9.98484
0.239048
0.238078
0.237096
0.236101
0.235106
0.234127
0.233267
0.232733
0.232833
0.233562
0.234622
0.235379
0.235979
0.236287
0.236042
0.235092
0.233698
0.232197
0.230693
0.229216
0.227778
0.226391
0.225049
0.223776
0.222611
0.222629
0.264761
0.909185
3.94352
9.67237
0.239048
0.238077
0.237094
0.236097
0.235093
0.234095
0.23316
0.232386
0.231957
0.231972
0.23211
0.232144
0.232059
0.231737
0.231
0.229846
0.228486
0.227077
0.225661
0.224252
0.22286
0.22149
0.220149
0.218854
0.217641
0.217385
0.249677
0.773474
3.35617
8.53737
0.239048
0.238077
0.237093
0.236094
0.235082
0.234076
0.233099
0.232203
0.231469
0.230944
0.230484
0.229895
0.229188
0.228408
0.227472
0.226352
0.225125
0.223864
0.222589
0.221308
0.220024
0.218747
0.217477
0.216234
0.215042
0.214451
0.233859
0.601843
2.62749
6.93741
0.239048
0.238076
0.237092
0.236092
0.235078
0.234065
0.233065
0.232109
0.231233
0.230444
0.229649
0.228747
0.227782
0.2268
0.225771
0.224654
0.223473
0.222264
0.221042
0.219812
0.218577
0.217344
0.216115
0.214903
0.213728
0.212882
0.221803
0.434934
1.86498
5.13811
0.239048
0.238076
0.237091
0.236091
0.235076
0.234059
0.233047
0.232062
0.231123
0.23022
0.229283
0.228255
0.227169
0.226103
0.225032
0.223912
0.222748
0.221558
0.220358
0.21915
0.217936
0.216722
0.215513
0.214317
0.213154
0.212162
0.214906
0.309052
1.16025
3.37811
0.239048
0.238077
0.237092
0.236092
0.235078
0.234058
0.233042
0.232046
0.231082
0.230138
0.229147
0.228066
0.226939
0.22584
0.224752
0.223629
0.222469
0.221285
0.220091
0.218889
0.217682
0.216474
0.21527
0.21408
0.212918
0.211859
0.212022
0.242237
0.640126
1.9986
0.239056
0.238108
0.237165
0.236226
0.235294
0.234374
0.233477
0.232624
0.231844
0.231142
0.230462
0.229691
0.228809
0.227902
0.227001
0.226089
0.225164
0.224232
0.223302
0.222373
0.221448
0.220531
0.219628
0.218748
0.217907
0.217114
0.216448
0.215901
0.216506
0.223987
0.239056
0.238108
0.237165
0.236226
0.235295
0.234377
0.233487
0.232651
0.231905
0.231266
0.230672
0.229977
0.229145
0.228263
0.227373
0.226463
0.22554
0.224606
0.223675
0.222745
0.221819
0.220901
0.219997
0.219116
0.218273
0.217482
0.216836
0.216658
0.222664
0.278591
0.239056
0.238108
0.237165
0.236228
0.235298
0.234386
0.233512
0.232714
0.232055
0.23158
0.231215
0.230717
0.230023
0.229206
0.228339
0.227433
0.226505
0.225566
0.22463
0.223694
0.222762
0.221838
0.22093
0.220045
0.219199
0.218413
0.217882
0.21993
0.257085
0.509484
0.239056
0.238108
0.237166
0.23623
0.235303
0.234402
0.233556
0.232836
0.232359
0.232238
0.23233
0.23226
0.231811
0.23112
0.230294
0.229385
0.228437
0.227481
0.226527
0.225572
0.224624
0.223687
0.222768
0.221875
0.221032
0.220272
0.220223
0.232473
0.382019
1.08163
0.239056
0.238108
0.237167
0.236232
0.235311
0.234426
0.233631
0.233052
0.232928
0.233266
0.233884
0.234322
0.234455
0.234076
0.23338
0.232504
0.231548
0.230585
0.229612
0.228638
0.22767
0.226717
0.225784
0.224885
0.224043
0.22335
0.224878
0.269892
0.673798
2.07211
0.239056
0.23811
0.237169
0.236236
0.235323
0.234461
0.233748
0.233421
0.233725
0.234734
0.236247
0.237494
0.238195
0.238386
0.238003
0.237226
0.236302
0.235341
0.234344
0.233336
0.232336
0.231362
0.230429
0.229562
0.228781
0.228307
0.233861
0.349827
1.15353
3.44046
0.239057
0.238109
0.237171
0.23624
0.235337
0.234509
0.233921
0.233983
0.234843
0.236958
0.240047
0.242894
0.244757
0.245586
0.245629
0.244903
0.243971
0.243036
0.242068
0.241055
0.240018
0.238987
0.237994
0.237083
0.236293
0.236014
0.24771
0.466833
1.77407
5.0613
0.239057
0.23811
0.237172
0.236242
0.235352
0.234565
0.234142
0.234518
0.236189
0.240048
0.242701
0.25018
0.255436
0.257859
0.262598
0.261414
0.259797
0.25823
0.256764
0.255393
0.254126
0.252996
0.252053
0.251311
0.250811
0.250935
0.264924
0.552964
2.36467
6.74095
0.239057
0.238111
0.237174
0.23625
0.235362
0.234616
0.234355
0.235059
0.237583
0.244026
0.249471
0.266931
0.288538
0.288113
0.303779
0.301238
0.297184
0.293271
0.29071
0.289516
0.289153
0.289511
0.29054
0.292312
0.294858
0.298554
0.316527
0.64944
2.98824
8.21948
0.239059
0.238113
0.237177
0.236256
0.235374
0.234651
0.234496
0.235431
0.238698
0.243046
0.260301
0.550972
1.19234
0.757748
1.10442
0.946124
0.832623
0.747214
0.683386
0.636013
0.600462
0.574392
0.556393
0.544476
0.537065
0.532671
0.543019
0.93711
3.95711
10.0385
0.239059
0.238113
0.237177
0.236256
0.235373
0.234643
0.234461
0.235342
0.238452
0.243174
0.261184
0.81155
8.9086
5.68667
0.925913
0.837807
0.762932
0.701378
0.6526
0.612585
0.578545
0.548882
0.52271
0.499215
0.477906
0.458286
0.469363
1.16342
5.35422
12.3249
0.239057
0.238111
0.237174
0.236249
0.235357
0.234593
0.234258
0.234845
0.237048
0.242532
0.250053
0.386249
0.505072
1.58579
0.336968
0.344486
0.353643
0.36395
0.375375
0.386756
0.397039
0.405454
0.411399
0.414278
0.413504
0.409276
0.462468
1.65269
7.11626
14.7063
0.239057
0.23811
0.237172
0.236241
0.235346
0.234539
0.234034
0.234268
0.235593
0.238575
0.241647
0.251496
0.25595
0.257657
0.255488
0.255709
0.255512
0.255469
0.255813
0.256512
0.257473
0.258578
0.259804
0.261125
0.262611
0.267613
0.416696
2.14963
8.28651
16.2353
0.239057
0.238109
0.237171
0.236239
0.235332
0.234487
0.233832
0.233687
0.234278
0.235775
0.237964
0.239998
0.241342
0.242093
0.242267
0.241701
0.240623
0.239497
0.238478
0.237608
0.236903
0.236375
0.236021
0.235841
0.235978
0.24354
0.454578
2.29569
8.38383
16.6313
0.239057
0.23811
0.237169
0.236235
0.23532
0.234447
0.233689
0.233213
0.233307
0.2339
0.23478
0.235503
0.236026
0.236278
0.236129
0.23533
0.234228
0.233097
0.231981
0.230896
0.229856
0.228874
0.227956
0.227128
0.226583
0.233894
0.438709
2.13768
7.78929
15.8796
0.239057
0.238109
0.237167
0.236233
0.23531
0.234419
0.233598
0.232931
0.232561
0.232614
0.232809
0.232905
0.23288
0.232578
0.231988
0.231089
0.230033
0.228963
0.227893
0.226835
0.225797
0.224792
0.223828
0.222925
0.222237
0.227403
0.385821
1.80708
6.75319
14.239
0.239057
0.238108
0.237166
0.23623
0.235304
0.234401
0.233543
0.232774
0.232158
0.231733
0.231399
0.230964
0.230421
0.229798
0.22906
0.228182
0.22722
0.226238
0.225255
0.224272
0.223294
0.222329
0.221384
0.220471
0.219693
0.222391
0.325832
1.40643
5.45906
11.9238
0.239056
0.238108
0.237166
0.236229
0.2353
0.23439
0.233511
0.232689
0.231953
0.231306
0.230677
0.229967
0.229199
0.228414
0.227596
0.226712
0.225778
0.224827
0.223873
0.222916
0.22196
0.22101
0.220072
0.21916
0.218328
0.219203
0.273655
0.98962
4.04831
9.20788
0.239056
0.238108
0.237165
0.236228
0.235298
0.234384
0.233493
0.232645
0.231853
0.231107
0.23035
0.229523
0.22865
0.227792
0.226936
0.226045
0.225122
0.22418
0.223237
0.22229
0.221342
0.220397
0.219462
0.218547
0.217685
0.217527
0.239225
0.621169
2.66903
6.443
0.239057
0.238109
0.237166
0.236229
0.2353
0.234383
0.233488
0.232629
0.231815
0.231032
0.230225
0.229348
0.228435
0.227548
0.226675
0.22578
0.22486
0.223924
0.222985
0.222042
0.221098
0.220157
0.219223
0.218309
0.21744
0.216853
0.223057
0.37449
1.55848
4.19126
0.239057
0.23811
0.23717
0.236236
0.235312
0.234403
0.233517
0.232671
0.231883
0.231157
0.23045
0.229691
0.228863
0.22802
0.227181
0.226336
0.225485
0.22463
0.22378
0.222934
0.222096
0.221269
0.22046
0.219676
0.218938
0.218252
0.217722
0.217537
0.221731
0.259115
0.239057
0.23811
0.23717
0.236236
0.235313
0.234406
0.233525
0.232692
0.231929
0.231247
0.230602
0.229899
0.22911
0.228288
0.227459
0.226619
0.225771
0.224917
0.224069
0.223225
0.222388
0.221562
0.220754
0.219972
0.219235
0.218555
0.218127
0.220015
0.252747
0.475183
0.239057
0.23811
0.23717
0.236237
0.235315
0.234413
0.233545
0.232741
0.232041
0.231473
0.230986
0.230431
0.229742
0.228977
0.228174
0.227343
0.226498
0.225646
0.2248
0.223957
0.223121
0.222296
0.22149
0.220712
0.21998
0.219326
0.219477
0.23384
0.400035
1.14902
0.239057
0.23811
0.237171
0.236239
0.23532
0.234426
0.23358
0.232831
0.232257
0.231931
0.23178
0.231525
0.231036
0.230379
0.229623
0.228805
0.22796
0.227105
0.226256
0.225409
0.22457
0.223743
0.222938
0.222165
0.221446
0.2209
0.223683
0.289273
0.813851
2.48855
0.239057
0.23811
0.237171
0.236241
0.235326
0.234445
0.233635
0.232985
0.23265
0.23276
0.233072
0.233291
0.233194
0.232757
0.232088
0.231287
0.23043
0.229571
0.228711
0.227853
0.227004
0.226171
0.225363
0.224593
0.223891
0.223667
0.235641
0.44055
1.61008
4.52889
0.239057
0.23811
0.237172
0.236244
0.235334
0.234471
0.233719
0.233238
0.233313
0.233854
0.23477
0.235561
0.235982
0.236067
0.235688
0.234986
0.234159
0.233315
0.232444
0.231567
0.230702
0.229864
0.229069
0.228334
0.22771
0.228375
0.263996
0.731613
2.81098
7.16815
0.239057
0.238109
0.237172
0.236247
0.235344
0.234505
0.233836
0.23362
0.234057
0.235337
0.237261
0.238873
0.240048
0.240646
0.240708
0.240218
0.239531
0.238799
0.237991
0.237132
0.236253
0.235384
0.234555
0.233786
0.23318
0.235467
0.315541
1.15393
4.34646
10.1802
0.239058
0.238112
0.237172
0.236248
0.235355
0.234544
0.233983
0.234085
0.235035
0.237309
0.241015
0.244814
0.247274
0.248672
0.249011
0.24851
0.247819
0.247144
0.246408
0.245612
0.244784
0.243965
0.243159
0.242381
0.241755
0.245558
0.376416
1.6325
6.09214
13.1747
0.239058
0.238114
0.237176
0.236254
0.235364
0.234578
0.234119
0.234436
0.235933
0.239523
0.242532
0.252096
0.258508
0.262047
0.263966
0.263136
0.261682
0.260169
0.258708
0.257331
0.255998
0.254701
0.253379
0.252049
0.25082
0.254634
0.429188
2.17231
7.97194
15.914
0.239059
0.238115
0.23718
0.23626
0.235374
0.234598
0.234196
0.23466
0.236507
0.240966
0.246007
0.264673
0.274466
0.281607
0.29207
0.292455
0.290404
0.287524
0.284298
0.280919
0.277512
0.274189
0.270975
0.267968
0.265309
0.268312
0.492122
2.829
9.96583
18.5298
0.239059
0.238115
0.23718
0.236259
0.235373
0.234592
0.234172
0.234599
0.236353
0.240534
0.245996
0.267381
0.282499
0.304078
0.285208
0.287799
0.287629
0.286259
0.284183
0.281668
0.278819
0.275762
0.27252
0.269188
0.265972
0.273762
0.642355
3.70758
11.9553
20.9146
0.239058
0.238115
0.237176
0.236253
0.23536
0.234563
0.234059
0.234289
0.235582
0.238672
0.242284
0.254418
0.26033
0.26301
0.259247
0.260003
0.260461
0.261131
0.262234
0.263885
0.265697
0.267316
0.268438
0.268821
0.268659
0.287998
0.835564
4.48003
13.4413
22.7377
0.239058
0.238112
0.237172
0.236248
0.235351
0.234527
0.233912
0.233868
0.234601
0.236413
0.239427
0.242363
0.244181
0.245169
0.24537
0.244785
0.243992
0.243318
0.242797
0.242459
0.242321
0.242396
0.242637
0.243002
0.244166
0.279929
0.952443
4.79176
14.0085
23.6832
0.239057
0.23811
0.237172
0.236246
0.235341
0.23449
0.233777
0.233417
0.233671
0.234581
0.235983
0.237112
0.237987
0.238491
0.238524
0.237956
0.237087
0.236146
0.235174
0.234231
0.233365
0.232609
0.231985
0.231524
0.232177
0.272668
0.938786
4.57605
13.7305
23.6884
0.239057
0.23811
0.237172
0.236243
0.235332
0.234461
0.233679
0.233099
0.23292
0.233203
0.233734
0.234183
0.234455
0.234522
0.234182
0.233404
0.23243
0.231448
0.230474
0.229525
0.228614
0.227756
0.226963
0.22627
0.226506
0.259794
0.832624
4.09816
12.7279
22.6879
0.239057
0.23811
0.237172
0.236241
0.235325
0.23444
0.233613
0.232904
0.232407
0.232204
0.232204
0.23211
0.23186
0.231451
0.230837
0.230023
0.22911
0.228187
0.227268
0.226356
0.225459
0.22459
0.223764
0.22301
0.222893
0.245773
0.685784
3.449
11.1652
20.628
0.239057
0.23811
0.237171
0.236239
0.235321
0.234425
0.233571
0.23279
0.232125
0.2316
0.231155
0.230653
0.230069
0.229426
0.228701
0.227885
0.227017
0.226131
0.225254
0.224381
0.223517
0.22267
0.221849
0.221076
0.220677
0.233794
0.533262
2.70381
9.19279
17.6553
0.239057
0.23811
0.237171
0.236238
0.235318
0.234416
0.233545
0.232725
0.231974
0.231294
0.230636
0.22993
0.229177
0.228412
0.227625
0.226795
0.225936
0.225065
0.2242
0.223336
0.222479
0.221633
0.220806
0.220015
0.219425
0.225312
0.397241
1.93146
6.99253
14.0503
0.239057
0.23811
0.23717
0.236238
0.235316
0.234411
0.233532
0.23269
0.231897
0.231145
0.230392
0.229593
0.228762
0.22794
0.227122
0.226284
0.225428
0.224563
0.223702
0.222844
0.22199
0.221145
0.220316
0.219517
0.218827
0.220639
0.296978
1.20517
4.79045
10.2684
0.239057
0.23811
0.237171
0.236239
0.235317
0.234411
0.233528
0.232678
0.231868
0.231088
0.230298
0.229461
0.228599
0.227754
0.226922
0.226081
0.225227
0.224364
0.223505
0.222648
0.221795
0.22095
0.220119
0.219317
0.218586
0.218692
0.243251
0.66514
2.986
7.1171
0.239057
0.23811
0.23717
0.236236
0.235313
0.234403
0.233513
0.232656
0.231841
0.231071
0.230317
0.229534
0.228711
0.227879
0.22705
0.226217
0.225381
0.224543
0.223713
0.22289
0.222075
0.221274
0.220493
0.219741
0.219038
0.21839
0.217964
0.218855
0.236746
0.366516
0.239057
0.23811
0.23717
0.236236
0.235313
0.234405
0.23352
0.232671
0.231874
0.231133
0.230419
0.229674
0.228879
0.228062
0.227241
0.226412
0.225578
0.224742
0.223915
0.223093
0.22228
0.22148
0.220701
0.219951
0.21925
0.21862
0.218603
0.228511
0.349049
0.935257
0.239057
0.23811
0.23717
0.236236
0.235315
0.234411
0.233534
0.232706
0.231952
0.231285
0.230672
0.230025
0.2293
0.228524
0.227722
0.226901
0.226072
0.225239
0.224415
0.223596
0.222786
0.221991
0.221217
0.220473
0.219781
0.219242
0.221646
0.280136
0.762801
2.34015
0.239057
0.23811
0.237171
0.236237
0.235319
0.23442
0.23356
0.23277
0.232097
0.23158
0.231181
0.230734
0.230147
0.22945
0.228684
0.227877
0.227054
0.226225
0.225405
0.22459
0.223784
0.222995
0.222229
0.221498
0.220831
0.220666
0.233999
0.455781
1.70156
4.74101
0.239056
0.23811
0.237171
0.236239
0.235323
0.234434
0.233599
0.232873
0.232349
0.232115
0.23211
0.232013
0.231669
0.231109
0.230401
0.22961
0.228784
0.227953
0.227132
0.226316
0.225512
0.224726
0.223967
0.223249
0.222635
0.223767
0.273351
0.85891
3.2786
8.05172
0.239056
0.238109
0.237172
0.236241
0.235329
0.234453
0.233655
0.233034
0.232763
0.232943
0.233365
0.233714
0.233817
0.233552
0.232981
0.232231
0.231403
0.230588
0.229765
0.228947
0.228144
0.227369
0.226633
0.225951
0.225479
0.230308
0.364437
1.5326
5.47559
12.0071
0.239058
0.238109
0.237171
0.236243
0.235337
0.234477
0.23373
0.233266
0.233367
0.233963
0.234984
0.235876
0.236433
0.236683
0.236525
0.235911
0.235136
0.234347
0.233532
0.23271
0.231899
0.231116
0.230374
0.229698
0.229444
0.242854
0.528852
2.45781
8.13252
16.1443
0.239059
0.238112
0.237171
0.236245
0.235344
0.234502
0.233819
0.23356
0.233954
0.23518
0.237119
0.238711
0.239881
0.240541
0.240682
0.240271
0.23964
0.238994
0.238308
0.237594
0.236873
0.236163
0.235476
0.234839
0.234946
0.26334
0.766944
3.59652
10.9792
19.9224
0.239059
0.238114
0.237175
0.236247
0.23535
0.234524
0.233902
0.233841
0.234565
0.236431
0.239526
0.242574
0.244537
0.245636
0.246036
0.245759
0.245108
0.24438
0.24362
0.242831
0.242011
0.241179
0.240328
0.239485
0.239689
0.284941
1.0385
4.86914
13.7098
23.2439
0.239059
0.238115
0.237179
0.236253
0.235358
0.234536
0.233947
0.234015
0.234952
0.237263
0.241351
0.245185
0.247985
0.24973
0.250418
0.250313
0.249647
0.248794
0.247856
0.246832
0.24574
0.244599
0.243393
0.242174
0.24227
0.306625
1.35133
6.18938
16.2709
26.1915
0.239059
0.238115
0.237179
0.236253
0.235357
0.234533
0.233933