/*--------------------------------*- C++ -*----------------------------------*\
| =========                 |                                                 |
| \\      /  F ield         | OpenFOAM: The Open Source CFD Toolbox           |
|  \\    /   O peration     | Version:  2512                                  |
|   \\  /    A nd           | Website:  www.openfoam.com                      |
|    \\/     M anipulation  |                                                 |
\*---------------------------------------------------------------------------*/
FoamFile
{
    version     2.0;
    format      ascii;
    arch        "LSB;label=32;scalar=64";
    class       volScalarField;
    location    "260";
    object      k;
}
// * * * * * * * * * * * * * * * * * * * * * * * * * * * * * * * * * * * * * //

dimensions      [0 2 -2 0 0 0 0];

internalField   nonuniform List<scalar> 
84826
(
0.231933
0.224218
0.216976
0.210161
0.203735
0.197665
0.191929
0.186494
0.181397
0.176612
0.172138
0.167968
0.164042
0.160333
0.156773
0.153331
0.149986
0.146772
0.143672
0.140682
0.137797
0.135017
0.132337
0.129751
0.127254
0.124843
0.122513
0.12026
0.118082
0.115972
0.231933
0.22422
0.21698
0.210169
0.203751
0.197691
0.191966
0.186545
0.181463
0.176695
0.172241
0.16809
0.164184
0.160486
0.15693
0.153487
0.150135
0.146912
0.143805
0.140808
0.137918
0.135134
0.132451
0.129862
0.127362
0.124947
0.122613
0.120355
0.118171
0.116055
0.231934
0.224221
0.216984
0.210178
0.203766
0.197717
0.192007
0.186605
0.181551
0.176819
0.17241
0.168306
0.164446
0.160779
0.157239
0.153799
0.150439
0.147206
0.144088
0.141083
0.138188
0.135402
0.13272
0.130135
0.127642
0.125235
0.122911
0.120665
0.118493
0.116388
0.231934
0.224223
0.216988
0.210185
0.203779
0.197741
0.192048
0.186669
0.181653
0.176977
0.172647
0.168629
0.164848
0.161237
0.157727
0.154296
0.150928
0.147679
0.144544
0.141524
0.138616
0.135817
0.13312
0.130518
0.128005
0.125575
0.123223
0.120946
0.118741
0.116605
0.231934
0.224224
0.21699
0.21019
0.20379
0.197762
0.192086
0.186735
0.181768
0.177172
0.172869
0.168893
0.165259
0.161745
0.158297
0.154893
0.151526
0.148269
0.145129
0.142111
0.139217
0.136449
0.133797
0.131248
0.128793
0.126424
0.124133
0.121914
0.11976
0.117656
0.231934
0.224224
0.216991
0.210194
0.203799
0.197781
0.192122
0.186804
0.181901
0.177294
0.173086
0.169295
0.165792
0.162406
0.159036
0.155653
0.152273
0.148989
0.145814
0.142758
0.139821
0.137002
0.13429
0.131674
0.129148
0.126707
0.124346
0.122059
0.119843
0.1177
0.231934
0.224224
0.216992
0.210196
0.203805
0.197796
0.192156
0.186894
0.181986
0.177435
0.173668
0.170476
0.168211
0.166776
0.16344
0.159993
0.156479
0.153071
0.149813
0.146718
0.143892
0.141163
0.138472
0.135823
0.133261
0.130836
0.128555
0.126446
0.124568
0.122998
0.231934
0.224224
0.216992
0.210198
0.20381
0.197809
0.192188
0.186979
0.182036
0.17763
0.173501
0.167019
0.1623
0.171564
0.350456
0.335885
0.334197
0.336954
0.339074
0.338796
0.335414
0.329151
0.32076
0.311199
0.301351
0.291993
0.283703
0.277062
0.271916
0.26914
0.231934
0.224223
0.216991
0.210198
0.203814
0.197819
0.192215
0.187037
0.182142
0.177904
0.174316
0.175185
0.215192
0.922726
2.08466
1.89452
1.73245
1.59131
1.46549
1.35318
1.25301
1.16367
1.08394
1.01285
0.94963
0.893596
0.84407
0.800867
0.762464
0.73001
0.231935
0.224226
0.216995
0.210204
0.203821
0.19783
0.192235
0.187039
0.182195
0.178221
0.175788
0.180616
0.631229
1.87767
2.83651
2.45641
2.23182
2.0411
1.87819
1.73965
1.62122
1.51914
1.43012
1.35147
1.2811
1.21741
1.15938
1.10603
1.05743
1.01122
0.231937
0.224229
0.217
0.210209
0.203827
0.197829
0.192235
0.187038
0.182194
0.178214
0.176233
0.181129
3.20857
2.73158
2.57088
2.35607
2.15808
1.98605
1.83985
1.71522
1.6082
1.51507
1.43255
1.3582
1.29033
1.22775
1.16918
1.11485
1.06157
0.231938
0.224227
0.216997
0.210205
0.203821
0.197819
0.192215
0.187036
0.182139
0.177895
0.174754
0.175863
0.211742
0.937163
2.2406
2.01776
1.84735
1.71148
1.59712
1.50076
1.41892
1.34876
1.28799
1.23487
1.18778
1.14598
1.11101
1.08127
1.05519
1.0299
0.231936
0.224225
0.216994
0.2102
0.203813
0.197811
0.192189
0.186977
0.182034
0.177624
0.173713
0.169056
0.165318
0.183371
0.268056
0.271922
0.274997
0.298129
0.33474
0.37549
0.415147
0.451179
0.482879
0.51019
0.533403
0.552964
0.569312
0.583382
0.593787
0.604655
0.231935
0.224226
0.216994
0.210199
0.203808
0.197798
0.192157
0.186893
0.181983
0.177431
0.173649
0.170344
0.167328
0.164474
0.161395
0.158254
0.155033
0.151948
0.149526
0.149629
0.152433
0.157544
0.164473
0.172752
0.181928
0.191514
0.201167
0.210804
0.220029
0.229298
0.231935
0.224226
0.216994
0.210197
0.203802
0.197783
0.192124
0.186804
0.181898
0.17729
0.173074
0.169266
0.165696
0.162256
0.158878
0.15551
0.152084
0.148705
0.145415
0.142253
0.139303
0.136625
0.134258
0.132226
0.130539
0.129182
0.128138
0.127382
0.126929
0.126658
0.231935
0.224225
0.216992
0.210193
0.203793
0.197765
0.192089
0.186736
0.181767
0.177168
0.172867
0.168893
0.165259
0.161715
0.158239
0.154825
0.151408
0.148056
0.144801
0.141658
0.138634
0.135731
0.132945
0.13027
0.127704
0.125243
0.122885
0.120628
0.11847
0.116405
0.231934
0.224224
0.216989
0.210187
0.203781
0.197743
0.192051
0.186672
0.181655
0.176979
0.172646
0.168621
0.164825
0.16119
0.157653
0.154207
0.150803
0.147493
0.144268
0.141154
0.138155
0.135271
0.132496
0.129825
0.127252
0.124771
0.122379
0.12007
0.117841
0.115687
0.231934
0.224222
0.216985
0.210179
0.203767
0.197719
0.192011
0.186611
0.181559
0.176829
0.17242
0.168313
0.164441
0.160753
0.157186
0.153726
0.150332
0.147045
0.143851
0.14076
0.137784
0.13492
0.132165
0.129514
0.12696
0.1245
0.122127
0.119838
0.117628
0.115492
0.231933
0.22422
0.21698
0.21017
0.203752
0.197693
0.191971
0.186554
0.181477
0.176713
0.172262
0.168108
0.164191
0.160473
0.15689
0.153424
0.150038
0.146766
0.143594
0.140523
0.13756
0.134709
0.131967
0.129327
0.126784
0.124334
0.121972
0.119693
0.117493
0.115369
0.231932
0.224217
0.216975
0.21016
0.203735
0.197668
0.191937
0.186508
0.181418
0.176639
0.172167
0.167995
0.164058
0.160327
0.156738
0.153269
0.149889
0.146622
0.143458
0.140398
0.137443
0.1346
0.131864
0.12923
0.126693
0.12425
0.121893
0.119621
0.117427
0.115309
0.238839
0.237494
0.236014
0.234427
0.232752
0.231009
0.229221
0.227415
0.225628
0.223905
0.222247
0.220557
0.218716
0.21679
0.214895
0.213064
0.211261
0.209451
0.207651
0.20586
0.204077
0.202306
0.200549
0.198805
0.197071
0.195356
0.193656
0.191972
0.190304
0.188658
0.238839
0.237494
0.236015
0.234427
0.232753
0.23101
0.229223
0.227425
0.225657
0.223976
0.222392
0.220781
0.21901
0.217123
0.215246
0.213425
0.211627
0.209824
0.208026
0.206236
0.204454
0.202684
0.200928
0.199182
0.197449
0.195733
0.194033
0.192347
0.190676
0.189027
0.238839
0.237494
0.236015
0.234427
0.232753
0.231012
0.229229
0.227449
0.225728
0.224157
0.222779
0.221383
0.219792
0.218009
0.216179
0.214383
0.212591
0.210799
0.209006
0.207219
0.20544
0.203673
0.201916
0.200172
0.198443
0.196728
0.195027
0.19334
0.191667
0.190014
0.23884
0.237494
0.236015
0.234427
0.232754
0.231016
0.229244
0.2275
0.225881
0.224565
0.223646
0.222732
0.221499
0.219918
0.218172
0.216406
0.214612
0.212814
0.21101
0.209206
0.207409
0.205621
0.203839
0.202073
0.200318
0.198573
0.196839
0.195114
0.193397
0.19169
0.23884
0.237496
0.236015
0.234428
0.232756
0.231023
0.229271
0.227597
0.226189
0.225407
0.225284
0.225151
0.224626
0.223441
0.221874
0.220165
0.218356
0.216527
0.21469
0.212859
0.211038
0.209224
0.207422
0.205636
0.203864
0.202102
0.200351
0.198609
0.196873
0.195147
0.23884
0.237497
0.236017
0.234429
0.232759
0.231035
0.229319
0.227776
0.226771
0.226791
0.227953
0.228659
0.229123
0.228816
0.227707
0.226063
0.224117
0.222047
0.219944
0.217856
0.215795
0.213776
0.211803
0.209866
0.207956
0.206065
0.204185
0.202309
0.200433
0.198557
0.23884
0.237497
0.236019
0.234432
0.232763
0.231054
0.229395
0.228083
0.227766
0.228994
0.232462
0.23611
0.238073
0.239046
0.238866
0.237657
0.235997
0.234197
0.232384
0.230592
0.228808
0.227067
0.225376
0.223742
0.222172
0.220679
0.21928
0.21797
0.216791
0.215687
0.23884
0.237497
0.23602
0.234436
0.232772
0.231082
0.229501
0.228542
0.229025
0.23243
0.234408
0.244244
0.250255
0.263828
0.321468
0.312116
0.303625
0.295746
0.288801
0.282866
0.277981
0.274153
0.271447
0.26996
0.26981
0.271133
0.274068
0.278751
0.28513
0.293678
0.23884
0.237497
0.23602
0.234437
0.23278
0.231108
0.22962
0.229085
0.230452
0.237809
0.246741
0.282067
0.354432
0.795468
1.62553
1.4032
1.26351
1.16446
1.09073
1.03404
0.989864
0.955167
0.927879
0.906349
0.8895
0.876904
0.868459
0.864277
0.864136
0.868333
0.23884
0.237497
0.23602
0.234438
0.232783
0.231121
0.2297
0.229375
0.231669
0.242895
0.266245
0.837442
5.11437
5.4917
3.26263
2.76174
2.45644
2.21751
2.02785
1.87927
1.76221
1.66829
1.59052
1.52351
1.46371
1.40914
1.35901
1.31231
1.26994
1.22766
0.23884
0.237497
0.23602
0.234438
0.232784
0.231122
0.229701
0.229376
0.231668
0.242932
0.26823
3.79217
3.25863
2.91647
2.64662
2.40708
2.21135
2.05936
1.9415
1.84801
1.77055
1.70236
1.63913
1.57842
1.51882
1.45851
1.39939
1.33421
0.23884
0.237497
0.236017
0.234438
0.23278
0.231108
0.22962
0.229085
0.230454
0.237874
0.255156
0.620469
5.94285
4.81254
2.88554
2.40811
2.11049
1.92439
1.81867
1.77476
1.77367
1.79491
1.82742
1.86564
1.90425
1.93687
1.95503
1.95242
1.92684
1.88161
0.238839
0.237497
0.236017
0.234436
0.232772
0.231081
0.229499
0.228539
0.229029
0.232467
0.237657
0.26072
0.27048
0.360397
0.345976
0.354404
0.361816
0.369826
0.3802
0.394366
0.412729
0.435174
0.460868
0.489219
0.519444
0.550841
0.582774
0.614413
0.64481
0.673442
0.238839
0.237497
0.236019
0.234433
0.232763
0.231054
0.229395
0.228079
0.227766
0.228999
0.232475
0.235978
0.237237
0.237392
0.237517
0.237227
0.236529
0.23542
0.234238
0.233206
0.232386
0.23181
0.23155
0.231774
0.232674
0.234408
0.236852
0.240063
0.243963
0.24903
0.23884
0.237497
0.236017
0.234429
0.232759
0.231036
0.22932
0.227774
0.22676
0.226774
0.227924
0.228539
0.228789
0.228242
0.227272
0.225895
0.224049
0.221885
0.219575
0.217231
0.214884
0.21258
0.210342
0.208171
0.206075
0.204066
0.202128
0.200268
0.198515
0.19682
0.23884
0.237496
0.236015
0.234428
0.232756
0.231024
0.229273
0.227598
0.226183
0.225373
0.225221
0.225043
0.224414
0.223151
0.22166
0.219991
0.218129
0.216152
0.214086
0.211978
0.209841
0.207688
0.205535
0.20339
0.201254
0.199134
0.197031
0.194945
0.192883
0.19085
0.23884
0.237494
0.236015
0.234428
0.232755
0.231018
0.229246
0.227503
0.225881
0.224547
0.223582
0.222593
0.221306
0.21972
0.218029
0.216298
0.214487
0.212609
0.210686
0.208729
0.206754
0.204775
0.202792
0.200819
0.198854
0.196902
0.194964
0.193042
0.191138
0.189258
0.238839
0.237494
0.236015
0.234428
0.232754
0.231014
0.229233
0.227454
0.225733
0.224152
0.222742
0.221294
0.219665
0.21789
0.216098
0.214319
0.212508
0.210655
0.208782
0.206897
0.205002
0.203105
0.201208
0.19932
0.197444
0.195582
0.193735
0.191905
0.190095
0.188308
0.238839
0.237494
0.236015
0.234427
0.232754
0.231012
0.229227
0.227431
0.225664
0.223976
0.222371
0.220723
0.218926
0.217048
0.215202
0.213391
0.211575
0.209728
0.207873
0.206015
0.204157
0.2023
0.20045
0.198605
0.196773
0.194957
0.193156
0.191373
0.189609
0.187869
0.238838
0.237493
0.236014
0.234426
0.232752
0.23101
0.229224
0.22742
0.225635
0.223907
0.222231
0.220509
0.218646
0.216726
0.214856
0.213032
0.211209
0.209361
0.20751
0.205659
0.203812
0.201969
0.200133
0.198306
0.196488
0.194689
0.192906
0.191142
0.189396
0.187678
0.239049
0.238078
0.237095
0.236097
0.235085
0.234064
0.233047
0.232057
0.231148
0.230361
0.229679
0.22894
0.227964
0.226825
0.225684
0.224584
0.223485
0.222363
0.221223
0.220068
0.218903
0.217729
0.216551
0.215369
0.21418
0.21299
0.211801
0.210612
0.209425
0.208247
0.239049
0.238078
0.237095
0.236097
0.235086
0.234067
0.233056
0.23208
0.231205
0.230491
0.22993
0.229327
0.228459
0.227391
0.226287
0.225208
0.224121
0.223002
0.221863
0.220708
0.219541
0.218365
0.217183
0.215995
0.214801
0.213607
0.212413
0.211219
0.210025
0.208842
0.23905
0.238079
0.237095
0.236098
0.235089
0.234074
0.233075
0.232135
0.231347
0.230815
0.230567
0.230302
0.229698
0.228802
0.227786
0.226753
0.225683
0.224569
0.223424
0.222259
0.22108
0.219893
0.218697
0.217496
0.216289
0.215082
0.213873
0.212662
0.211452
0.210252
0.23905
0.238079
0.237096
0.2361
0.235093
0.234087
0.233111
0.232238
0.231622
0.23147
0.231642
0.231863
0.231752
0.231228
0.230427
0.2295
0.228471
0.227365
0.226209
0.225024
0.223821
0.222606
0.221379
0.220147
0.218909
0.217669
0.216425
0.215179
0.213932
0.212694
0.239051
0.23808
0.237097
0.236102
0.235099
0.234106
0.23317
0.232418
0.232123
0.232398
0.233284
0.234222
0.234807
0.234889
0.234618
0.233979
0.233051
0.231963
0.230793
0.229578
0.228335
0.227071
0.225792
0.224506
0.223216
0.22192
0.22062
0.219318
0.218016
0.216723
0.239051
0.238081
0.237099
0.236104
0.235108
0.234133
0.23326
0.232715
0.232832
0.233843
0.236119
0.238182
0.239777
0.240567
0.240763
0.240521
0.239778
0.238713
0.237511
0.236247
0.23494
0.233608
0.232253
0.230894
0.229524
0.228145
0.226758
0.225364
0.223961
0.222562
0.239051
0.238082
0.237101
0.236109
0.235118
0.234169
0.23339
0.233184
0.233829
0.236125
0.240881
0.246273
0.249585
0.252023
0.253387
0.253694
0.253451
0.252505
0.251237
0.249812
0.248281
0.246663
0.244978
0.243259
0.241526
0.239806
0.238128
0.236513
0.234995
0.2336
0.239051
0.238083
0.237103
0.236114
0.235132
0.234214
0.233553
0.233672
0.235113
0.239707
0.243175
0.257505
0.26817
0.274917
0.304092
0.307558
0.307872
0.305367
0.301607
0.297286
0.292726
0.288089
0.283539
0.279161
0.275069
0.271374
0.268183
0.265588
0.263711
0.262646
0.239051
0.238084
0.237106
0.236119
0.235146
0.234254
0.233727
0.234144
0.236538
0.245107
0.254846
0.298755
0.487371
0.469497
1.52017
1.26552
1.08153
0.946086
0.842424
0.76202
0.698106
0.647442
0.606693
0.573934
0.547822
0.527404
0.512015
0.501086
0.494268
0.491113
0.239051
0.238084
0.237106
0.236123
0.235155
0.234279
0.233843
0.234466
0.237835
0.250477
0.272253
0.778563
9.94493
6.5812
3.20983
2.45566
2.02271
1.72853
1.51063
1.34564
1.21656
1.11341
1.02914
0.958877
0.89929
0.84806
0.803614
0.764626
0.730337
0.699499
0.239051
0.238084
0.237106
0.236121
0.235152
0.234278
0.23384
0.234462
0.237826
0.250467
0.273694
4.54066
3.36642
2.60978
2.16058
1.85108
1.62084
1.44581
1.30881
1.20029
1.11156
1.0371
0.973052
0.916773
0.86643
0.820667
0.77902
0.739498
0.239051
0.238083
0.237102
0.236117
0.235143
0.234252
0.233723
0.234138
0.236528
0.245102
0.259869
0.66102
13.153
4.89632
1.63633
1.36349
1.18835
1.07449
0.998618
0.949848
0.919552
0.902187
0.891376
0.882886
0.8737
0.861043
0.844064
0.824114
0.803209
0.778921
0.23905
0.238082
0.2371
0.236114
0.235131
0.234212
0.233548
0.233665
0.235103
0.239695
0.246264
0.274796
0.29758
0.311064
0.301433
0.306405
0.307916
0.308069
0.308027
0.308632
0.310321
0.313406
0.317857
0.323709
0.330998
0.339564
0.349436
0.360504
0.372689
0.386103
0.23905
0.238082
0.237101
0.236109
0.235117
0.234167
0.233386
0.233171
0.233813
0.236088
0.240779
0.245889
0.248662
0.250505
0.251777
0.252262
0.252174
0.2514
0.25045
0.249599
0.24892
0.248416
0.248028
0.247753
0.247577
0.247474
0.247462
0.247541
0.247773
0.248118
0.239051
0.238081
0.237098
0.236104
0.235107
0.234132
0.233257
0.232705
0.23281
0.233801
0.236018
0.237942
0.23932
0.239953
0.240232
0.240129
0.239393
0.2382
0.236819
0.235366
0.233883
0.232392
0.230909
0.229458
0.228036
0.226639
0.225255
0.223896
0.222571
0.221271
0.239051
0.23808
0.237096
0.236101
0.235099
0.234105
0.233167
0.232411
0.232099
0.23235
0.233186
0.234047
0.234531
0.234545
0.234299
0.233658
0.232659
0.231458
0.230161
0.228819
0.227456
0.226082
0.2247
0.223322
0.221948
0.220582
0.219216
0.217847
0.216482
0.215123
0.23905
0.238079
0.237096
0.236099
0.235093
0.234086
0.23311
0.232235
0.231606
0.23142
0.231551
0.231706
0.231527
0.230954
0.230179
0.229273
0.228222
0.22706
0.225825
0.22455
0.223251
0.22194
0.220618
0.219296
0.217972
0.216652
0.215337
0.214019
0.212706
0.211401
0.239049
0.238078
0.237095
0.236098
0.235088
0.234074
0.233075
0.232134
0.231338
0.230783
0.230479
0.23013
0.229464
0.228558
0.227576
0.226567
0.225491
0.224341
0.223144
0.221919
0.220676
0.219422
0.21816
0.216894
0.215625
0.21436
0.213096
0.211834
0.210577
0.209327
0.239049
0.238078
0.237095
0.236097
0.235086
0.234067
0.233056
0.232079
0.2312
0.230468
0.229866
0.229201
0.228287
0.227219
0.226147
0.225091
0.224001
0.222858
0.22168
0.220481
0.219266
0.218041
0.21681
0.215572
0.21433
0.213089
0.211852
0.210615
0.209382
0.208158
0.239049
0.238077
0.237094
0.236095
0.235084
0.234063
0.233047
0.232057
0.231144
0.230343
0.229625
0.228833
0.227818
0.226681
0.225568
0.224487
0.223386
0.222241
0.221067
0.219874
0.218667
0.217452
0.216231
0.215006
0.213775
0.212543
0.211316
0.21009
0.208867
0.207657
0.239058
0.238111
0.23717
0.236234
0.235306
0.23439
0.233495
0.23265
0.231897
0.231268
0.230743
0.230178
0.229426
0.228543
0.227662
0.226812
0.225962
0.225091
0.224205
0.223304
0.222393
0.221473
0.220549
0.219621
0.218689
0.217751
0.216814
0.215876
0.214938
0.214009
0.239058
0.238111
0.23717
0.236235
0.235308
0.234393
0.233504
0.232674
0.231952
0.23139
0.230976
0.230537
0.229889
0.229074
0.228236
0.227414
0.22658
0.225717
0.224836
0.223939
0.22303
0.222112
0.221187
0.220257
0.219321
0.218382
0.21744
0.2165
0.215558
0.214625
0.239058
0.238112
0.237171
0.236236
0.23531
0.2344
0.233525
0.232727
0.232085
0.231689
0.231557
0.231426
0.23103
0.230378
0.229639
0.228872
0.228064
0.227214
0.226337
0.225438
0.224525
0.223602
0.222671
0.221734
0.220787
0.219838
0.218887
0.217934
0.216981
0.216035
0.239058
0.238112
0.237171
0.236237
0.235314
0.234413
0.233561
0.232824
0.232339
0.232279
0.232551
0.232865
0.232925
0.232606
0.232074
0.231419
0.230661
0.229835
0.228963
0.228057
0.227131
0.226192
0.225243
0.224283
0.223316
0.222342
0.221368
0.220391
0.219411
0.218441
0.239059
0.238112
0.237172
0.236239
0.23532
0.234431
0.233616
0.232989
0.232787
0.233129
0.233993
0.234912
0.235558
0.235759
0.235672
0.235247
0.234582
0.233807
0.232959
0.232064
0.231135
0.230183
0.229211
0.228223
0.227225
0.226219
0.225208
0.224193
0.223177
0.222169
0.239059
0.238112
0.237173
0.236242
0.235329
0.234457
0.2337
0.233255
0.233444
0.234386
0.236322
0.2383
0.239728
0.240573
0.240939
0.240943
0.240519
0.239842
0.239026
0.238137
0.237196
0.236214
0.235191
0.234147
0.233078
0.231998
0.230908
0.229809
0.228704
0.227608
0.239059
0.238113
0.237173
0.236245
0.235338
0.23449
0.233815
0.233656
0.234292
0.236244
0.240124
0.244445
0.247363
0.249389
0.250619
0.251196
0.251349
0.251027
0.250277
0.24929
0.248147
0.24688
0.245516
0.244086
0.242613
0.241126
0.239644
0.238186
0.236769
0.235413
0.23906
0.238115
0.237176
0.236248
0.235349
0.234527
0.233954
0.234119
0.235362
0.239124
0.242353
0.253854
0.262129
0.266481
0.278005
0.278836
0.278597
0.276785
0.274434
0.271904
0.269291
0.266627
0.263935
0.261236
0.258581
0.256
0.253533
0.25121
0.249066
0.247151
0.239061
0.238116
0.237179
0.236253
0.235363
0.23456
0.234096
0.234507
0.2365
0.243052
0.250576
0.280119
0.332847
0.336851
0.48021
0.452008
0.426666
0.404872
0.386184
0.370181
0.356111
0.343671
0.332529
0.322531
0.313454
0.305201
0.297713
0.290948
0.284892
0.279533
0.239061
0.238117
0.237181
0.236259
0.235373
0.234587
0.234199
0.234773
0.237462
0.247073
0.261172
0.662292
13.8155
11.7482
2.70702
2.14244
1.77645
1.52357
1.33654
1.19426
1.07954
0.984089
0.90328
0.832928
0.770752
0.715265
0.665468
0.620616
0.580108
0.543364
0.23906
0.238116
0.237181
0.236257
0.235368
0.234586
0.234196
0.234769
0.237454
0.247054
0.262491
0.700613
8.18956
8.76279
2.72602
2.13178
1.74473
1.47633
1.27887
1.12726
1.00675
0.909063
0.827802
0.758746
0.699746
0.648539
0.603746
0.564314
0.52939
0.498299
0.239059
0.238114
0.237177
0.23625
0.235357
0.234558
0.234092
0.234502
0.23649
0.243035
0.252959
0.503709
17.9561
7.35329
0.516804
0.478948
0.447591
0.421543
0.399739
0.381279
0.365478
0.351866
0.340044
0.329664
0.320585
0.312514
0.305346
0.29892
0.293172
0.287941
0.239058
0.238114
0.237174
0.236248
0.235348
0.234526
0.233951
0.234113
0.235354
0.239103
0.244491
0.263834
0.278333
0.285218
0.277146
0.278352
0.278483
0.277346
0.275943
0.274675
0.273625
0.272761
0.272119
0.271684
0.271488
0.271537
0.271845
0.272361
0.273152
0.27393
0.239059
0.238114
0.237173
0.236245
0.235338
0.234488
0.233811
0.233646
0.234277
0.236211
0.240042
0.244218
0.246914
0.248609
0.249708
0.25023
0.25026
0.249622
0.248748
0.247854
0.247008
0.246222
0.245486
0.244794
0.244141
0.243516
0.242924
0.242355
0.241834
0.241315
0.239059
0.238112
0.237173
0.236242
0.235328
0.234456
0.233696
0.233245
0.233425
0.234348
0.236236
0.238128
0.239444
0.240192
0.240571
0.240632
0.240196
0.239416
0.238485
0.237506
0.236508
0.235497
0.234467
0.233435
0.232401
0.231374
0.230352
0.22934
0.228342
0.227363
0.239059
0.238112
0.237172
0.236239
0.23532
0.23443
0.233614
0.232982
0.232766
0.233087
0.23391
0.23477
0.235356
0.235526
0.235435
0.235005
0.234286
0.233425
0.232489
0.231527
0.230555
0.229579
0.228598
0.227613
0.226629
0.225649
0.224674
0.223696
0.222719
0.221747
0.239058
0.238112
0.237171
0.236237
0.235314
0.234412
0.23356
0.23282
0.232324
0.232235
0.232472
0.232735
0.232747
0.232395
0.231867
0.231212
0.230429
0.229556
0.228628
0.227668
0.226691
0.225706
0.224718
0.223726
0.222735
0.221744
0.22076
0.219776
0.218793
0.21782
0.239058
0.238111
0.23717
0.236236
0.23531
0.2344
0.233525
0.232725
0.232076
0.231659
0.23148
0.231283
0.230834
0.230169
0.229445
0.22869
0.227874
0.226998
0.226085
0.225147
0.224197
0.223239
0.222279
0.221316
0.220349
0.219384
0.218419
0.217457
0.216496
0.215542
0.239058
0.238111
0.23717
0.236235
0.235307
0.234393
0.233504
0.232672
0.231946
0.231368
0.230919
0.230428
0.22974
0.228919
0.228098
0.227289
0.226452
0.22557
0.224662
0.223735
0.222797
0.221852
0.220902
0.219949
0.218993
0.218036
0.217078
0.216124
0.21517
0.214225
0.239058
0.23811
0.237169
0.236233
0.235305
0.234389
0.233494
0.232649
0.231891
0.231249
0.230692
0.230082
0.229294
0.228407
0.227541
0.226704
0.225851
0.224965
0.224054
0.223128
0.222192
0.221249
0.220303
0.219354
0.218403
0.217449
0.216496
0.215545
0.214594
0.213654
0.239058
0.238113
0.237175
0.236245
0.235325
0.23442
0.233536
0.232702
0.231944
0.231287
0.23071
0.23011
0.229383
0.228569
0.227759
0.226973
0.226186
0.225385
0.224574
0.223754
0.222928
0.222099
0.221268
0.220436
0.219604
0.218773
0.217941
0.217112
0.216285
0.215469
0.239058
0.238113
0.237175
0.236245
0.235326
0.234422
0.233543
0.232721
0.23199
0.231384
0.230891
0.23039
0.229744
0.228987
0.228215
0.227452
0.226682
0.22589
0.225088
0.224274
0.223452
0.222626
0.221798
0.220968
0.220137
0.219305
0.218473
0.217643
0.216816
0.215999
0.239058
0.238113
0.237175
0.236246
0.235328
0.234429
0.23356
0.232765
0.232096
0.231617
0.231339
0.23108
0.230632
0.23001
0.229324
0.228615
0.227876
0.227102
0.226311
0.225503
0.224685
0.22386
0.223032
0.2222
0.221367
0.220531
0.219695
0.218859
0.218027
0.217204
0.239059
0.238113
0.237176
0.236247
0.235332
0.234439
0.233591
0.232844
0.232296
0.232074
0.232199
0.232356
0.23227
0.231894
0.23136
0.230739
0.230049
0.229299
0.22852
0.227712
0.226889
0.226056
0.225218
0.224375
0.223529
0.222678
0.221828
0.220979
0.220131
0.219293
0.239059
0.238114
0.237176
0.236249
0.235337
0.234455
0.233638
0.232975
0.232646
0.232823
0.233388
0.234038
0.234419
0.234518
0.234296
0.233853
0.233255
0.23257
0.231825
0.231035
0.230216
0.229379
0.228529
0.22767
0.226802
0.225929
0.225053
0.224179
0.223306
0.222444
0.239059
0.238114
0.237177
0.236251
0.235344
0.234476
0.233704
0.23318
0.233223
0.233837
0.235172
0.23663
0.237642
0.238236
0.23848
0.238462
0.238088
0.237537
0.236856
0.236102
0.235299
0.234464
0.233603
0.232722
0.231822
0.230911
0.229992
0.229067
0.228138
0.227214
0.239059
0.238114
0.237178
0.236254
0.235352
0.234502
0.233793
0.233484
0.233871
0.235217
0.237977
0.240608
0.242631
0.243996
0.24478
0.245216
0.245365
0.24527
0.244805
0.244107
0.243259
0.242308
0.24128
0.240196
0.239073
0.237925
0.236774
0.235621
0.234477
0.233355
0.239059
0.238114
0.23718
0.236256
0.23536
0.234531
0.233902
0.23388
0.234713
0.23721
0.242452
0.24884
0.252726
0.255265
0.256689
0.257433
0.257855
0.257905
0.257598
0.256898
0.255916
0.254719
0.253335
0.251801
0.25017
0.248483
0.246782
0.245094
0.243443
0.241856
0.23906
0.238116
0.237182
0.23626
0.23537
0.234557
0.234002
0.234203
0.235537
0.239672
0.244202
0.260472
0.273394
0.278211
0.284529
0.284857
0.283552
0.280969
0.277991
0.274932
0.271879
0.268926
0.266016
0.26313
0.260261
0.257429
0.254645
0.251932
0.249315
0.246813
0.239061
0.238117
0.237185
0.236266
0.235379
0.234577
0.234072
0.234392
0.236167
0.241918
0.249712
0.299278
0.402868
0.402481
0.406267
0.397614
0.387257
0.376953
0.367145
0.35798
0.349386
0.341204
0.333097
0.325194
0.317518
0.310016
0.302717
0.295644
0.288829
0.282259
0.23906
0.238116
0.237183
0.236264
0.235376
0.234577
0.23407
0.23439
0.236163
0.241904
0.250078
0.32385
0.576816
0.609555
0.406414
0.398043
0.387225
0.376029
0.365077
0.354706
0.34484
0.33551
0.326528
0.31798
0.309813
0.302066
0.294709
0.287741
0.281167
0.274963
0.239059
0.238114
0.237179
0.236258
0.235367
0.234556
0.234
0.234199
0.235531
0.239656
0.245849
0.271394
0.29815
0.302634
0.285024
0.285635
0.2845
0.282003
0.279082
0.276048
0.27302
0.270042
0.267126
0.264279
0.261523
0.258885
0.256372
0.25399
0.251744
0.249603
0.239059
0.238114
0.237179
0.236256
0.23536
0.23453
0.233899
0.233872
0.234707
0.237189
0.242412
0.248727
0.252519
0.254804
0.25603
0.256545
0.256734
0.256494
0.255908
0.255188
0.254445
0.253737
0.253042
0.252344
0.251655
0.250985
0.250344
0.249724
0.249141
0.248538
0.239059
0.238114
0.237178
0.236254
0.235351
0.234501
0.23379
0.233475
0.233857
0.235196
0.237921
0.240511
0.242441
0.243652
0.244381
0.2448
0.244913
0.24466
0.244072
0.243333
0.242535
0.241716
0.240888
0.240062
0.239247
0.238446
0.237664
0.236899
0.236157
0.235428
0.239059
0.238114
0.237177
0.236251
0.235343
0.234475
0.233701
0.233173
0.233203
0.233802
0.235108
0.236531
0.237497
0.238039
0.23827
0.238233
0.237785
0.237138
0.23637
0.235554
0.234722
0.23388
0.233031
0.232178
0.231324
0.230479
0.22964
0.228808
0.227985
0.227175
0.239059
0.238114
0.237176
0.236249
0.235337
0.234454
0.233636
0.232969
0.23263
0.232791
0.233326
0.233937
0.234289
0.234376
0.234137
0.233675
0.233026
0.232273
0.231461
0.230618
0.229765
0.228911
0.228061
0.227215
0.226375
0.225544
0.224722
0.223906
0.223095
0.222295
0.239059
0.238113
0.237176
0.236247
0.235332
0.234439
0.23359
0.232841
0.232285
0.232042
0.23214
0.23226
0.232122
0.231725
0.231185
0.230556
0.229841
0.229055
0.228236
0.227392
0.226537
0.22568
0.224824
0.223971
0.223122
0.222275
0.221437
0.220601
0.219772
0.218954
0.239058
0.238113
0.237175
0.236246
0.235328
0.234429
0.23356
0.232764
0.232089
0.231595
0.231284
0.23098
0.230492
0.229855
0.22917
0.228461
0.227711
0.226916
0.2261
0.225266
0.224426
0.223583
0.222742
0.221902
0.221065
0.220229
0.219397
0.218568
0.217745
0.21693
0.239058
0.238113
0.237175
0.236245
0.235326
0.234422
0.233543
0.23272
0.231984
0.231366
0.230848
0.23031
0.229634
0.228867
0.228099
0.227339
0.226563
0.225757
0.224936
0.224103
0.223264
0.222424
0.221584
0.220745
0.219907
0.219072
0.218238
0.217407
0.216581
0.215765
0.239058
0.238112
0.237174
0.236244
0.235324
0.234419
0.233535
0.2327
0.231939
0.231272
0.230672
0.230039
0.229284
0.228461
0.227655
0.226871
0.22608
0.225266
0.22444
0.223604
0.222763
0.221921
0.22108
0.220241
0.219403
0.218567
0.217733
0.216902
0.216074
0.215258
0.239058
0.238113
0.237175
0.236245
0.235326
0.23442
0.233533
0.232689
0.231905
0.231196
0.230543
0.229877
0.229131
0.22833
0.227531
0.226747
0.225964
0.225169
0.22437
0.223565
0.222758
0.221949
0.221143
0.220338
0.219536
0.218737
0.217941
0.217149
0.21636
0.215585
0.239058
0.238113
0.237175
0.236246
0.235327
0.234422
0.23354
0.232705
0.23194
0.231267
0.230673
0.230076
0.229389
0.22863
0.22786
0.227095
0.226324
0.225538
0.224747
0.223947
0.223144
0.22234
0.221536
0.220734
0.219934
0.219137
0.218342
0.217551
0.216764
0.21599
0.239059
0.238113
0.237176
0.236246
0.235328
0.234428
0.233553
0.232738
0.232019
0.231436
0.230989
0.230564
0.230022
0.229364
0.22866
0.227936
0.227192
0.226422
0.225642
0.22485
0.224052
0.223252
0.222452
0.221652
0.220854
0.220057
0.219263
0.218471
0.217685
0.21691
0.239059
0.238114
0.237176
0.236248
0.235331
0.234436
0.233576
0.232798
0.232165
0.231759
0.231607
0.231513
0.231235
0.230757
0.230163
0.229505
0.228799
0.228051
0.227284
0.226497
0.2257
0.224899
0.224097
0.223295
0.222493
0.221692
0.220893
0.220097
0.219305
0.218526
0.239059
0.238114
0.237177
0.236249
0.235336
0.234448
0.233613
0.232893
0.232412
0.232325
0.232584
0.232906
0.233048
0.23289
0.232484
0.231939
0.231297
0.230587
0.229837
0.229056
0.228256
0.227448
0.226636
0.225823
0.225008
0.224194
0.22338
0.222571
0.221766
0.220975
0.239059
0.238114
0.237177
0.236251
0.235341
0.234464
0.233661
0.233038
0.23281
0.233105
0.233869
0.234754
0.235337
0.23561
0.23559
0.235277
0.234769
0.234161
0.233462
0.232713
0.231934
0.231138
0.230332
0.229517
0.228696
0.227872
0.227045
0.226218
0.225395
0.224582
0.239059
0.238114
0.237178
0.236253
0.235347
0.234484
0.233726
0.233245
0.233369
0.234123
0.235734
0.23748
0.238715
0.239497
0.239896
0.240036
0.239916
0.239492
0.238872
0.238142
0.237351
0.236524
0.235669
0.234792
0.233896
0.232984
0.232066
0.231145
0.230224
0.229313
0.239059
0.238115
0.23718
0.236255
0.235353
0.234505
0.2338
0.233507
0.233932
0.235378
0.238426
0.241352
0.243543
0.24488
0.245751
0.246418
0.2468
0.246913
0.246724
0.246184
0.245438
0.244549
0.243561
0.242494
0.241364
0.240194
0.239
0.237804
0.236612
0.235439
0.23906
0.238116
0.237184
0.236258
0.235359
0.234523
0.233871
0.233769
0.234515
0.236821
0.241679
0.247551
0.251162
0.253135
0.2544
0.255258
0.255685
0.255586
0.254913
0.253913
0.252741
0.251467
0.250113
0.248693
0.247207
0.245686
0.244152
0.242623
0.24111
0.239625
0.239061
0.238117
0.237185
0.236263
0.235365
0.234536
0.233916
0.233959
0.234924
0.238062
0.245037
0.254766
0.261545
0.263978
0.265525
0.266175
0.265406
0.263962
0.262215
0.260325
0.258392
0.256461
0.254503
0.25255
0.250579
0.248615
0.246665
0.24473
0.242816