/*--------------------------------*- C++ -*----------------------------------*\
| =========                 |                                                 |
| \\      /  F ield         | OpenFOAM: The Open Source CFD Toolbox           |
|  \\    /   O peration     | Version:  2512                                  |
|   \\  /    A nd           | Website:  www.openfoam.com                      |
|    \\/     M anipulation  |                                                 |
\*---------------------------------------------------------------------------*/
FoamFile
{
    version     2.0;
    format      ascii;
    arch        "LSB;label=32;scalar=64";
    class       volScalarField;
    location    "260";
    object      nut;
}
// * * * * * * * * * * * * * * * * * * * * * * * * * * * * * * * * * * * * * //

dimensions      [0 2 -1 0 0 0 0];

internalField   nonuniform List<scalar> 
90398
(
0.01442
0.0141784
0.0139484
0.0137273
0.0135156
0.0133114
0.0131094
0.0129321
0.0127511
0.0125819
0.0124208
0.0122632
0.0121163
0.0119791
0.0118409
0.0117061
0.0115737
0.0114455
0.0113218
0.0112025
0.0110875
0.0109769
0.0108709
0.0107695
0.0106728
0.0105814
0.0104955
0.0104169
0.0103431
0.0102826
0.0144199
0.0141783
0.0139483
0.0137272
0.0135157
0.0133121
0.0131118
0.0129346
0.0127546
0.012587
0.0124247
0.0122676
0.0121213
0.0119843
0.011846
0.0117109
0.0115781
0.0114497
0.0113257
0.0112059
0.0110904
0.0109794
0.0108729
0.0107713
0.0106744
0.010583
0.0104971
0.0104188
0.0103454
0.0102863
0.01442
0.0141783
0.0139484
0.0137273
0.0135165
0.0133139
0.0131169
0.0129369
0.0127576
0.0125916
0.0124314
0.0122753
0.0121303
0.0119942
0.0118557
0.0117202
0.0115866
0.0114577
0.0113338
0.0112138
0.011098
0.010987
0.0108807
0.0107793
0.0106829
0.010592
0.0105069
0.0104298
0.0103576
0.0103017
0.01442
0.0141783
0.0139481
0.0137278
0.0135177
0.0133163
0.013119
0.0129355
0.012762
0.0125987
0.0124411
0.0122888
0.0121458
0.01201
0.0118715
0.0117354
0.0116012
0.011472
0.0113479
0.0112278
0.0111117
0.0110001
0.0108936
0.0107926
0.0106969
0.0106072
0.0105235
0.0104486
0.0103787
0.0103285
0.01442
0.0141784
0.0139478
0.0137285
0.0135196
0.0133204
0.0131233
0.0129387
0.0127685
0.0126076
0.0124519
0.0123283
0.0121905
0.0120328
0.0118941
0.0117574
0.0116228
0.0114934
0.0113693
0.0112492
0.0111336
0.0110229
0.0109182
0.0108195
0.0107267
0.0106405
0.010561
0.010491
0.010427
0.0103977
0.0144202
0.0141783
0.0139479
0.0137284
0.0135195
0.0133252
0.0131415
0.0129467
0.0127758
0.0126352
0.012494
0.0123547
0.0122249
0.0120853
0.0119428
0.0118018
0.011665
0.0115335
0.0114075
0.0112857
0.0111682
0.0110558
0.0109502
0.0108521
0.0107616
0.0106791
0.0106047
0.0105414
0.0104867
0.0105281
0.0144205
0.0141789
0.0139485
0.0137295
0.01352
0.0133267
0.0131467
0.0129556
0.0127834
0.0124457
0.00958922
0.0111253
0.0126662
0.0125022
0.0123261
0.0121965
0.012074
0.0119314
0.0117848
0.0116366
0.0114884
0.0113434
0.0112049
0.0110766
0.0109628
0.0108643
0.0107811
0.0107157
0.0106693
0.0108281
0.0144205
0.0141797
0.0139522
0.0137378
0.0135261
0.0133252
0.0131476
0.0129655
0.0127868
0.00534148
0.00340177
0.00501794
0.00697826
0.00732293
0.0131286
0.0157802
0.0174563
0.017027
0.0164752
0.0158513
0.0151931
0.014542
0.0139421
0.0134271
0.0130067
0.0126679
0.0124004
0.0121979
0.012059
0.0121355
0.0144205
0.0141798
0.0139538
0.0137434
0.0135359
0.0133295
0.0131436
0.012961
0.00638265
0.00305658
0.00430698
0.0123209
0.0125803
0.011319
0.0203398
0.0206268
0.0211462
0.0205525
0.019835
0.0195096
0.0195224
0.0197625
0.0202389
0.0209018
0.0203125
0.0194404
0.0187652
0.0182643
0.0179213
0.0178141
0.0144206
0.0141795
0.0139512
0.0137386
0.0135356
0.0133308
0.0131391
0.0129591
0.00619876
0.00122563
0.0030695
0.00596679
0.00459949
0.00374907
0.0177696
0.0179803
0.0178774
0.0167599
0.0154308
0.0143279
0.0134606
0.0127538
0.0121619
0.0116886
0.0113193
0.0110647
0.0108711
0.0108984
0.0107525
0.0118536
0.0144206
0.0141796
0.0139513
0.0137387
0.0135358
0.0133309
0.0131391
0.0129587
0.00608288
0.000992854
0.00545093
0.010661
0.0069304
0.0147844
0.015786
0.0162925
0.0158099
0.0150821
0.0145132
0.0140249
0.0135265
0.0130026
0.0124747
0.0119694
0.0115348
0.011157
0.0110626
0.0107372
0.012916
0.0144206
0.0141799
0.013954
0.0137437
0.0135363
0.0133298
0.0131436
0.0129609
0.00638446
0.00254083
0.00164856
0.00318458
0.00164968
0.00178409
0.0100235
0.0119429
0.0131028
0.0130718
0.0127403
0.0126225
0.0126013
0.0125876
0.0125239
0.0124043
0.0122231
0.0120299
0.0118503
0.0118801
0.0117293
0.015543
0.0144205
0.0141799
0.0139525
0.0137383
0.0135266
0.0133258
0.0131479
0.0129671
0.0127865
0.0054148
0.00407534
0.00409473
0.00393238
0.00384292
0.0115213
0.0122561
0.0121459
0.012025
0.0119001
0.0117849
0.0117236
0.0114558
0.0103606
0.00981455
0.00966468
0.00975297
0.00993678
0.0103015
0.0107068
0.0177778
0.0144205
0.014179
0.0139489
0.01373
0.0135207
0.0133275
0.0131474
0.0129557
0.0127846
0.0126166
0.0124646
0.0123299
0.0122179
0.0121315
0.012028
0.0119226
0.0118123
0.0117007
0.0115859
0.0114665
0.0113439
0.0112213
0.011105
0.0110025
0.0109245
0.0108922
0.0109206
0.0110052
0.0120633
0.0216615
0.0144202
0.0141785
0.0139483
0.0137289
0.0135202
0.0133261
0.0131425
0.0129474
0.012777
0.0126368
0.0124756
0.0123225
0.0121983
0.0120823
0.0119638
0.0118413
0.0117136
0.0115864
0.0114599
0.0113319
0.0112025
0.0110735
0.0109485
0.0108283
0.010714
0.0106072
0.0105088
0.0104279
0.0122306
0.0230838
0.01442
0.0141785
0.0139482
0.013729
0.0135203
0.0133214
0.0131244
0.0129398
0.0127693
0.0126084
0.0124524
0.0123263
0.0121916
0.0120423
0.0119129
0.0117827
0.0116507
0.011522
0.0113967
0.0112731
0.011151
0.011031
0.0109131
0.0107975
0.0106848
0.0105755
0.0104715
0.0103816
0.0117585
0.0213241
0.01442
0.0141785
0.0139484
0.0137283
0.0135184
0.0133173
0.0131203
0.0129371
0.0127638
0.0126002
0.0124416
0.0122883
0.0121468
0.0120151
0.0118812
0.0117483
0.0116147
0.0114848
0.0113584
0.0112342
0.0111122
0.0109928
0.010876
0.0107624
0.0106524
0.0105461
0.0104456
0.0103513
0.0110609
0.0184458
0.01442
0.0141784
0.0139486
0.0137277
0.0135171
0.0133148
0.0131183
0.012939
0.0127604
0.0125949
0.0124348
0.0122786
0.0121343
0.012
0.0118637
0.0117294
0.0115952
0.011465
0.0113385
0.0112149
0.011094
0.0109761
0.0108614
0.01075
0.0106423
0.0105385
0.0104407
0.0103467
0.0105268
0.0152534
0.0144199
0.0141783
0.0139484
0.0137275
0.0135163
0.0133131
0.0131136
0.0129373
0.0127585
0.0125921
0.0124305
0.0122735
0.0121274
0.0119911
0.0118536
0.0117187
0.0115848
0.0114545
0.0113279
0.0112046
0.0110844
0.0109673
0.0108535
0.0107433
0.0106368
0.0105345
0.0104384
0.0103464
0.0102814
0.012367
0.01442
0.0141784
0.0139485
0.0137275
0.0135163
0.0133127
0.0131117
0.0129358
0.0127563
0.0125886
0.0124284
0.0122711
0.0121241
0.0119871
0.011849
0.0117138
0.0115799
0.0114494
0.0113228
0.0111995
0.0110791
0.0109621
0.0108484
0.0107382
0.010632
0.0105299
0.0104341
0.0103431
0.0102385
0.0106747
0.123146
0.114115
0.106894
0.100929
0.0958789
0.0915241
0.0876047
0.0841377
0.0809877
0.0781495
0.0755999
0.0733917
0.0714991
0.0699208
0.0685669
0.0673541
0.0662215
0.0651794
0.0642186
0.0633164
0.0624675
0.0616695
0.0609206
0.0602192
0.0595635
0.0589598
0.0584091
0.0579285
0.0574998
0.0572342
0.123145
0.114113
0.106889
0.100922
0.0958746
0.0914984
0.0875306
0.0840193
0.0808083
0.0779066
0.0752805
0.0730215
0.0711196
0.0695547
0.068223
0.0670269
0.0659002
0.0648775
0.0639365
0.0630608
0.0622373
0.0614615
0.0607318
0.0600477
0.0594089
0.0588229
0.0582895
0.0578291
0.0574359
0.0574208
0.123145
0.114108
0.10688
0.100904
0.0958571
0.09144
0.0873873
0.0837814
0.0804429
0.0773778
0.0745843
0.0722103
0.0703011
0.0687795
0.0675035
0.066353
0.0652502
0.0642785
0.0633914
0.0625711
0.0618042
0.0610801
0.0603978
0.059759
0.059164
0.0586209
0.0581296
0.05772
0.0574746
0.0588055
0.123143
0.114101
0.106866
0.100876
0.0958147
0.0913503
0.0871826
0.083421
0.0798739
0.076479
0.0733339
0.0708446
0.0688937
0.0674471
0.0662569
0.0651742
0.0641278
0.0632261
0.0624146
0.0616761
0.0609978
0.0603771
0.0597874
0.0592355
0.058724
0.0582596
0.0578477
0.0575469
0.0578617
0.0644026
0.123142
0.114093
0.106847
0.100839
0.0957709
0.0912868
0.0869562
0.0829483
0.0790284
0.069487
0.0573261
0.0652731
0.066619
0.0653042
0.0642413
0.0632682
0.0623438
0.0615957
0.0609439
0.0603504
0.0598058
0.0593094
0.0588397
0.0584073
0.0580147
0.0576674
0.0573768
0.0572902
0.0592791
0.079414
0.123139
0.114085
0.10683
0.100801
0.0956948
0.0913391
0.0868464
0.0823563
0.0711308
0.0438376
0.0362227
0.0434463
0.0576823
0.0607848
0.0598295
0.0589512
0.0581377
0.0575663
0.0571478
0.0568251
0.056566
0.0563594
0.0561701
0.0559884
0.0558266
0.0556887
0.0555919
0.0558476
0.0608552
0.100902
0.123146
0.114087
0.10686
0.100826
0.0955895
0.0912162
0.0868291
0.0816468
0.0458771
0.026114
0.0207503
0.0249358
0.0365798
0.0500263
0.0491872
0.0485233
0.048021
0.0477746
0.0476523
0.0476205
0.0476859
0.0478372
0.0480358
0.0482634
0.0484443
0.0485609
0.0486113
0.0489596
0.0558425
0.105434
0.123157
0.114126
0.107043
0.101114
0.0955301
0.0908482
0.0864996
0.063622
0.0284664
0.0170575
0.0103102
0.0121901
0.0178159
0.0239978
0.0242776
0.0243772
0.0245462
0.0248522
0.0252463
0.0256787
0.0260917
0.026481
0.0268144
0.0270892
0.0273062
0.0274729
0.0276203
0.0279383
0.0309763
0.0545479
0.123159
0.114137
0.107057
0.101252
0.095672
0.0905073
0.0858241
0.0508527
0.0239151
0.00851964
0.00652565
0.0135477
0.012878
0.0120964
0.0118717
0.012178
0.0124009
0.0126127
0.0129447
0.0134111
0.0140272
0.0147981
0.0157222
0.0167913
0.017992
0.019302
0.0206943
0.022179
0.0242091
0.0333717
0.123159
0.114111
0.106952
0.101179
0.0958689
0.0904986
0.0855273
0.0428637
0.0171758
0.00490518
0.00556284
0.0100299
0.00476089
0.00723749
0.010415
0.0108589
0.0112972
0.0117544
0.0122402
0.0127631
0.0133432
0.0140026
0.0147574
0.0156129
0.0165597
0.0175688
0.0186078
0.0196989
0.0224045
0.0342829
0.12316
0.114113
0.106957
0.101184
0.0958846
0.0905345
0.0856093
0.0440445
0.0159263
0.00335013
0.00366403
0.014231
0.0145781
0.0150018
0.0154827
0.0160064
0.0165371
0.017056
0.0175532
0.0180376
0.018522
0.0190155
0.0195479
0.02019
0.0212284
0.0263339
0.0541349
0.123161
0.114144
0.107062
0.101258
0.0957071
0.0905998
0.0860325
0.055057
0.0219138
0.00659603
0.00380065
0.00213684
0.0080611
0.0161794
0.0160849
0.0173114
0.0183741
0.0195032
0.0207895
0.0222676
0.0239566
0.0258475
0.0278557
0.0297701
0.0309201
0.0322394
0.0334824
0.0353517
0.0398259
0.076273
0.12316
0.114137
0.107053
0.101149
0.0956069
0.0910046
0.0868309
0.073216
0.0349538
0.0155255
0.0154449
0.0128383
0.0192078
0.0211273
0.0265864
0.0396994
0.0355712
0.0325676
0.0302894
0.0285104
0.0271214
0.0234166
0.0202217
0.0183449
0.0173201
0.0169319
0.0170915
0.0187588
0.0390669
0.153218
0.123149
0.114101
0.106893
0.100888
0.0957022
0.0914217
0.0872265
0.0824626
0.0571783
0.0367149
0.0335807
0.0338788
0.0377643
0.0410576
0.0551497
0.0667624
0.0653099
0.0637418
0.0620776
0.0603007
0.0584189
0.0564233
0.0543364
0.0521913
0.0500016
0.0477817
0.0456649
0.0518635
0.188316
0.555001
0.123143
0.114103
0.106869
0.100873
0.0958225
0.0915639
0.0872463
0.0830867
0.0791242
0.0612859
0.0563833
0.058946
0.0614536
0.066875
0.0688326
0.0678453
0.0667732
0.0656622
0.0645043
0.0632788
0.0619615
0.060557
0.059049
0.0574921
0.0559467
0.0544861
0.0541294
0.0817339
0.301301
0.683323
0.123147
0.114113
0.10689
0.100919
0.0959067
0.0915159
0.0873402
0.0836001
0.0801294
0.0769076
0.0743997
0.072901
0.0715492
0.0703875
0.0692629
0.0681188
0.0669645
0.0658266
0.0647071
0.0635985
0.0624949
0.0613935
0.0602924
0.0592015
0.0581368
0.057145
0.0570654
0.0812821
0.280909
0.65108
0.123149
0.114122
0.106912
0.100959
0.0959538
0.0915759
0.0875439
0.0839968
0.0807837
0.0778966
0.075494
0.0737511
0.0721901
0.0708273
0.0695579
0.0683306
0.0671392
0.0659846
0.0648719
0.0637913
0.0627375
0.0617082
0.0607036
0.0597359
0.0588183
0.0579787
0.0577478
0.0733562
0.229074
0.566252
0.12315
0.11413
0.106928
0.100989
0.095997
0.0916606
0.0877273
0.0842983
0.0812133
0.0785015
0.0761619
0.0742633
0.0726172
0.0711541
0.0698034
0.0685249
0.0673093
0.0661339
0.0650171
0.0639463
0.0629166
0.0619274
0.0609793
0.0600788
0.0592348
0.0584667
0.0580457
0.0656684
0.167634
0.449607
0.123151
0.114136
0.106938
0.101008
0.0960146
0.0917148
0.0878553
0.0844967
0.0814914
0.0788565
0.0765507
0.074622
0.0729245
0.0714023
0.070004
0.0686949
0.0674681
0.0662727
0.0651494
0.064082
0.0630638
0.0620941
0.0611734
0.0603047
0.0594958
0.0587601
0.0582239
0.0607893
0.112218
0.310689
0.123152
0.114138
0.106943
0.101016
0.0960186
0.091738
0.0879214
0.0845953
0.0816282
0.0790173
0.0767284
0.0747869
0.0730717
0.0715232
0.0701012
0.0687765
0.0675355
0.0663282
0.0651979
0.0641267
0.0631081
0.0621408
0.0612263
0.0603675
0.0595714
0.0588486
0.0582702
0.0586743
0.0777349
0.188018
0.13447
0.133882
0.133114
0.132197
0.131152
0.130002
0.128755
0.127425
0.126032
0.124606
0.123156
0.121742
0.120348
0.119069
0.117884
0.116761
0.115677
0.114556
0.113517
0.112514
0.111538
0.11059
0.109674
0.108792
0.107945
0.107148
0.106407
0.105742
0.105219
0.1053
0.13447
0.133882
0.133114
0.132197
0.131147
0.129993
0.128736
0.12739
0.125972
0.124514
0.123028
0.121604
0.120166
0.118879
0.117692
0.116561
0.115486
0.114365
0.113329
0.112335
0.111373
0.110438
0.109534
0.108661
0.107828
0.107043
0.106317
0.105691
0.105525
0.109195
0.13447
0.133881
0.133113
0.132196
0.131138
0.129974
0.128698
0.127319
0.125852
0.12433
0.122777
0.121297
0.119817
0.118527
0.117345
0.116211
0.115134
0.114047
0.113027
0.11205
0.11111
0.110198
0.109316
0.108468
0.107664
0.106906
0.10622
0.105764
0.107678
0.130431
0.13447
0.133881
0.133111
0.132193
0.131126
0.129948
0.128643
0.127213
0.125667
0.122976
0.104548
0.117655
0.119254
0.117946
0.116767
0.115623
0.114517
0.113446
0.112441
0.111487
0.110577
0.109716
0.108883
0.108089
0.107336
0.106633
0.106031
0.106242
0.117053
0.197821
0.13447
0.13388
0.133109
0.132188
0.13115
0.129908
0.128568
0.127071
0.124024
0.0840386
0.0694335
0.0776093
0.102422
0.116611
0.115455
0.114313
0.113202
0.112168
0.11121
0.110306
0.109449
0.108642
0.107873
0.107142
0.106449
0.105805
0.105338
0.107555
0.142879
0.306189
0.134469
0.133881
0.133109
0.132184
0.131162
0.129871
0.128494
0.126915
0.0864241
0.0537226
0.0440762
0.0521322
0.0660841
0.095184
0.110989
0.109804
0.108635
0.107601
0.10669
0.105859
0.105084
0.104362
0.103676
0.103003
0.102307
0.101586
0.101098
0.106934
0.179337
0.392891
0.134469
0.13388
0.133117
0.132194
0.131134
0.129876
0.128418
0.107614
0.0567547
0.0346973
0.027206
0.0295975
0.0395017
0.0534613
0.0900288
0.0959604
0.094219
0.0926867
0.0913281
0.0900901
0.0888662
0.0876294
0.0863541
0.0849298
0.0833142
0.0814751
0.0797275
0.086235
0.174237
0.450365
0.13447
0.133883
0.133117
0.132197
0.131158
0.129875
0.128339
0.0789261
0.0379898
0.0200182
0.0182135
0.015294
0.0235589
0.0261501
0.0328525
0.0481666
0.0454376
0.0435429
0.0421026
0.0408918
0.0397718
0.038633
0.0375264
0.0364924
0.035556
0.0347352
0.0341502
0.0368727
0.0781
0.254761
0.13447
0.133885
0.133126
0.132178
0.131138
0.129852
0.128334
0.0647823
0.0334294
0.0137126
0.0119066
0.00692827
0.0159702
0.0161793
0.0124905
0.012601
0.0128327
0.0131517
0.0135815
0.0141175
0.0147692
0.0155402
0.016425
0.0174128
0.0184887
0.0196316
0.0208563
0.023259
0.0414017
0.124069
0.134471
0.133883
0.133133
0.132215
0.13115
0.129857
0.121976
0.0552994
0.02499
0.00816259
0.00539415
0.00210879
0.0121136
0.00749752
0.0118445
0.012265
0.0126436
0.0130499
0.0135277
0.0140746
0.0146997
0.0154067
0.0161956
0.0170623
0.018
0.018998
0.0201029
0.0226934
0.0437948
0.130177
0.134471
0.133883
0.133134
0.132217
0.131153
0.129865
0.124509
0.0568995
0.0240409
0.00593556
0.00413478
0.00825284
0.0142741
0.0147488
0.0152236
0.0157774
0.0164618
0.0172739
0.0182178
0.0192721
0.0204301
0.0216641
0.0229366
0.0241894
0.0254548
0.029158
0.0587251
0.1876
0.13447
0.133886
0.133128
0.132182
0.131148
0.129876
0.128385
0.0696776
0.0306415
0.0121614
0.00983925
0.00258647
0.0109695
0.0131268
0.0154002
0.0164515
0.0172965
0.0181
0.0189336
0.0198334
0.0208349
0.0219611
0.0232082
0.0245437
0.0258977
0.0271716
0.0284084
0.0345431
0.0978711
0.346511
0.13447
0.133884
0.13312
0.132204
0.131176
0.129914
0.128425
0.0892395
0.0457068
0.026668
0.0206378
0.0110952
0.0234742
0.0271891
0.0314886
0.0488049
0.044117
0.039665
0.0363521
0.0337609
0.0317951
0.030269
0.0290966
0.028185
0.0275202
0.0271229
0.0281574
0.0602934
0.327367
0.884656
0.13447
0.133881
0.133122
0.132205
0.131158
0.129927
0.128526
0.125527
0.0681445
0.0460544
0.0370479
0.0369147
0.0444808
0.0505431
0.0695399
0.108317
0.108773
0.105504
0.102039
0.0981955
0.0940727
0.0900111
0.086272
0.0829604
0.0801022
0.0778348
0.0863418
0.257714
0.941666
1.79841
0.134469
0.133882
0.133114
0.132196
0.13119
0.129929
0.128611
0.127149
0.105883
0.0705472
0.0614779
0.0665226
0.0700822
0.0778469
0.100567
0.117649
0.116369
0.115002
0.113559
0.112019
0.110359
0.108575
0.106647
0.104655
0.102663
0.101219
0.11812
0.368617
1.04892
1.97799
0.13447
0.133882
0.133115
0.132202
0.13118
0.129969
0.128685
0.127292
0.125816
0.110091
0.0982127
0.102253
0.108741
0.117984
0.119109
0.117961
0.116753
0.115518
0.114266
0.112994
0.111696
0.110368
0.109016
0.107655
0.106319
0.105448
0.119779
0.343991
0.915493
1.74104
0.13447
0.133883
0.133117
0.132208
0.131157
0.130009
0.128756
0.127416
0.126015
0.12462
0.123286
0.122183
0.121073
0.119989
0.118888
0.117744
0.116582
0.115397
0.114213
0.113026
0.111834
0.11064
0.109443
0.108267
0.107128
0.106304
0.115071
0.279826
0.818058
1.5219
0.13447
0.133883
0.133119
0.132212
0.13117
0.130035
0.128807
0.127507
0.126157
0.124802
0.123482
0.122311
0.121124
0.119976
0.118835
0.117683
0.116535
0.115364
0.114205
0.113052
0.111905
0.110768
0.109644
0.108546
0.107493
0.106628
0.110529
0.208916
0.671242
1.28291
0.13447
0.133884
0.13312
0.132213
0.131179
0.130053
0.128841
0.127566
0.126249
0.124925
0.123615
0.122405
0.12119
0.120014
0.118855
0.117696
0.116547
0.115388
0.114239
0.113103
0.111978
0.110869
0.109782
0.108723
0.107711
0.106815
0.107782
0.15203
0.479563
0.963507
0.13447
0.133884
0.133121
0.132213
0.131185
0.130062
0.128858
0.127595
0.126293
0.124985
0.123682
0.122444
0.12123
0.120042
0.118874
0.117713
0.116563
0.115405
0.114256
0.113123
0.112003
0.110901
0.109825
0.108782
0.107784
0.106874
0.106614
0.120779
0.264223
0.555153
0.134739
0.134632
0.13451
0.134369
0.134208
0.134022
0.133813
0.133583
0.133336
0.133074
0.132787
0.132458
0.132095
0.131728
0.131363
0.130991
0.130611
0.130215
0.129812
0.129406
0.128995
0.128581
0.128167
0.127757
0.127357
0.126971
0.126623
0.126336
0.12654
0.130298
0.134739
0.134632
0.13451
0.134369
0.134207
0.134022
0.133813
0.133584
0.13334
0.133084
0.132806
0.132496
0.132123
0.131757
0.131391
0.131015
0.130635
0.130234
0.129829
0.129423
0.129013
0.1286
0.128187
0.127779
0.127379
0.126997
0.126664
0.126578
0.129551
0.157086
0.134739
0.134632
0.13451
0.13437
0.134207
0.134022
0.133814
0.133588
0.133354
0.133118
0.132867
0.132597
0.132216
0.131857
0.131491
0.131111
0.130726
0.13031
0.129903
0.129497
0.129088
0.128677
0.128266
0.127861
0.127465
0.127092
0.126824
0.127918
0.146412
0.246191
0.134739
0.134632
0.13451
0.13437
0.134207
0.134022
0.133817
0.1336
0.133389
0.1332
0.126163
0.132762
0.132414
0.132065
0.131695
0.131299
0.130894
0.130464
0.130044
0.129625
0.129208
0.128795
0.128385
0.127981
0.127591
0.127234
0.127219
0.133529
0.196185
0.412813
0.134739
0.134632
0.13451
0.13437
0.134208
0.134025
0.133825
0.133627
0.133466
0.103842
0.0862533
0.0938954
0.120287
0.131969
0.131612
0.1312
0.130766
0.130321
0.129883
0.129449
0.129021
0.1286
0.12818
0.127767
0.127366
0.127017
0.127771
0.15004
0.289703
0.627067
0.134739
0.134632
0.13451
0.13437
0.134212
0.134028
0.13384
0.133681
0.106611
0.0697141
0.057368
0.0634372
0.0778917
0.105818
0.129844
0.12938
0.128865
0.12835
0.127845
0.127348
0.126859
0.126375
0.125877
0.125348
0.124771
0.124227
0.126482
0.17869
0.384977
0.809448
0.134739
0.134632
0.134511
0.134371
0.134215
0.134034
0.133867
0.130223
0.0742698
0.0459274
0.0356162
0.0380914
0.0471609
0.066445
0.106746
0.121897
0.120924
0.119944
0.118947
0.117901
0.116793
0.115601
0.11424
0.112599
0.110649
0.108535
0.111256
0.19362
0.485079
0.976009
0.134739
0.134632
0.134512
0.134371
0.134218
0.134045
0.133906
0.100305
0.0517934
0.0304751
0.0247036
0.0182582
0.0280943
0.0344184
0.0531026
0.0917697
0.0887605
0.0859907
0.0832593
0.0804514
0.077519
0.074442
0.0710721
0.0674986
0.0638703
0.0604767
0.0608552
0.120311
0.452666
1.02688
0.134739
0.134632
0.134513
0.134374
0.134217
0.134053
0.133945
0.0805293
0.0390458
0.0200681
0.0150032
0.00692727
0.013636
0.020534
0.026502
0.0270013
0.0264281
0.0260219
0.0255454
0.0249976
0.024447
0.0239427
0.023523
0.023201
0.0229881
0.0228951
0.0241229
0.051246
0.245049
0.698086
0.134739
0.134632
0.134512
0.134377
0.134223
0.134072
0.133972
0.0708601
0.0325916
0.0163707
0.00915591
0.00188606
0.0044416
0.00518414
0.0161747
0.0159276
0.0157657
0.0156627
0.0156507
0.0157364
0.0159278
0.0162292
0.0166419
0.0171625
0.0177825
0.0184993
0.0199031
0.0379971
0.186339
0.574042
0.134739
0.134632
0.134512
0.134377
0.134223
0.134071
0.133966
0.0729694
0.0337146
0.0155186
0.00829757
0.00224615
0.0158406
0.0172982
0.0145405
0.0148205
0.0150442
0.0152591
0.0154928
0.0157397
0.0160014
0.0162698
0.0165491
0.0168436
0.0171532
0.0175102
0.0193453
0.0550069
0.301718
0.825566
0.134739
0.134632
0.134513
0.134374
0.134217
0.134051
0.133932
0.0867571
0.0430102
0.0226201
0.0113247
0.00174022
0.00417309
0.0090344
0.0252572
0.0241801
0.0232567
0.022586
0.022099
0.0218068
0.0216865
0.0217147
0.0218626
0.0221002
0.0223907
0.0227721
0.0274754
0.11179
0.576583
1.34421
0.134739
0.134632
0.134512
0.134371
0.134218
0.134043
0.133894
0.112411
0.0595262
0.0367763
0.0223212
0.0143328
0.0335101
0.0368682
0.0561141
0.0944796
0.0859947
0.0786588
0.0722571
0.066562
0.0615033
0.0571575
0.0534639
0.0503604
0.047819
0.0467595
0.0717933
0.360229
1.27619
2.31581
0.134739
0.134632
0.134511
0.134372
0.134216
0.134035
0.133862
0.133743
0.0874341
0.0568144
0.044198
0.045487
0.0544432
0.0669258
0.0906537
0.128045
0.126612
0.12487
0.122879
0.120651
0.118217
0.115626
0.112957
0.110274
0.107728
0.108549
0.191518
0.781912
1.51342
3.21674
0.134739
0.134632
0.13451
0.134371
0.134213
0.134031
0.133842
0.133671
0.127376
0.087175
0.0748825
0.0788286
0.0845905
0.0964773
0.124563
0.132056
0.131554
0.130985
0.130357
0.129658
0.128881
0.128019
0.127063
0.126039
0.125074
0.128079
0.223549
0.823629
1.46612
2.92306
0.134739
0.134632
0.13451
0.134371
0.13421
0.13403
0.133833
0.133632
0.133456
0.130663
0.114265
0.118541
0.128384
0.13279
0.1325
0.132112
0.131665
0.131186
0.130683
0.130152
0.129593
0.129004
0.128388
0.127757
0.1272
0.129698
0.207014
0.738262
1.37489
2.5832
0.134739
0.134632
0.13451
0.134371
0.13421
0.134029
0.133828
0.133615
0.133402
0.133199
0.132999
0.132804
0.132567
0.132298
0.131984
0.131616
0.131209
0.130776
0.130322
0.129849
0.129355
0.128843
0.128317
0.127784
0.1273
0.128655
0.181064
0.608854
1.28458
2.27165
0.134739
0.134632
0.13451
0.134371
0.13421
0.134029
0.133828
0.133609
0.13338
0.133143
0.132892
0.132635
0.132329
0.132022
0.131692
0.131327
0.130933
0.130518
0.130083
0.129632
0.129163
0.128682
0.12819
0.127696
0.127229
0.127664
0.155916
0.457901
1.1451
1.91487
0.134739
0.134632
0.13451
0.134371
0.134211
0.134029
0.133828
0.133608
0.133373
0.133123
0.132851
0.132566
0.132247
0.13192
0.131579
0.131213
0.130823
0.130413
0.129985
0.129542
0.129085
0.128616
0.12814
0.127662
0.127201
0.127102
0.138464
0.310388
0.909062
1.42879
0.134739
0.134632
0.134511
0.134371
0.134212
0.13403
0.133829
0.133608
0.133371
0.133117
0.132837
0.132531
0.132208
0.131875
0.131531
0.131165
0.130777
0.13037
0.129945
0.129505
0.129052
0.128588
0.128116
0.127645
0.127187
0.126864
0.130135
0.204713
0.533458
0.866213
0.134745
0.134655
0.134565
0.134475
0.134383
0.134292
0.134202
0.134117
0.13404
0.133972
0.133902
0.133812
0.133701
0.133582
0.13346
0.133334
0.1332
0.133061
0.132917
0.13277
0.132619
0.132466
0.132313
0.132163
0.13202
0.13189
0.131803
0.131894
0.134115
0.139265
0.134745
0.134655
0.134565
0.134475
0.134384
0.134293
0.134204
0.134122
0.134051
0.133993
0.133938
0.133861
0.133758
0.133644
0.133526
0.1334
0.133267
0.133128
0.132984
0.132837
0.132686
0.132534
0.132382
0.132232
0.132091
0.131963
0.131932
0.133111
0.148909
0.226726
0.134745
0.134655
0.134566
0.134475
0.134384
0.134294
0.134209
0.134133
0.134077
0.134047
0.134029
0.133987
0.133908
0.133807
0.133695
0.133571
0.133438
0.133299
0.133154
0.133007
0.132856
0.132704
0.132552
0.132403
0.132264
0.132149
0.132428
0.139917
0.206353
0.43664
0.134745
0.134655
0.134566
0.134475
0.134385
0.134297
0.134217
0.134155
0.134129
0.134156
0.134214
0.134236
0.1342
0.134123
0.134019
0.133894
0.133758
0.133613
0.133464
0.133312
0.133158
0.133002
0.132848
0.132698
0.13256
0.132495
0.134144
0.165425
0.334364
0.727781
0.134745
0.134655
0.134566
0.134476
0.134387
0.134302
0.13423
0.134192
0.134224
0.130926
0.10977
0.118055
0.134509
0.134472
0.134377
0.134244
0.134093
0.133932
0.13377
0.133605
0.133438
0.13327
0.133104
0.132941
0.132792
0.13287
0.139183
0.230867
0.522845
1.04288
0.134745
0.134655
0.134566
0.134477
0.134389
0.134309
0.134251
0.134254
0.134274
0.0929348
0.0753884
0.0804171
0.0971685
0.123765
0.134029
0.133894
0.133723
0.133536
0.133343
0.133143
0.13294
0.132731
0.132512
0.13228
0.132046
0.132403
0.149823
0.340384
0.697196
1.36859
0.134745
0.134655
0.134566
0.134477
0.134392
0.134317
0.13428
0.134347
0.0996329
0.0630209
0.0507667
0.0572537
0.0638812
0.081504
0.122127
0.131247
0.130971
0.130653
0.130297
0.129894
0.129432
0.1289
0.128254
0.127468
0.126556
0.126809
0.162009
0.465827
0.866626
1.74528
0.134745
0.134656
0.134566
0.134478
0.134394
0.134327
0.134316
0.12961
0.072434
0.0447077
0.0312043
0.0307157
0.0387827
0.0505925
0.0854407
0.121187
0.119958
0.118617
0.117132
0.115453
0.113546
0.111355
0.108802
0.105939
0.10284
0.101452
0.14838
0.542767
1.01667
2.13874
0.134745
0.134656
0.134567
0.134479
0.134396
0.134335
0.13435
0.107807
0.0567265
0.0328088
0.0240826
0.0162541
0.0243077
0.025365
0.0483319
0.0882
0.0836987
0.0798308
0.0762417
0.0726855
0.0691804
0.0658041
0.0626184
0.0596297
0.0568892
0.0559989
0.0920059
0.427514
1.24708
2.27955
0.134745
0.134656
0.134567
0.13448
0.134399
0.134341
0.134369
0.0966163
0.0501319
0.0269852
0.0158941
0.00914889
0.0187761
0.0177992
0.0271745
0.0385809
0.0364131
0.0349337
0.0338096
0.0329087
0.0321286
0.0314333
0.0308283
0.0302925
0.0297912
0.0302783
0.0588593
0.351028
1.20443
2.15381
0.134745
0.134656
0.134567
0.13448
0.134398
0.134339
0.134363
0.0990629
0.0517423
0.0281341
0.0145178
0.00811273
0.0163197
0.0152518
0.0266359
0.042395
0.039529
0.0377176
0.0364865
0.0355734
0.0348841
0.0343487
0.0339408
0.0336311
0.0334382
0.0353036
0.0868081
0.505709
1.53984
2.54656
0.134745
0.134656
0.134567
0.134479
0.134396
0.134332
0.134335
0.115567
0.0613909
0.0362771
0.0195896
0.0124654
0.0276459
0.0264117
0.0535874
0.087967
0.079924
0.0729722
0.0667038
0.0608218
0.0558452
0.0519176
0.0489751
0.046898
0.0456473
0.0495009
0.148869
0.770924
2.07498
3.20944
0.134745
0.134656
0.134566
0.134478
0.134393
0.134323
0.1343
0.134406
0.0814324
0.0514008
0.0356057
0.0357177
0.0456064
0.0588164
0.0934901
0.125482
0.123287
0.120678
0.117712
0.114381
0.110672
0.106514
0.10219
0.0980399
0.0948241
0.105345
0.326568
1.15988
2.32827
4.06943
0.134745
0.134656
0.134566
0.134477
0.134391
0.134314
0.134266
0.134299
0.114564
0.0745633
0.0602787
0.0667506
0.0708135
0.0833832
0.1148
0.133369
0.133084
0.132676
0.132153
0.131509
0.130739
0.129832
0.128795
0.127679
0.127061
0.145766
0.407369
1.19652
2.13185
4.47909
0.134745
0.134656
0.134566
0.134477
0.134388
0.134306
0.134242
0.134222
0.134292
0.112006
0.0931933
0.0964453
0.105045
0.118929
0.134689
0.134573
0.134392
0.134188
0.133965
0.133722
0.133458
0.13317
0.13286
0.132539
0.132656
0.149569
0.389233
1.19664
2.00669
3.97254
0.134745
0.134656
0.134566
0.134476
0.134387
0.134301
0.134226
0.134174
0.13417
0.134228
0.134326
0.1344
0.134436
0.134429
0.134365
0.134242
0.134087
0.133919
0.133742
0.133556
0.133361
0.133159
0.132954
0.132757
0.132871
0.144942
0.337475
1.15369
1.89445
3.49808
0.134745
0.134655
0.134566
0.134476
0.134386
0.134298
0.134216
0.134147
0.134101
0.134084
0.134082
0.134064
0.134024
0.133963
0.133876
0.133758
0.13362
0.133471
0.133314
0.13315
0.13298
0.132804
0.132627
0.132455
0.132464
0.139589
0.276045
0.990442
1.77715
3.03707
0.134745
0.134655
0.134566
0.134475
0.134385
0.134296
0.13421
0.134131
0.134065
0.134011
0.133957
0.133887
0.133802
0.13371
0.133606
0.133484
0.133349
0.133205
0.133054
0.132896
0.132732
0.132563
0.132392
0.132225
0.132148
0.135487
0.216638
0.762882
1.63313
2.49726
0.134745
0.134655
0.134566
0.134475
0.134385
0.134295
0.134206
0.134123
0.134047
0.133975
0.133898
0.133805
0.1337
0.133592
0.13348
0.133356
0.133222
0.133079
0.132929
0.132773
0.132612
0.132445
0.132276
0.13211
0.131986
0.133158
0.170115
0.525476
1.36373
1.8155
0.134745
0.134656
0.134566
0.134476
0.134385
0.134294
0.134206
0.13412
0.13404
0.133962
0.133875
0.133773
0.13366
0.133545
0.133429
0.133305
0.133171
0.133028
0.132879
0.132724
0.132563
0.132397
0.132229
0.132063
0.131917
0.13219
0.144867
0.329217
0.858138
1.13476
0.134745
0.134656
0.134567
0.134479
0.134392
0.134307
0.134225
0.13415
0.134084
0.134027
0.133973
0.133909
0.133834
0.133754
0.133673
0.133589
0.133503
0.133414
0.133325
0.133236
0.133146
0.133058
0.132974
0.132894
0.132826
0.132772
0.132796
0.133518
0.142499
0.162475
0.134745
0.134656
0.134567
0.134479
0.134392
0.134307
0.134227
0.134154
0.134092
0.134044
0.134
0.133946
0.133878
0.133802
0.133724
0.133642
0.133557
0.13347
0.133381
0.133293
0.133204
0.133117
0.133033
0.132955
0.132889
0.132845
0.133089
0.138316
0.187129
0.358587
0.134745
0.134656
0.134568
0.134479
0.134393
0.134309
0.134231
0.134163
0.134113
0.134083
0.134066
0.134038
0.133988
0.133925
0.133852
0.133774
0.133691
0.133605
0.133519
0.133432
0.133345
0.13326
0.133178
0.133103
0.13304
0.133044
0.134557
0.162375
0.32795
0.697526
0.134745
0.134656
0.134568
0.13448
0.134394
0.134311
0.134237
0.134179
0.13415
0.13416
0.134198
0.134221
0.134208
0.134165
0.134103
0.134029