/*--------------------------------*- C++ -*----------------------------------*\
| =========                 |                                                 |
| \\      /  F ield         | OpenFOAM: The Open Source CFD Toolbox           |
|  \\    /   O peration     | Version:  2512                                  |
|   \\  /    A nd           | Website:  www.openfoam.com                      |
|    \\/     M anipulation  |                                                 |
\*---------------------------------------------------------------------------*/
FoamFile
{
    version     2.0;
    format      ascii;
    arch        "LSB;label=32;scalar=64";
    class       volScalarField;
    location    "260";
    object      nut;
}
// * * * * * * * * * * * * * * * * * * * * * * * * * * * * * * * * * * * * * //

dimensions      [0 2 -1 0 0 0 0];

internalField   nonuniform List<scalar> 
84826
(
0.0144196
0.0141772
0.0139459
0.0137247
0.0135128
0.0133097
0.0131154
0.0129293
0.0127522
0.0125828
0.0124222
0.0122659
0.0121215
0.0119881
0.0118541
0.0117231
0.0115933
0.0114673
0.011345
0.0112261
0.0111104
0.0109979
0.0108885
0.0107821
0.0106783
0.0105771
0.0104785
0.0103824
0.0102886
0.0101969
0.0144196
0.0141772
0.0139459
0.0137249
0.0135131
0.0133104
0.0131166
0.0129311
0.0127546
0.0125858
0.012426
0.0122703
0.0121267
0.0119939
0.0118601
0.0117291
0.0115991
0.0114725
0.0113499
0.0112307
0.0111148
0.0110022
0.0108926
0.0107861
0.0106823
0.010581
0.0104823
0.010386
0.010292
0.0102002
0.0144196
0.0141773
0.0139461
0.013725
0.0135136
0.0133112
0.0131174
0.0129328
0.0127578
0.0125903
0.0124322
0.0122779
0.0121361
0.0120048
0.0118717
0.0117409
0.0116104
0.0114833
0.0113605
0.0112411
0.011125
0.0110124
0.0109031
0.0107968
0.0106935
0.0105929
0.0104949
0.0103993
0.0103062
0.0102152
0.0144196
0.0141773
0.0139461
0.0137252
0.0135139
0.0133118
0.0131186
0.0129349
0.0127613
0.0125959
0.0124408
0.0122905
0.0121516
0.0120218
0.01189
0.0117596
0.0116289
0.011501
0.0113775
0.0112575
0.0111409
0.011028
0.0109182
0.0108115
0.0107077
0.0106065
0.0105077
0.0104113
0.0103169
0.0102247
0.0144196
0.0141773
0.0139461
0.0137254
0.0135142
0.0133124
0.0131197
0.0129372
0.0127654
0.0126029
0.0124488
0.0123242
0.0121907
0.0120408
0.0119114
0.0117822
0.0116516
0.0115234
0.0113997
0.0112795
0.0111633
0.0110514
0.0109436
0.0108394
0.0107385
0.0106405
0.0105452
0.0104522
0.0103614
0.0102722
0.0144196
0.0141773
0.0139462
0.0137254
0.0135145
0.0133129
0.0131208
0.0129396
0.0127701
0.0126073
0.0124567
0.0123185
0.01219
0.0120656
0.0119392
0.0118109
0.01168
0.0115512
0.0114271
0.0113063
0.0111893
0.0110759
0.0109661
0.0108593
0.0107554
0.0106543
0.0105556
0.0104591
0.0103645
0.010272
0.0144196
0.0141773
0.0139462
0.0137255
0.0135147
0.0133134
0.013122
0.0129419
0.0127725
0.0126123
0.0105516
0.0100183
0.0107063
0.0116466
0.0121172
0.0119902
0.0118579
0.0117291
0.0116056
0.0114871
0.0113823
0.0112784
0.0111713
0.0110615
0.0109522
0.0108473
0.0107458
0.0106471
0.0105512
0.0104592
0.0144196
0.0141772
0.0139461
0.0137256
0.0135148
0.0133138
0.0131231
0.0129438
0.0127734
0.0117189
0.00465267
0.00342896
0.00408565
0.00435659
0.00974551
0.0082872
0.00789941
0.00818829
0.00871897
0.00930812
0.00986619
0.0103461
0.0107527
0.0111107
0.0114214
0.0116643
0.0118298
0.0118926
0.011953
0.0117658
0.0144196
0.0141772
0.0139461
0.0137255
0.0135149
0.0133142
0.013124
0.0129459
0.0127762
0.00807021
0.00305731
0.00218753
0.00259165
0.00891264
0.0164475
0.0166539
0.0173763
0.0183805
0.0191908
0.0196597
0.0198251
0.0197393
0.0194862
0.0191548
0.0187811
0.0183606
0.0178638
0.0173493
0.0167743
0.0162128
0.0144196
0.0141771
0.0139459
0.0137252
0.0135145
0.0133138
0.0131239
0.0129452
0.012775
0.00610909
0.00208367
0.00087629
0.00187355
0.00243461
0.0124748
0.0133398
0.0151507
0.0171463
0.0188045
0.0198968
0.0204916
0.0207198
0.0207284
0.0206506
0.0205538
0.0204521
0.0203196
0.0202382
0.0199831
0.0204419
0.0144195
0.014177
0.0139457
0.013725
0.0135142
0.0133135
0.0131239
0.0129452
0.012775
0.00611667
0.00197743
0.00124922
0.00350792
0.0118097
0.0131928
0.0149603
0.0168412
0.0183857
0.0194209
0.0200285
0.0203439
0.0204973
0.0205936
0.0206791
0.0207697
0.0208509
0.0210053
0.0209428
0.0219613
0.0144196
0.0141771
0.0139461
0.0137254
0.0135146
0.0133139
0.013124
0.0129459
0.0127762
0.00809121
0.00253363
0.000886327
0.000992694
0.00568148
0.0193004
0.01796
0.0181182
0.0184389
0.018252
0.0176511
0.0168727
0.0160887
0.015387
0.014827
0.0144221
0.0141737
0.0140804
0.014171
0.0142298
0.0148789
0.0144196
0.0141772
0.0139463
0.0137258
0.013515
0.013314
0.0131232
0.0129439
0.0127735
0.0117783
0.00398005
0.00301301
0.00402813
0.00490076
0.0104277
0.00918362
0.00847043
0.00870538
0.00925722
0.00979572
0.0102462
0.0105757
0.0108065
0.0109842
0.011098
0.0111827
0.0112489
0.0113435
0.011313
0.0113966
0.0144196
0.0141773
0.0139463
0.0137257
0.0135149
0.0133136
0.0131222
0.0129421
0.0127726
0.0126125
0.0106606
0.0103573
0.0117444
0.012134
0.012018
0.0118989
0.0117742
0.0116506
0.011515
0.0114566
0.0115024
0.0116433
0.0118604
0.0121332
0.0124421
0.0125863
0.0115053
0.0106846
0.0101837
0.00946343
0.0144196
0.0141774
0.0139463
0.0137255
0.0135147
0.0133131
0.013121
0.0129397
0.0127702
0.0126075
0.0124567
0.0123183
0.0121876
0.0120612
0.0119351
0.0118092
0.0116778
0.011546
0.0114175
0.0112913
0.0111705
0.0110578
0.0109556
0.0108656
0.0107889
0.0107254
0.0106746
0.010636
0.0106107
0.0105944
0.0144196
0.0141774
0.0139462
0.0137255
0.0135144
0.0133126
0.0131199
0.0129374
0.0127656
0.0126031
0.0124493
0.012325
0.0121917
0.0120412
0.0119112
0.0117829
0.0116516
0.0115205
0.0113931
0.0112687
0.0111476
0.0110301
0.010916
0.0108055
0.0106982
0.0105943
0.0104937
0.0103965
0.0103026
0.010212
0.0144196
0.0141773
0.0139462
0.0137253
0.0135141
0.013312
0.0131189
0.0129352
0.0127617
0.0125964
0.0124414
0.0122911
0.0121521
0.0120217
0.0118891
0.011759
0.0116278
0.0114986
0.011372
0.0112484
0.0111279
0.0110111
0.0108974
0.010787
0.0106797
0.0105751
0.0104733
0.0103742
0.0102775
0.0101833
0.0144196
0.0141773
0.0139461
0.0137251
0.0135137
0.0133113
0.0131177
0.0129332
0.0127583
0.0125911
0.0124332
0.0122792
0.0121372
0.0120054
0.0118715
0.0117405
0.0116093
0.0114808
0.0113555
0.0112325
0.0111127
0.0109966
0.0108836
0.0107739
0.0106672
0.0105634
0.0104624
0.010364
0.0102681
0.0101745
0.0144196
0.0141773
0.013946
0.0137249
0.0135132
0.0133106
0.0131169
0.0129317
0.0127555
0.012587
0.0124276
0.0122722
0.0121284
0.011995
0.0118604
0.0117289
0.0115982
0.0114702
0.0113452
0.0112232
0.0111038
0.010988
0.0108754
0.0107661
0.0106598
0.0105563
0.0104557
0.0103576
0.0102621
0.010169
0.0144196
0.0141772
0.0139459
0.0137246
0.0135128
0.0133099
0.0131158
0.01293
0.0127534
0.0125844
0.0124242
0.0122682
0.0121236
0.0119896
0.0118547
0.011723
0.0115923
0.0114645
0.0113399
0.0112181
0.0110991
0.0109835
0.0108712
0.0107621
0.0106559
0.0105527
0.0104522
0.0103544
0.0102591
0.0101663
0.12312
0.114074
0.106851
0.100895
0.0958524
0.091491
0.0876608
0.0842365
0.081081
0.0782089
0.075616
0.0733157
0.0712905
0.0695829
0.0681706
0.0669868
0.0659317
0.0649129
0.0639644
0.0630697
0.0622199
0.0614108
0.0606387
0.0599
0.0591899
0.0585086
0.0578555
0.0572266
0.0566202
0.0560353
0.123119
0.11407
0.106844
0.100884
0.0958336
0.0914586
0.0876047
0.0841563
0.0809561
0.0780262
0.0753683
0.0730009
0.0709276
0.0691911
0.0677803
0.0666153
0.0655868
0.0646039
0.0636843
0.0628151
0.0619884
0.0612002
0.0604467
0.0597243
0.0590296
0.058363
0.0577221
0.0571037
0.0565063
0.0559289
0.123122
0.114065
0.106834
0.100864
0.0957976
0.0913931
0.0874831
0.0839845
0.0806882
0.0776341
0.074836
0.0723303
0.0701537
0.0683595
0.0669587
0.0658451
0.0648629
0.0639577
0.0631051
0.0622939
0.0615191
0.0607781
0.0600671
0.0593849
0.0587279
0.058097
0.0574881
0.0568988
0.0563275
0.055773
0.123126
0.114059
0.106819
0.100836
0.0957469
0.0913023
0.0873234
0.0837296
0.0802804
0.0770226
0.0739365
0.0711974
0.0687872
0.066884
0.0654935
0.0644664
0.0635823
0.0628031
0.0620639
0.0613525
0.0606638
0.0599986
0.0593545
0.0587312
0.0581246
0.057534
0.0569565
0.0563867
0.0558225
0.0552562
0.123124
0.11406
0.106803
0.100802
0.0956845
0.0911879
0.0871203
0.0833885
0.0797194
0.0761014
0.0583072
0.056178
0.0646373
0.0646747
0.0632544
0.062321
0.0615493
0.0609045
0.0603135
0.0597619
0.0592311
0.0587097
0.0581978
0.0576983
0.0572079
0.056724
0.0562437
0.0557647
0.0552843
0.0547982
0.123122
0.114059
0.106793
0.100766
0.0956148
0.0910591
0.0868839
0.082968
0.0789698
0.0562117
0.0375598
0.0407922
0.0418701
0.0491101
0.0587459
0.0578841
0.0571897
0.0565776
0.0560051
0.0554707
0.0549671
0.0544985
0.0540579
0.0536334
0.0532095
0.0527753
0.0523199
0.0518363
0.0513194
0.0507632
0.12312
0.114052
0.106784
0.100739
0.0955459
0.0909286
0.0866335
0.0824683
0.0673437
0.0367138
0.0231199
0.0219816
0.0270231
0.0281842
0.0355175
0.046162
0.0455452
0.0451032
0.0447937
0.0445817
0.0444411
0.044364
0.0443256
0.0442995
0.0442591
0.0441869
0.0440621
0.0438588
0.0435644
0.0431224
0.123119
0.114045
0.106769
0.100717
0.0954933
0.0908184
0.0864007
0.0819368
0.0472747
0.0230699
0.0165418
0.0121674
0.013661
0.0104488
0.0177972
0.0178089
0.0178595
0.0179202
0.0179983
0.0181
0.0182308
0.0184002
0.0186165
0.0188876
0.0192195
0.0196152
0.0200702
0.0205745
0.0211087
0.0216878
0.123118
0.114039
0.106757
0.100693
0.0954538
0.0907316
0.0862195
0.0787591
0.0354951
0.0141288
0.00792676
0.00475094
0.00725071
0.0101181
0.0140802
0.0152023
0.0163612
0.0174802
0.0185593
0.0196237
0.020694
0.0217815
0.0228936
0.0240258
0.0251717
0.0263325
0.0275148
0.0287274
0.0299718
0.0312546
0.123111
0.114027
0.106738
0.100666
0.0954134
0.090665
0.0861035
0.0698211
0.0278356
0.0104225
0.00389826
0.00151804
0.00360264
0.00666046
0.0257946
0.0273943
0.0287675
0.0298617
0.0308259
0.0317608
0.0326949
0.033621
0.034516
0.0353519
0.0361082
0.0367771
0.0373633
0.0378683
0.0383179
0.0386622
0.123105
0.114018
0.106727
0.100655
0.0954026
0.0906759
0.086119
0.0698522
0.0278789
0.0104141
0.00362051
0.0145178
0.027764
0.0304393
0.0321744
0.0333479
0.0343054
0.0352192
0.0361295
0.0370184
0.0378505
0.0385857
0.0391997
0.0396819
0.0400271
0.0402227
0.040302
0.0401761
0.123105
0.114033
0.106742
0.100688
0.0954491
0.0907505
0.0862462
0.078845
0.0355867
0.0141169
0.00497895
0.00181794
0.00711783
0.0165015
0.0261688
0.0273539
0.0285255
0.0298109
0.0313503
0.0332517
0.035457
0.0375403
0.0378777
0.0385571
0.0394541
0.0405338
0.0416418
0.0427996
0.0432843
0.0449438
0.123103
0.114048
0.106768
0.100727
0.0955052
0.0908358
0.0864289
0.0819898
0.0473477
0.0231406
0.0113975
0.00836076
0.0141125
0.0109138
0.0160401
0.0162083
0.0167275
0.017497
0.0178729
0.0178499
0.017654
0.0174267
0.0173968
0.0175758
0.0179074
0.0182907
0.0187268
0.0192321
0.0197122
0.0202433
0.123111
0.114054
0.10679
0.100748
0.0955595
0.0909499
0.0866694
0.0825331
0.0674987
0.0370428
0.0234065
0.0230215
0.0335498
0.0373779
0.0433967
0.0510439
0.0497367
0.0482683
0.0467066
0.045074
0.0433989
0.0417298
0.0401054
0.038545
0.0370405
0.0356074
0.0333307
0.0289346
0.0259076
0.0216465
0.123122
0.114063
0.1068
0.100776
0.0956314
0.0910849
0.0869257
0.0830391
0.0790997
0.05682
0.0382361
0.0431677
0.047684
0.059237
0.0617343
0.0608652
0.0599498
0.0588347
0.0575329
0.0561394
0.0546942
0.0532245
0.0517567
0.0503137
0.0489041
0.0475392
0.0462191
0.0449581
0.0437457
0.0426052
0.123126
0.114064
0.10681
0.100814
0.0957033
0.0912164
0.0871648
0.0834607
0.0798399
0.0763114
0.0597901
0.0586605
0.0679449
0.0660875
0.0648282
0.0638342
0.0628507
0.0618352
0.0607242
0.0595721
0.0583916
0.0572053
0.0560285
0.054873
0.0537452
0.0526518
0.0515946
0.0505783
0.0495997
0.0486613
0.123128
0.114064
0.106827
0.10085
0.0957671
0.0913326
0.0873692
0.0838007
0.080392
0.0771994
0.0742215
0.0716448
0.06946
0.0677378
0.0664275
0.0653257
0.0642792
0.0632543
0.0622432
0.0612085
0.060159
0.0591099
0.0580717
0.0570572
0.0560716
0.0551203
0.0542051
0.0533291
0.0524893
0.0516868
0.123124
0.11407
0.106843
0.100878
0.0958191
0.0914246
0.0875297
0.0840541
0.080792
0.0777884
0.0750617
0.0726514
0.070593
0.0688999
0.0675396
0.0663527
0.0652457
0.0641733
0.0631479
0.0621449
0.0611457
0.0601602
0.0591954
0.0582592
0.0573543
0.0564844
0.0556491
0.0548491
0.054083
0.0533512
0.123121
0.114076
0.106854
0.100899
0.095856
0.0914911
0.0876519
0.0842249
0.0810547
0.0781658
0.0755611
0.0732579
0.0712552
0.0695759
0.0681827
0.06695
0.0658135
0.0647074
0.0636665
0.0626725
0.0617091
0.0607661
0.0598477
0.0589563
0.0580944
0.0572653
0.0564688
0.0557045
0.0549719
0.0542715
0.123122
0.114079
0.106861
0.10091
0.095875
0.0915237
0.0877077
0.0843037
0.0811757
0.0783393
0.0757898
0.073538
0.0715608
0.0698877
0.0684775
0.0672255
0.0660699
0.0649492
0.0638989
0.0629006
0.0619428
0.0610098
0.0601042
0.0592272
0.0583802
0.057567
0.0567886
0.0560435
0.0553311
0.0546524
0.13447
0.133881
0.133114
0.1322
0.131161
0.130019
0.128813
0.127454
0.126055
0.124627
0.123187
0.121754
0.120295
0.118925
0.117687
0.116574
0.11551
0.114446
0.11341
0.112396
0.1114
0.110421
0.109461
0.108518
0.107588
0.106679
0.105786
0.104909
0.104049
0.103209
0.134469
0.133881
0.133114
0.132198
0.131157
0.130011
0.128794
0.12742
0.12601
0.124559
0.123097
0.121654
0.120137
0.118741
0.117494
0.116381
0.11533
0.114276
0.113253
0.11225
0.111264
0.110295
0.109343
0.108406
0.107486
0.106583
0.105696
0.104825
0.10397
0.103134
0.13447
0.133881
0.133112
0.132195
0.13115
0.129993
0.128747
0.12737
0.12593
0.124435
0.122923
0.121435
0.119841
0.118396
0.117135
0.116032
0.115012
0.11398
0.112973
0.111985
0.111014
0.11006
0.109121
0.108198
0.107294
0.106404
0.10553
0.104671
0.103826
0.102998
0.13447
0.13388
0.133111
0.13219
0.13114
0.129971
0.128694
0.127295
0.125806
0.124252
0.0948741
0.0915335
0.111153
0.117739
0.116452
0.115374
0.114382
0.113382
0.112401
0.111435
0.110483
0.109548
0.108622
0.107716
0.106821
0.10594
0.105071
0.104213
0.103363
0.102524
0.13447
0.133881
0.133109
0.132185
0.131128
0.129944
0.128636
0.127201
0.125653
0.0911141
0.0645013
0.0622744
0.073816
0.0938939
0.114532
0.113544
0.112621
0.111678
0.110743
0.109819
0.108908
0.108007
0.10712
0.106248
0.105386
0.104533
0.103688
0.102846
0.102007
0.10117
0.13447
0.133881
0.133108
0.13218
0.131114
0.129916
0.128577
0.127098
0.103557
0.0619954
0.0409311
0.0443512
0.0486462
0.059546
0.0783366
0.106807
0.106606
0.105693
0.104763
0.103831
0.10289
0.101953
0.101022
0.100103
0.0991795
0.0982465
0.0972964
0.0963249
0.0953272
0.0943021
0.13447
0.13388
0.133108
0.132177
0.131101
0.129887
0.12852
0.127003
0.0738409
0.0399876
0.0247593
0.0238869
0.0307549
0.0332909
0.0431599
0.063681
0.0857045
0.0842765
0.0829221
0.0816365
0.0804139
0.0792218
0.0780668
0.0769448
0.0758494
0.0747758
0.0737169
0.0726655
0.0716152
0.0705606
0.13447
0.13388
0.133107
0.132175
0.131094
0.129867
0.128474
0.104838
0.0516219
0.024709
0.0175449
0.0120626
0.0191028
0.017542
0.0181298
0.0243256
0.0287469
0.028379
0.0280951
0.0278531
0.0276302
0.0274227
0.0272162
0.0270064
0.0267931
0.0265793
0.0263696
0.0261737
0.0259957
0.025849
0.13447
0.13388
0.133105
0.132172
0.13109
0.129855
0.128451
0.0853021
0.0381001
0.0149538
0.00763449
0.00413457
0.0111009
0.0109958
0.0180959
0.0184844
0.0187339
0.0189049
0.0190393
0.019164
0.0192967
0.0194516
0.0196379
0.0198645
0.0201403
0.0204747
0.0208781
0.0213583
0.0219234
0.022576
0.134469
0.133879
0.133104
0.132169
0.131084
0.129845
0.128444
0.0753046
0.0297519
0.0106563
0.00361972
0.00138258
0.0254383
0.0159771
0.0241563
0.0247222
0.0250981
0.025304
0.02543
0.0255328
0.0256399
0.0257618
0.0258987
0.0260462
0.0262001
0.0263576
0.0265187
0.0266815
0.0268509
0.0270136
0.134469
0.133879
0.133104
0.132167
0.131082
0.129842
0.128443
0.0753595
0.0297895
0.0106615
0.00337086
0.0126518
0.0240808
0.0249915
0.0255192
0.0257962
0.0259541
0.0260766
0.0261995
0.026338
0.0264895
0.0266447
0.0267924
0.0269235
0.0270324
0.0271138
0.0271759
0.0271893
0.134469
0.133879
0.133104
0.132171
0.131087
0.129852
0.128452
0.0854108
0.0381795
0.0149757
0.0047686
0.00178967
0.0254473
0.0163046
0.0185054
0.0187639
0.0191137
0.0195762
0.0201626
0.020898
0.0217669
0.0227507
0.0237713
0.0247781
0.0257115
0.0265207
0.027186
0.0277382
0.0282282
0.0285969
0.134469
0.13388
0.133105
0.132176
0.131094
0.12987
0.12848
0.105036
0.0517097
0.0247798
0.011416
0.00802136
0.0137368
0.0122455
0.0213423
0.0279592
0.0279834
0.0268828
0.0259168
0.0250822
0.0243965
0.0238542
0.0234759
0.0232531
0.023181
0.0232486
0.0234443
0.0237571
0.0241677
0.0247004
0.134469
0.133881
0.133109
0.132178
0.131104
0.129892
0.12853
0.127025
0.0740065
0.0403215
0.0250143
0.0247602
0.0342973
0.0393409
0.0480305
0.0654666
0.0890888
0.0865447
0.083857
0.0811321
0.078421
0.075752
0.0731813
0.070661
0.0681233
0.0655366
0.0629124
0.0602971
0.0577443
0.0553317
0.13447
0.133881
0.133109
0.132181
0.131118
0.129922
0.128589
0.127122
0.104369
0.0626257
0.0416634
0.0462273
0.0523668
0.0654574
0.077987
0.0970896
0.108639
0.107266
0.105723
0.103996
0.10213
0.100175
0.0981583
0.0961177
0.0940633
0.0920053
0.0899385
0.0879038
0.0859082
0.083998
0.13447
0.133881
0.13311
0.132187
0.131132
0.129952
0.128649
0.127225
0.125699
0.0925413
0.0660038
0.0645498
0.0780022
0.0995842
0.115545
0.114576
0.113406
0.112176
0.110896
0.109533
0.108115
0.106655
0.105168
0.103678
0.102189
0.100721
0.0992637
0.0978199
0.0964043
0.0950245
0.13447
0.133881
0.133112
0.132193
0.131144
0.129978
0.128707
0.127319
0.125848
0.124325
0.0976044
0.0957584
0.118086
0.118244
0.117021
0.115876
0.114731
0.113554
0.112367
0.111152
0.109896
0.108615
0.10731
0.106006
0.104709
0.103429
0.102177
0.100946
0.0997419
0.0985707
0.13447
0.133881
0.133114
0.132197
0.131154
0.130001
0.12876
0.127394
0.125969
0.124498
0.123021
0.121583
0.120062
0.118688
0.117463
0.116311
0.115183
0.114028
0.112881
0.111732
0.11056
0.109377
0.108191
0.107009
0.105837
0.10469
0.103566
0.102467
0.101397
0.100352
0.13447
0.133882
0.133115
0.1322
0.131162
0.130019
0.128808
0.127444
0.126047
0.124617
0.12318
0.12177
0.120297
0.118943
0.117715
0.116556
0.115424
0.11428
0.113145
0.112022
0.110898
0.10977
0.108646
0.107526
0.106415
0.105325
0.104259
0.103215
0.102196
0.101206
0.13447
0.133882
0.133115
0.132202
0.131165
0.130027
0.128826
0.127476
0.12609
0.124679
0.12326
0.12185
0.12042
0.119076
0.117846
0.116683
0.11555
0.114405
0.113274
0.112158
0.111048
0.109938
0.108833
0.107738
0.106651
0.105583
0.104543
0.103527
0.102535
0.101577
0.134739
0.134633
0.134511
0.134371
0.13421
0.134028
0.133823
0.133591
0.13335
0.133104
0.132848
0.132555
0.1322
0.131813
0.131437
0.131076
0.130709
0.130329
0.129932
0.129524
0.129105
0.128676
0.128237
0.127791
0.127337
0.126874
0.126408
0.125935
0.125458
0.124982
0.134739
0.134633
0.134511
0.134371
0.13421
0.134028
0.133823
0.133592
0.133355
0.133117
0.132878
0.132614
0.132256
0.131876
0.131503
0.131146
0.130782
0.130403
0.130006
0.129598
0.129178
0.128748
0.128309
0.127862
0.127405
0.126942
0.126474
0.126
0.125521
0.125043
0.134739
0.134633
0.134511
0.134371
0.13421
0.134027
0.133826
0.133595
0.133369
0.133156
0.132958
0.132753
0.132398
0.132032
0.131671
0.131322
0.130959
0.130578
0.130178
0.129765
0.129341
0.128906
0.128462
0.128009
0.127546
0.127079
0.126605
0.126125
0.125641
0.125156
0.134739
0.134633
0.134511
0.134371
0.13421
0.134028
0.133826
0.133606
0.133403
0.133241
0.108626
0.105059
0.127119
0.132174
0.131833
0.131497
0.131132
0.13074
0.130329
0.129902
0.129462
0.129011
0.128551
0.128081
0.127602
0.127116
0.126624
0.126124
0.125618
0.125109
0.134739
0.134633
0.134511
0.134371
0.134211
0.134029
0.13383
0.133628
0.13347
0.103692
0.0751796
0.0719522
0.0860426
0.109694
0.131173
0.130874
0.130517
0.130115
0.129689
0.129244
0.128782
0.128306
0.127816
0.127314
0.126803
0.126281
0.125749
0.125207
0.124654
0.124095
0.134739
0.134633
0.134511
0.134371
0.134211
0.134031
0.13384
0.13367
0.117081
0.0719291
0.0491853
0.049899
0.0569818
0.0717065
0.091636
0.120318
0.12701
0.126539
0.126014
0.12545
0.124853
0.124227
0.123571
0.122897
0.122203
0.121492
0.120764
0.120015
0.119243
0.118449
0.134739
0.134633
0.134511
0.134372
0.134212
0.134035
0.133858
0.13374
0.084752
0.0481431
0.0303204
0.0296893
0.0362015
0.0442402
0.0552361
0.0728197
0.0973774
0.111607
0.110226
0.108825
0.107428
0.106047
0.104708
0.103424
0.102202
0.101038
0.0999168
0.0987993
0.0976691
0.0965228
0.134739
0.134633
0.134512
0.134372
0.134213
0.134041
0.133882
0.11894
0.0615201
0.0303482
0.0202526
0.0138178
0.0219967
0.0259217
0.0278266
0.0406799
0.058414
0.0567624
0.0553829
0.0541893
0.0531389
0.0522287
0.0514328
0.0507475
0.0501359
0.0495729
0.04901
0.0483904
0.0476977
0.0469124
0.134739
0.134633
0.134512
0.134373
0.134216
0.134046
0.133909
0.0978881
0.0461595
0.0196098
0.00951683
0.00494693
0.0120171
0.0138916
0.0147543
0.0154233
0.0160039
0.0165
0.0169374
0.0173268
0.0176869
0.018022
0.0183358
0.018627
0.0189039
0.0191709
0.0194344
0.0197024
0.0199812
0.0202716
0.134739
0.134633
0.134512
0.134374
0.134217
0.134051
0.13393
0.0874074
0.0376192
0.0142835
0.00489505
0.00247718
0.0166102
0.0201927
0.0256768
0.0257457
0.0257546
0.0256992
0.0256098
0.0255086
0.0253944
0.0252673
0.0251294
0.0249779
0.0248138
0.0246403
0.024462
0.0242832
0.0241101
0.0239408
0.134739
0.134633
0.134512
0.134373
0.134216
0.134051
0.13393
0.087447
0.0376546
0.0142938
0.0044666
0.00166064
0.0337852
0.0381566
0.02659
0.0263774
0.0260987
0.0257708
0.0254265
0.0250861
0.0247573
0.0244459
0.0241524
0.0238763
0.0236214
0.023388
0.0231781
0.0229928
0.0228355
0.0227009
0.134739
0.134633
0.134512
0.134372
0.134214
0.134046
0.133909
0.0979403
0.0462367
0.0196353
0.00658842
0.00223187
0.0187984
0.0214257
0.0146963
0.0151981
0.0156161
0.0159479
0.0162212
0.0164618
0.0166875
0.0169153
0.0171569
0.0174224
0.0177117
0.0180314
0.0183785
0.0187536
0.0191586
0.0195817
0.134739
0.134633
0.134511
0.134372
0.134214
0.134041
0.133882
0.119157
0.0615509
0.0304468
0.0139755
0.00965139
0.0159113
0.0180075
0.0287847
0.0399912
0.0550598
0.0545828
0.0523973
0.0501186
0.0478615
0.0457478
0.0438125
0.0420668
0.0405178
0.0391588
0.0379882
0.0369989
0.0361704
0.0355324
0.134739
0.134633
0.134511
0.134372
0.134212
0.134035
0.133859
0.133741
0.0848998
0.0484358
0.0305609
0.0303122
0.0380626
0.0486646
0.0592677
0.078321
0.113805
0.111964
0.109985
0.107855
0.105639
0.103387
0.101138
0.098908
0.0966944
0.094489
0.0922966
0.0901228
0.0879837
0.0859063
0.134739
0.134633
0.134511
0.134371
0.134211
0.134032
0.133841
0.133671
0.117804
0.0725419
0.0499214
0.0511496
0.0592838
0.0754746
0.0912851
0.113789
0.127602
0.126968
0.126231
0.125372
0.124407
0.123352
0.12222
0.121028
0.119788
0.118511
0.1172
0.115868
0.114524
0.113193
0.134739
0.134633
0.134511
0.134371
0.134211
0.134029
0.133831
0.13363
0.133473
0.105038
0.076657
0.0738956
0.0887633
0.112307
0.131472
0.131132
0.130704
0.130209
0.12967
0.129085
0.128446
0.127763
0.127042
0.126286
0.125502
0.124698
0.123876
0.123038
0.122187
0.121334
0.134739
0.134633
0.134511
0.134371
0.134211
0.134028
0.133828
0.133608
0.133406
0.133244
0.111265
0.108859
0.132359
0.132266
0.131942
0.131577
0.131169
0.130719
0.130238
0.129729
0.129181
0.1286
0.127992
0.127359
0.126704
0.126034
0.125355
0.124668
0.123973
0.12328
0.134739
0.134633
0.134511
0.134371
0.134211
0.134028
0.133827
0.133597
0.133373
0.13316
0.132961
0.132754
0.132408
0.132058
0.131708
0.131343
0.130951
0.13053
0.130081
0.129611
0.129114
0.128592
0.128049
0.127487
0.126911
0.12632
0.125723
0.125121
0.124515
0.123909
0.134739
0.134633
0.134511
0.134371
0.134211
0.134029
0.133824
0.133595
0.133359
0.133122
0.132881
0.132615
0.13226
0.131888
0.131524
0.131156
0.130769
0.130358
0.129924
0.129472
0.129001
0.128508
0.127996
0.127468
0.126927
0.126374
0.125812
0.125246
0.124676
0.124108
0.134739
0.134633
0.134511
0.134371
0.134211
0.134029
0.133824
0.133593
0.133354
0.133108
0.13285
0.132553
0.132199
0.131818
0.131445
0.131075
0.130687
0.13028
0.12985
0.129404
0.12894
0.128457
0.127956
0.127441
0.126914
0.126376
0.12583
0.12528
0.124728
0.12418
0.134745
0.134656
0.134567
0.134477
0.134386
0.134296
0.134207
0.134125
0.134056
0.134005
0.133967
0.133916
0.133826
0.133711
0.133595
0.133482
0.133365
0.133239
0.133105
0.132962
0.132812
0.132656
0.132493
0.132324
0.132149
0.131968
0.131782
0.13159
0.131393
0.131195
0.134745
0.134656
0.134567
0.134477
0.134386
0.134297
0.134209
0.134129
0.134067
0.134028
0.134011
0.133983
0.133913
0.133811
0.133704
0.133598
0.133485
0.133361
0.133229
0.133088
0.132939
0.132782
0.13262
0.13245
0.132275
0.132094
0.131906
0.131713
0.131516
0.131316
0.134745
0.134656
0.134567
0.134477
0.134387
0.134298
0.134213
0.13414
0.134092
0.134085
0.134118
0.134147
0.134121
0.134049
0.133962
0.133868
0.133761
0.133641
0.133509
0.133367
0.133216
0.133058
0.132892
0.13272
0.132541
0.132355
0.132163
0.131966
0.131763
0.131558
0.134745
0.134656
0.134567
0.134477
0.134388
0.134301
0.13422
0.134159
0.134141
0.134194
0.12911
0.125194
0.134432
0.134406
0.134345
0.134263
0.134159
0.134035
0.133897
0.133746
0.133584
0.133415
0.133237
0.133052
0.13286
0.13266
0.132454
0.132242
0.132024
0.131802
0.134745
0.134656
0.134567
0.134478
0.134389
0.134304
0.134232
0.134191
0.134226
0.1229
0.0916508
0.0874851
0.103652
0.128843
0.134321
0.134269
0.134175
0.134052
0.133906
0.133743
0.133566
0.133376
0.133175
0.132965
0.132743
0.132513
0.132274
0.132026
0.13177
0.131509
0.134745
0.134656
0.134567
0.134478
0.134391
0.134309
0.134247
0.134242
0.134361
0.0883677
0.0619148
0.0596008
0.0702661
0.0859069
0.105941
0.132758
0.132702
0.132571
0.132398
0.132191
0.131955
0.131694
0.131409
0.131103
0.130774
0.130426
0.13006
0.129676
0.129273
0.128857
0.134745
0.134656
0.134567
0.134479
0.134393
0.134316
0.13427
0.134316
0.102971
0.060833
0.0395971
0.0439777
0.0476401
0.0580482
0.0715701
0.0857174
0.105486
0.126581
0.126165
0.125639
0.125029
0.124356
0.123631
0.122864
0.122068
0.121253
0.120422
0.119581
0.118731
0.117877
0.134745
0.134656
0.134568
0.13448
0.134395
0.134323
0.134297
0.134411
0.0766805
0.0411292
0.0243395
0.0221546
0.0295063
0.0361609
0.047977
0.0618379
0.0760417
0.0913145
0.101824
0.100045
0.0982676
0.0965239
0.0948177
0.0931891
0.0916506
0.0902093
0.0888532
0.0875591
0.0863176
0.0851297
0.134746
0.134657
0.134568
0.13448
0.134397
0.13433
0.134321
0.118262
0.0598978
0.0287289
0.0162205
0.0113873
0.0159652
0.0203649
0.0291981
0.0412107
0.0498264
0.048746
0.0477576
0.0468647
0.0460433
0.0452451
0.0444938
0.0438157
0.0432302
0.042744
0.0423658
0.0420939
0.0419259
0.0418611
0.134746
0.134657
0.134568
0.134481
0.134398
0.134334
0.134338
0.107239
0.0504461
0.0225546
0.00985284
0.00652616
0.0112913
0.0175282
0.0203296
0.0204005
0.0205156
0.0205753
0.0206069
0.0206278
0.0206458
0.0206784
0.0207451
0.0208377
0.0209531
0.0210956
0.0212654
0.0214626
0.0216892
0.0219442
0.134746
0.134657
0.134568
0.134481
0.134398
0.134334
0.134338
0.107289
0.0504778
0.0225754
0.00929116
0.00629297
0.0158412
0.0155991
0.0202679
0.0204923
0.0207379
0.02092
0.0210685
0.0211949
0.0213183
0.0214443
0.0215853
0.0217387
0.0219102
0.0220988
0.0223089
0.0225403
0.0227943
0.0230661
0.134745
0.134657
0.134568
0.13448
0.134397
0.134329
0.134321
0.118401
0.0599355
0.0287863
0.0123625
0.00799402
0.0129248
0.0177402
0.0296049
0.0409015
0.048294
0.0471919
0.0462054
0.045333
0.0445778
0.043937
0.0434124
0.0429972
0.0426944
0.0424914
0.0423901
0.0423822
0.0424735
0.0426449
0.134745
0.134656
0.134568
0.134479
0.134395
0.134323
0.134296
0.134409
0.0766327
0.0413047
0.0243458
0.0222309
0.0298896
0.03841
0.0533694
0.0724553
0.0932317
0.102761
0.10058
0.0983742
0.0960429
0.0934061
0.090641
0.0878807
0.0851944
0.0826279
0.0802188
0.0780033
0.0759847
0.0742213
0.134745
0.134656
0.134567
0.134479
0.134393
0.134316
0.134269
0.134314
0.103289
0.0610378
0.0399313
0.0443035
0.0489267
0.0610979
0.074669
0.0883787
0.110821
0.126721
0.126124
0.125398
0.124539
0.123555
0.122478
0.121329
0.120126
0.118878
0.117598
0.1163
0.114992
0.1137
0.134745
0.134656
0.134567
0.134478
0.134391
0.134309
0.134247
0.13424
0.134357
0.0891077
0.0626485
0.0603529
0.0717121
0.0885004
0.107017
0.132597
0.132876
0.132689
0.132447
0.13216
0.131824
0.13144
0.131013
0.130546
0.130043
0.129506
0.128941
0.12835
0.127735
0.127111
0.134745
0.134656
0.134567
0.134478
0.134389
0.134304
0.134231
0.13419
0.134223
0.124322
0.0932496
0.089369
0.105727
0.129868
0.134391
0.134327
0.134209
0.134053
0.13387
0.133666
0.133442
0.133198
0.132937
0.132658
0.132365
0.132056
0.131734
0.131399
0.131051
0.130695
0.134745
0.134656
0.134567
0.134477
0.134388
0.1343
0.13422
0.134158
0.134139
0.134188
0.131848
0.128842
0.134424
0.134397
0.134336
0.134247
0.13413
0.133987
0.133827
0.133652
0.133463
0.13326
0.133045
0.132817
0.132578
0.132329
0.13207
0.131803
0.131527
0.131247
0.134745
0.134656
0.134567
0.134477
0.134387
0.134298
0.134213
0.13414
0.134091
0.13408
0.134107
0.134127
0.134094
0.134021
0.133936
0.133838
0.133723
0.133591
0.133444
0.133286
0.133117
0.132936
0.132745
0.132545
0.132334
0.132116
0.131889
0.131655
0.131414
0.13117
0.134745
0.134656
0.134567
0.134477
0.134386
0.134297
0.134209
0.134129
0.134066
0.134025
0.134002
0.133966
0.13389
0.133787
0.133681
0.133573
0.133454
0.133322
0.133178
0.133024
0.132861
0.132689
0.132506
0.132316
0.132116
0.131909
0.131694
0.131473
0.131245
0.131016
0.134745
0.134656
0.134566
0.134476
0.134386
0.134296
0.134207
0.134125
0.134055
0.134002
0.133959
0.1339
0.133805
0.133688
0.133573
0.133458
0.133336
0.133203
0.133058
0.132905
0.132743
0.132571
0.132392
0.132204
0.132008
0.131804
0.131594
0.131378
0.131156
0.130932
0.134746
0.134657
0.134569
0.134481
0.134395
0.13431
0.13423
0.134158
0.1341
0.134059
0.134031
0.133998
0.133942
0.13387
0.133797
0.133726
0.133654
0.133578
0.133498
0.133414
0.133328
0.133238
0.133147
0.133054
0.132959
0.132862
0.132763
0.132662
0.13256
0.132459
0.134746
0.134657
0.134569
0.134481
0.134395
0.134311
0.134232
0.134162
0.134109
0.134078
0.134065
0.13405
0.13401
0.133949
0.133884
0.13382
0.133752
0.133679
0.133601
0.13352
0.133435
0.133347
0.133257
0.133165
0.133071
0.132975
0.132877
0.132776
0.132675
0.132574
0.134746
0.134657
0.134569
0.134481
0.134395
0.134312
0.134235
0.134171
0.13413
0.134122
0.134148
0.134177
0.134174
0.134141
0.134094
0.134041
0.133981
0.133913
0.133839
0.13376