/*--------------------------------*- C++ -*----------------------------------*\
| =========                 |                                                 |
| \\      /  F ield         | OpenFOAM: The Open Source CFD Toolbox           |
|  \\    /   O peration     | Version:  2512                                  |
|   \\  /    A nd           | Website:  www.openfoam.com                      |
|    \\/     M anipulation  |                                                 |
\*---------------------------------------------------------------------------*/
FoamFile
{
    version     2.0;
    format      ascii;
    arch        "LSB;label=32;scalar=64";
    class       volScalarField;
    location    "260";
    object      omega;
}
// * * * * * * * * * * * * * * * * * * * * * * * * * * * * * * * * * * * * * //

dimensions      [0 0 -1 0 0 0 0];

internalField   nonuniform List<scalar> 
90398
(
16.0849
15.8156
15.557
15.31
15.0735
14.8487
14.6391
14.4207
14.2254
14.0351
13.8558
13.6909
13.5273
13.3646
13.2111
13.0616
12.9168
12.7772
12.642
12.5113
12.3854
12.2643
12.1483
12.0375
11.9323
11.8335
11.7411
11.6577
11.5796
11.519
16.0849
15.8157
15.5575
15.3107
15.0748
14.8501
14.6397
14.4225
14.2274
14.0365
13.86
13.696
13.5328
13.3702
13.2166
13.0667
12.9215
12.7817
12.6462
12.5152
12.3891
12.2678
12.1517
12.0408
11.9356
11.837
11.7448
11.6621
11.5848
11.5289
16.0849
15.8158
15.558
15.3117
15.0756
14.8507
14.6376
14.4255
14.2319
14.0422
13.8673
13.7053
13.5435
13.381
13.2273
13.0771
12.9319
12.792
12.656
12.525
12.399
12.2781
12.1625
12.0524
11.948
11.8504
11.7594
11.6783
11.6035
11.57
16.085
15.8159
15.5587
15.3121
15.0758
14.8505
14.6388
14.4327
14.2363
14.0488
13.8781
13.7182
13.5593
13.3986
13.245
13.0943
12.9487
12.8088
12.6726
12.5413
12.4155
12.2952
12.1805
12.0717
11.969
11.8734
11.7847
11.7069
11.6405
11.6974
16.085
15.816
15.5593
15.3123
15.0752
14.8483
14.6378
14.4359
14.2407
14.0565
13.8902
13.7091
13.5563
13.4241
13.2708
13.1197
12.9744
12.8356
12.7007
12.5713
12.4477
12.3299
12.2182
12.1128
12.014
11.9228
11.8392
11.7684
11.7276
12.0627
16.0851
15.8161
15.5594
15.3133
15.0766
14.845
14.6224
14.4349
14.2444
14.0433
13.9049
13.7725
13.6248
13.4697
13.3138
13.1594
13.012
12.872
12.7365
12.6075
12.4858
12.3715
12.2644
12.1646
12.0724
11.9883
11.9131
11.8539
11.8655
12.7105
16.0851
15.8161
15.5588
15.3126
15.0773
14.8457
14.6216
14.434
14.2442
14.0964
14.1435
14.143
14.0029
13.7845
13.597
13.4198
13.2584
13.0968
12.9426
12.7978
12.662
12.5366
12.4233
12.3218
12.2324
12.1555
12.092
12.051
12.1245
13.3446
16.0851
15.8157
15.5557
15.3051
15.0724
14.85
14.6257
14.4254
14.254
28.168
28.9008
32.7287
32.2367
30.3098
17.3748
16.9759
16.5333
16.0326
15.5465
15.0922
14.6879
14.349
14.0674
13.8373
13.6539
13.5138
13.4144
13.3612
13.4219
14.2253
16.0851
15.8157
15.555
15.3007
15.0643
14.8478
14.6345
14.4364
28.5119
27.901
48.9822
80.156
80.8672
71.5114
35.0616
32.7347
30.7267
28.745
26.9049
25.2803
23.9087
22.7663
21.8446
21.1212
20.5693
20.1631
19.876
19.691
19.6145
19.9133
16.0851
15.8161
15.5579
15.3059
15.0657
14.8482
14.6425
14.4454
28.5249
56.0327
197.531
286.454
254.965
215.581
48.7304
44.9537
41.7601
38.9104
36.4085
34.1834
32.1767
30.3947
28.8311
27.4733
26.3047
25.3057
24.4547
23.7372
23.1531
23.052
16.0851
15.8162
15.558
15.306
15.0658
14.8482
14.6425
14.4447
28.5269
56.1329
301.082
301.006
235.065
47.128
45.3426
43.6041
41.9114
40.224
38.4826
36.7058
34.9698
33.3255
31.8045
30.4236
29.1913
28.1104
27.1959
26.5993
27.6149
16.0851
15.8158
15.5553
15.301
15.0646
14.848
14.6343
14.4359
28.5107
27.9865
79.1871
79.2312
64.2559
70.6469
24.8977
25.4661
25.9917
26.5924
27.2725
28.0003
28.6674
29.1814
29.4812
29.5687
29.467
29.2144
28.8554
28.4372
28.268
30.439
16.0852
15.8159
15.556
15.3056
15.0729
14.8505
14.6257
14.4269
14.2523
28.1377
27.6591
27.1224
26.621
26.1745
13.6862
13.6209
13.5951
13.6425
13.8106
14.1554
14.7
15.4359
16.3411
17.3227
18.3035
19.2253
20.0389
20.7161
22.0272
29.4088
16.0851
15.8163
15.5591
15.3131
15.0779
14.8462
14.6219
14.4333
14.2446
14.0845
13.9372
13.7873
13.6581
13.5103
13.3858
13.2548
13.1228
12.9938
12.8705
12.7617
12.6785
12.6341
12.6404
12.7074
12.8367
13.0101
13.1964
13.5327
18.2005
33.9965
16.0852
15.8163
15.5597
15.3138
15.0772
14.8457
14.623
14.4349
14.2444
14.0431
13.8864
13.7447
13.6034
13.465
13.3245
13.1789
13.0306
12.8834
12.7349
12.5885
12.4474
12.3133
12.1873
12.0705
11.9627
11.8623
11.7747
12.0686
18.4694
35.9979
16.0851
15.8161
15.5596
15.3128
15.0758
14.8491
14.6385
14.4364
14.2402
14.0551
13.8871
13.7015
13.5491
13.4216
13.273
13.1231
12.9741
12.829
12.6849
12.5433
12.4046
12.269
12.1369
12.0087
11.8851
11.7671
11.6655
11.8885
17.4458
33.8408
16.085
15.816
15.559
15.3125
15.0764
14.8513
14.6397
14.4337
14.2371
14.0485
13.8755
13.7132
13.5535
13.3944
13.2423
13.0912
12.9423
12.7974
12.6543
12.514
12.3768
12.243
12.113
11.987
11.8662
11.7517
11.6515
11.7576
15.7855
29.7969
16.085
15.8159
15.5582
15.312
15.0761
14.8515
14.6388
14.4271
14.2339
14.044
13.8683
13.7048
13.5419
13.3793
13.2253
13.0735
12.9248
12.7801
12.6378
12.4987
12.3631
12.231
12.1028
11.9789
11.8604
11.7484
11.6481
11.6529
14.0136
24.733
16.085
15.8158
15.5576
15.311
15.0753
14.8511
14.6413
14.4249
14.2306
14.0402
13.8636
13.6986
13.5339
13.3701
13.2152
13.0632
12.9144
12.77
12.6286
12.4904
12.3558
12.2248
12.0979
11.9755
11.8585
11.7482
11.6484
11.5938
12.6089
19.4816
16.0849
15.8156
15.5571
15.3103
15.0742
14.8501
14.6414
14.4241
14.23
14.0405
13.8614
13.6956
13.5303
13.3659
13.2106
13.0584
12.9097
12.7652
12.6238
12.4856
12.3512
12.2205
12.0939
11.9718
11.8553
11.7454
11.6456
11.5659
11.8778
15.5604
1.93948
2.0812
2.20793
2.32262
2.42743
2.52387
2.61626
2.70253
2.78549
2.86424
2.93764
3.00101
3.05347
3.09495
3.12862
3.15723
3.18304
3.20559
3.22511
3.24253
3.25803
3.2717
3.28362
3.29385
3.30253
3.30956
3.31523
3.3186
3.32241
3.32122
1.93949
2.08122
2.20803
2.3228
2.42755
2.5246
2.61851
2.70647
2.79208
2.87419
2.95203
3.01884
3.07292
3.11466
3.14789
3.17613
3.20197
3.22393
3.24275
3.25911
3.27356
3.2863
3.29738
3.30683
3.31477
3.32099
3.32585
3.3283
3.33122
3.32793
1.9395
2.08132
2.20822
2.32323
2.42803
2.52627
2.6229
2.71454
2.80592
2.89677
2.98515
3.0603
3.11783
3.15964
3.19156
3.21853
3.24392
3.26403
3.28076
3.29484
3.30686
3.31732
3.32625
3.33364
3.3396
3.34384
3.34678
3.34718
3.34798
3.34033
1.93952
2.08145
2.20851
2.32389
2.42914
2.52884
2.62931
2.72715
2.82877
2.93831
3.05025
3.13897
3.20472
3.24665
3.27643
3.30137
3.32506
3.3425
3.35606
3.36654
3.37451
3.38008
3.38454
3.38779
3.38977
3.39028
3.38964
3.38635
3.38284
3.37431
1.93954
2.08159
2.20892
2.32476
2.43036
2.53081
2.63674
2.74467
2.86571
3.01077
3.16285
3.28588
3.36315
3.40476
3.4315
3.45274
3.47149
3.48167
3.48722
3.49019
3.49107
3.4899
3.48793
3.4848
3.48049
3.47494
3.46842
3.45928
3.44952
3.45821
1.93959
2.08174
2.20928
2.32568
2.43237
2.52981
2.64135
2.76858
2.92243
3.13217
3.40334
3.58544
3.69614
3.74101
3.76614
3.78555
3.80057
3.80143
3.79379
3.78124
3.76564
3.74779
3.73002
3.71306
3.69656
3.68073
3.66609
3.65133
3.6423
3.70603
1.93949
2.08171
2.20867
2.32516
2.43515
2.53369
2.64412
2.80103
3.00754
3.3877
4.07845
4.5107
4.69827
4.74464
4.77765
4.78803
4.78305
4.75453
4.71774
4.67591
4.62874
4.57812
4.52787
4.4801
4.44129
4.4137
4.3999
4.40272
4.42861
4.61007
1.93932
2.08102
2.20496
2.31869
2.43678
2.54432
2.65688
2.83563
3.15973
3.70504
6.42541
9.97219
11.1213
10.975
11.6926
11.3146
10.956
10.571
10.1918
9.84393
9.55726
9.32327
9.14605
9.02346
8.9562
8.94804
8.99758
9.10414
9.21924
9.47852
1.93929
2.08083
2.20471
2.31562
2.43337
2.55418
2.68065
2.88483
3.26128
5.25767
24.1687
43.9146
47.0487
39.2613
60.3253
53.942
49.0299
44.9972
41.6717
38.8916
36.5256
34.5211
32.8277
31.3997
30.1966
29.1794
28.3209
27.5566
26.9152
26.1588
1.93929
2.0813
2.20687
2.31733
2.42866
2.55486
2.69258
2.9118
3.3945
6.37741
101.02
372.433
258.171
190.415
139.682
104.368
84.2907
71.2234
61.9836
55.0236
49.5728
45.2154
41.6856
38.7977
36.4121
34.4122
32.7037
31.1581
29.8394
28.3418
1.93928
2.08126
2.20677
2.31723
2.42825
2.5538
2.68938
2.90089
3.39331
7.75211
624.735
143.343
103.701
81.2957
67.2465
57.7759
50.9589
45.7571
41.6077
38.1826
35.2946
32.842
30.7643
29.0386
27.6451
26.74
26.2448
1.93926
2.08071
2.2046
2.31549
2.43245
2.5514
2.67285
2.86059
3.23025
5.76306
35.6838
117.93
203.239
185.902
54.3566
50.9672
47.5224
44.5125
42.0502
40.0253
38.3625
36.9723
35.829
34.842
33.9284
33.0306
32.1343
31.1688
30.3109
28.6411
1.93928
2.08083
2.20476
2.3179
2.43482
2.53977
2.64567
2.81212
3.05419
3.61528
5.25312
5.77399
5.74078
5.64169
5.60047
6.50906
7.28552
7.99258
8.69284
9.44479
10.2682
11.2036
12.2124
13.2868
14.4258
15.5954
16.6895
17.5374
17.716
16.7874
1.93943
2.08145
2.20801
2.32376
2.43231
2.52794
2.63139
2.76965
2.93348
3.14285
3.31106
3.3659
3.40143
3.41956
3.4483
3.48437
3.52674
3.57716
3.63864
3.71472
3.80852
3.92563
4.06986
4.24422
4.45338
4.70058
4.97774
5.28091
5.9386
7.81104
1.93952
2.08142
2.20849
2.32405
2.42919
2.52365
2.629
2.74237
2.86892
3.00819
3.11596
3.16493
3.20976
3.24436
3.26811
3.2892
3.31112
3.33445
3.3602
3.38986
3.42538
3.46754
3.51818
3.57525
3.63607
3.69758
3.74957
3.81797
4.43634
6.465
1.93946
2.08124
2.20805
2.32298
2.427
2.52461
2.62522
2.72268
2.82279
2.92761
3.01424
3.0628
3.10524
3.13882
3.16757
3.1937
3.21886
3.24345
3.26781
3.29243
3.31772
3.34389
3.37122
3.39941
3.42781
3.45506
3.47706
3.51241
4.02346
5.85894
1.93944
2.08107
2.20759
2.32203
2.42573
2.52281
2.61873
2.70853
2.79579
2.88007
2.95236
3.00157
3.04495
3.08105
3.11291
3.14211
3.16953
3.19581
3.22083
3.24502
3.26864
3.29183
3.31455
3.33643
3.35684
3.37508
3.38826
3.40609
3.76425
5.24497
1.93941
2.08092
2.20726
2.32133
2.42462
2.52042
2.61311
2.6983
2.77929
2.85375
2.91915
2.97019
3.0132
3.05052
3.08411
3.11492
3.14332
3.17059
3.19595
3.2199
3.2426
3.2641
3.28428
3.30291
3.31967
3.33401
3.34396
3.35223
3.5579
4.6006
1.9394
2.08081
2.20704
2.32088
2.42415
2.5189
2.60927
2.69176
2.76914
2.83929
2.90143
2.95183
2.9951
3.03343
3.06814
3.09984
3.12859
3.15664
3.18227
3.20608
3.22828
3.24887
3.26779
3.28486
3.29984
3.31239
3.32088
3.32577
3.41498
4.02352
1.93939
2.08079
2.20694
2.3207
2.42405
2.51827
2.60732
2.68858
2.76431
2.833
2.89373
2.94388
2.98716
3.02599
3.06129
3.09344
3.12269
3.15118
3.1771
3.20106
3.2233
3.24379
3.26245
3.27912
3.29346
3.30531
3.31295
3.31795
3.34969
3.65246
1.77771
1.77825
1.7811
1.78587
1.79235
1.80032
1.80984
1.82094
1.83373
1.84793
1.86287
1.87656
1.88898
1.89959
1.90899
1.91746
1.92532
1.93381
1.94113
1.94797
1.9545
1.96071
1.96659
1.97215
1.97746
1.98239
1.9873
1.99165
1.99733
2.0024
1.77771
1.77826
1.78111
1.78588
1.79242
1.80048
1.81019
1.82167
1.83513
1.85042
1.86677
1.88137
1.89498
1.906
1.91555
1.92419
1.93196
1.94048
1.94778
1.95449
1.96081
1.96683
1.97253
1.97793
1.98302
1.98779
1.99249
1.99657
2.00241
2.01109
1.77771
1.77826
1.78113
1.78591
1.79257
1.80081
1.81092
1.82322
1.83825
1.85613
1.87581
1.89318
1.90884
1.92062
1.93036
1.93915
1.94696
1.95501
1.96205
1.96851
1.97448
1.98011
1.98544
1.99043
1.99506
1.9994
2.00363
2.00726
2.0148
2.04289
1.77771
1.77827
1.78116
1.78597
1.79278
1.8013
1.81208
1.82583
1.84383
1.8668
1.89265
1.91552
1.93533
1.9488
1.95901
1.96805
1.97632
1.98409
1.99088
1.99693
2.00236
2.00716
2.01165
2.01575
2.0196
2.02316
2.02669
2.03007
2.04609
2.12843
1.77771
1.77828
1.78119
1.78606
1.79256
1.80205
1.81379
1.82991
1.85317
1.88427
1.92425
1.9562
1.9847
2.00119
2.01285
2.02265
2.03139
2.03875
2.04482
2.05007
2.05463
2.05851
2.06194
2.06508
2.06805
2.07087
2.07401
2.07941
2.12397
2.29355
1.77771
1.77828
1.78121
1.78616
1.7925
1.80288
1.81592
1.83581
1.86642
1.9212
2.00682
2.06651
2.10829
2.12932
2.14334
2.15588
2.16703
2.17542
2.18144
2.1861
2.18993
2.19312
2.19611
2.19961
2.20454
2.21148
2.22173
2.24267
2.35112
2.65428
1.77771
1.77829
1.78112
1.78606
1.79301
1.80328
1.8187
1.84331
1.89232
2.01342
2.2281
2.39232
2.47945
2.51053
2.53749
2.57156
2.60357
2.63066
2.65396
2.67467
2.69631
2.72018
2.74763
2.78279
2.82825
2.88724
2.96354
3.06263
3.29182
3.83643
1.77771
1.77825
1.78111
1.78603
1.79283
1.80385
1.82204
1.85279
1.94326
2.25739
2.53524
3.33694
3.75352
3.86496
5.36032
5.77339
6.06658
6.26916
6.42475
6.56421
6.71241
6.89671
7.11289
7.35675
7.62661
7.92174
8.23731
8.4722
8.57981
8.84855
1.77771
1.77823
1.78102
1.7863
1.79317
1.80464
1.82458
1.8649
1.94093
2.4481
4.92701
9.37414
32.202
28.3567
53.9639
47.6764
42.8676
38.9558
35.8747
33.457
31.4727
29.822
28.4249
27.2323
26.2058
25.3095
24.4996
23.6309
22.393
20.854
1.77771
1.77828
1.78095
1.78588
1.79312
1.80493
1.82506
1.874
1.98496
2.71044
19.4616
412.084
567.476
323.163
145.041
109.088
87.989
74.2166
64.4644
57.2139
51.5817
47.0835
43.404
40.3308
37.717
35.4538
33.4564
31.52
29.4908
27.1795
1.77771
1.77827
1.78094
1.78585
1.79305
1.80475
1.82458
1.87113
1.99252
2.97224
233.725
259.497
148.611
111.418
89.4936
75.1588
65.133
57.7672
52.1498
47.7796
44.2881
41.4272
39.0265
36.9439
35.034
32.9117
30.2687
26.5194
1.77771
1.77823
1.78099
1.78624
1.79299
1.8041
1.8228
1.85852
1.93783
2.54026
5.21214
323.331
362.327
235.29
53.8442
50.8295
47.6728
44.8194
42.3044
40.0586
38.0816
36.349
34.85
33.4973
32.2497
31.053
29.7851
27.939
24.8032
20.4499
1.77771
1.77824
1.78107
1.78592
1.79254
1.80307
1.81972
1.84651
1.91005
2.07797
2.28976
3.12736
3.3084
3.38681
4.22443
5.2792
6.13612
6.85887
7.53333
8.18352
8.76465
9.28933
9.77034
10.2549
10.7508
11.2316
11.5502
11.4139
10.6883
10.1474
1.77771
1.77827
1.78106
1.78591
1.79264
1.80238
1.81634
1.83773
1.87309
1.93624
2.01618
2.0678
2.09693
2.1131
2.13537
2.17739
2.22685
2.28306
2.34939
2.43264
2.53322
2.64414
2.75776
2.86943
2.97601
3.07914
3.19224
3.50472
4.37589
5.55205
1.77771
1.77826
1.78115
1.78598
1.7921
1.80195
1.81374
1.8304
1.85426
1.88669
1.92272
1.94288
1.96099
1.9757
1.98753
1.99824
2.00824
2.01907
2.03149
2.04622
2.06397
2.08511
2.11021
2.13823
2.16836
2.19947
2.24147
2.46647
3.1142
4.28495
1.77771
1.77826
1.78112
1.78588
1.79215
1.80116
1.81186
1.82562
1.84363
1.86513
1.88678
1.90132
1.91609
1.92874
1.93941
1.94849
1.957
1.96573
1.97486
1.98464
1.99523
2.00683
2.01942
2.03292
2.04706
2.06154
2.08448
2.24853
2.73658
3.73883
1.77771
1.77825
1.78108
1.78578
1.79237
1.80046
1.81039
1.8224
1.83684
1.85319
1.8695
1.88156
1.89298
1.90357
1.91333
1.9224
1.93105
1.93995
1.94889
1.95802
1.96741
1.9771
1.98712
1.99723
2.00734
2.01733
2.03231
2.15077
2.54246
3.36075
1.77771
1.77824
1.78105
1.78572
1.79216
1.80002
1.80941
1.82037
1.8329
1.84647
1.85979
1.87022
1.88057
1.89038
1.89986
1.90898
1.91764
1.92663
1.93548
1.94434
1.95323
1.96215
1.97106
1.97984
1.9883
1.99649
2.00675
2.08186
2.38867
3.02036
1.7777
1.77823
1.78103
1.78569
1.79202
1.79972
1.80879
1.81916
1.83069
1.84287
1.85482
1.86476
1.87448
1.88398
1.89334
1.90245
1.91124
1.92011
1.92892
1.93762
1.94624
1.95476
1.96311
1.97122
1.97894
1.98626
1.9939
2.03283
2.24896
2.69771
1.7777
1.77823
1.78103
1.78569
1.79196
1.79959
1.80852
1.81862
1.82972
1.84132
1.85271
1.86262
1.87198
1.88135
1.89067
1.89978
1.90857
1.91747
1.92629
1.93497
1.94354
1.95195
1.96012
1.96797
1.97542
1.98232
1.98869
2.00562
2.12189
2.4184
1.77422
1.76859
1.76318
1.75804
1.7532
1.74878
1.7448
1.74142
1.73879
1.73695
1.73558
1.73407
1.73216
1.7301
1.72804
1.72599
1.72394
1.72202
1.7202
1.71841
1.71671
1.71511
1.71361
1.71222
1.71099
1.70996
1.70938
1.70894
1.71097
1.71903
1.77422
1.76859
1.76318
1.75804
1.75322
1.7488
1.74487
1.7416
1.7392
1.73774
1.73691
1.73572
1.73433
1.73246
1.73051
1.72853
1.72649
1.72464
1.72285
1.72106
1.71935
1.71774
1.71622
1.71481
1.71357
1.7125
1.71191
1.71165
1.71873
1.77349
1.77422
1.76859
1.76318
1.75804
1.75325
1.74887
1.74505
1.74202
1.74015
1.73967
1.7402
1.73999
1.73975
1.73829
1.73653
1.73466
1.73267
1.731
1.7292
1.72741
1.72566
1.724
1.72243
1.72097
1.71968
1.71854
1.71798
1.71931
1.7559
1.97965
1.77422
1.76859
1.76319
1.75806
1.75329
1.74898
1.74534
1.74278
1.74196
1.74353
1.74682
1.74945
1.75065
1.75006
1.74869
1.74705
1.7452
1.74362
1.74192
1.74019
1.73846
1.73676
1.73515
1.73367
1.73235
1.73124
1.73106
1.741
1.89245
2.31024
1.77422
1.76859
1.76319
1.75808
1.75333
1.74913
1.74579
1.74405
1.74523
1.75059
1.76023
1.76718
1.77256
1.77372
1.77324
1.77214
1.7707
1.76936
1.76783
1.76624
1.7646
1.76296
1.76145
1.76012
1.75905
1.75843
1.76002
1.7988
2.14451
2.6732
1.77422
1.76859
1.76321
1.7581
1.75337
1.74935
1.74647
1.7461
1.75063
1.7663
1.79374
1.81541
1.82729
1.83157
1.83298
1.83357
1.83371
1.83359
1.83303
1.83227
1.83146
1.83075
1.83058
1.8314
1.83361
1.83782
1.84896
1.95773
2.50356
3.08516
1.77422
1.76859
1.76321
1.75812
1.75344
1.74962
1.74741
1.74911
1.76158
1.80414
1.88234
1.95207
1.98652
1.99603
2.00123
2.0091
2.01756
2.02626
2.03509
2.04455
2.05507
2.06734
2.08329
2.10555
2.13552
2.17455
2.22649
2.41107
3.10553
3.82575
1.77422
1.76859
1.7632
1.75814
1.7535
1.7499
1.74856
1.75333
1.78257
1.89195
1.98951
2.31421
2.49584
2.5328
2.76893
2.84859
2.92694
3.003
3.08391
3.17451
3.27824
3.39856
3.54644
3.7232
3.92687
4.14928
4.35336
4.59613
5.22387
6.22724
1.77423
1.7686
1.76321
1.75815
1.7536
1.75017
1.74964
1.75881
1.8104
2.05934
2.37981
4.27345
6.76045
6.2225
10.977
11.1564
11.245
11.2702
11.3801
11.5818
11.8278
12.0918
12.3513
12.5991
12.8265
13.0401
13.1214
12.673
12.1945
11.7743
1.77424
1.76861
1.76323
1.75815
1.75361
1.75019
1.75033
1.76308
1.84009
2.03704
3.66755
187.274
268.449
146.166
68.2808
59.4014
52.8122
47.7067
43.6649
40.4166
37.699
35.3925
33.4331
31.7246
30.2018
28.7941
27.2832
24.6627
21.2361
17.4874
1.77424
1.76861
1.76323
1.75815
1.7536
1.75014
1.75015
1.76187
1.83286
2.06256
3.79512
361.308
562.39
328.743
63.678
56.5303
50.7126
45.9647
42.1227
38.9197
36.1559
33.7362
31.5853
29.6382
27.861
26.1726
24.2624
21.1504
17.7458
14.9291
1.77423
1.7686
1.76321
1.75814
1.75356
1.75003
1.74908
1.75633
1.79733
1.97645
2.45746
75.378
121.031
159.172
13.3415
14.2467
15.2061
16.114
16.986
17.7356
18.3081
18.6719
18.8175
18.7454
18.4676
17.9727
16.832
14.7839
12.3421
10.9405
1.77422
1.76859
1.7632
1.75812
1.75346
1.74972
1.7479
1.75093
1.77128
1.83804
1.94019
2.4198
2.54353
2.54801
2.46144
2.70649
2.97126
3.2478
3.54031
3.85373
4.18633
4.52396
4.85942
5.18512
5.49177
5.72317
5.8041
5.9674
6.49319
7.01065
1.77422
1.76859
1.76321
1.7581
1.75339
1.74944
1.74682
1.74728
1.7548
1.7786
1.81811
1.85112
1.86741
1.87337
1.87792
1.88762
1.90047
1.91796
1.94076
1.96938
2.00397
2.04431
2.08949
2.13867
2.19051
2.24359
2.37355
2.93599
3.93688
5.01964
1.77422
1.76859
1.7632
1.75808
1.75333
1.7492
1.746
1.74468
1.74674
1.75449
1.76623
1.77429
1.77957
1.78229
1.78305
1.78205
1.78047
1.77956
1.77959
1.78081
1.78348
1.78781
1.79404
1.80205
1.81159
1.82617
1.96247
2.59544
3.26211
4.22595
1.77422
1.76859
1.76319
1.75806
1.75329
1.74901
1.74545
1.74307
1.74261
1.7446
1.74789
1.74962
1.75108
1.75148
1.75085
1.74918
1.74711
1.74533
1.74387
1.74284
1.74236
1.74252
1.74337
1.74491
1.74715
1.75333
1.86375
2.44775
3.01995
3.82172
1.77422
1.76859
1.76318
1.75805
1.75325
1.74888
1.74509
1.74212
1.74029
1.73975
1.73985
1.73914
1.73815
1.73698
1.73551
1.73369
1.73174
1.72997
1.72845
1.72718
1.72622
1.72558
1.72529
1.72535
1.72579
1.72858
1.79954
2.30996
2.8804
3.5343
1.77422
1.76859
1.76318
1.75803
1.75322
1.7488
1.74486
1.74156
1.73904
1.73727
1.73582
1.73383
1.73203
1.73012
1.72825
1.72631
1.72438
1.72257
1.721
1.71961
1.71844
1.71749
1.71677
1.71626
1.71602
1.71703
1.75514
2.16121
2.75367
3.26892
1.77422
1.76859
1.76318
1.75803
1.75319
1.74875
1.74473
1.74125
1.73839
1.73605
1.7339
1.73139
1.72896
1.72674
1.72471
1.72273
1.72081
1.719
1.7174
1.71597
1.7147
1.7136
1.71268
1.71192
1.71135
1.71144
1.7277
2.00127
2.58738
2.98847
1.77422
1.76859
1.76318
1.75803
1.75319
1.74873
1.74468
1.74113
1.73812
1.73556
1.73314
1.73052
1.72785
1.72548
1.72336
1.72134
1.71942
1.7176
1.716
1.71454
1.71325
1.71212
1.71113
1.71028
1.7096
1.70933
1.71404
1.82934
2.29773
2.66563
1.77414
1.76829
1.76249
1.75673
1.75105
1.74547
1.74004
1.73484
1.72995
1.72541
1.72104
1.71652
1.71176
1.70697
1.70224
1.69752
1.69283
1.68817
1.6836
1.67911
1.67469
1.67038
1.6662
1.66217
1.65836
1.65481
1.65187
1.64933
1.65329
1.69624
1.77414
1.76829
1.76249
1.75673
1.75105
1.74548
1.74008
1.73493
1.73016
1.72581
1.72171
1.71744
1.71286
1.70817
1.70349
1.6988
1.69413
1.68947
1.68493
1.68044
1.67604
1.67174
1.66756
1.66353
1.65973
1.65619
1.65332
1.65287
1.69732
1.95076
1.77414
1.76829
1.76249
1.75673
1.75106
1.74552
1.74016
1.73514
1.73065
1.7268
1.72341
1.7198
1.71568
1.71124
1.70668
1.70204
1.69741
1.69278
1.68827
1.6838
1.67941
1.67513
1.67097
1.66697
1.66319
1.65968
1.65733
1.67127
1.87486
2.35678
1.77414
1.76829
1.76249
1.75674
1.75108
1.74557
1.74031
1.73554
1.73159
1.72881
1.72695
1.72476
1.72158
1.71768
1.71336
1.70885
1.70427
1.69972
1.69526
1.69083
1.68649
1.68225
1.67815
1.67422
1.67054
1.66724
1.66748
1.74867
2.18019
2.79668
1.77414
1.76829
1.76249
1.75675
1.75111
1.74565
1.74055
1.7362
1.73329
1.73265
1.73415
1.73492
1.73367
1.7309
1.72713
1.72289
1.71844
1.71409
1.70974
1.70542
1.70119
1.69708
1.69314
1.68942
1.68602
1.68336
1.69303
1.90824
2.55407
3.17773
1.77414
1.76829
1.7625
1.75676
1.75114
1.74576
1.74091
1.73728
1.73627
1.74035
1.74999
1.75795
1.76103
1.76079
1.75849
1.75501
1.75107
1.74721
1.74321
1.73923
1.73538
1.7318
1.72867
1.72614
1.72448
1.72485
1.76205
2.14937
2.94908
3.53337
1.77414
1.76829
1.7625
1.75678
1.75118
1.74591
1.74141
1.73894
1.74152
1.75724
1.78756
1.81174
1.8261
1.83126
1.83145
1.83028
1.82888
1.82773
1.82652
1.82558
1.8253
1.82609
1.82883
1.83408
1.8425
1.85686
1.94768
2.47716
3.36341
4.04246
1.77415
1.7683
1.76249
1.75678
1.75123
1.74607
1.74203
1.74116
1.75098
1.79032
1.87749
1.97073
2.01453
2.03121
2.03756
2.05063
2.06588
2.08355
2.10367
2.12737
2.15581
2.19088
2.23487
2.28793
2.35078
2.42044
2.53683
3.00774
3.96441
5.08871
1.77415
1.76832
1.76251
1.75681
1.75127
1.74621
1.74261
1.74377
1.76354
1.84735
1.94241
2.388
2.62627
2.69716
2.82885
2.9834
3.12647
3.259
3.39327
3.54034
3.70043
3.87059
4.04639
4.2269
4.40891
4.54713
4.66479
5.08125
6.04841
6.98121
1.77415
1.76832
1.76254
1.75684
1.75132
1.74629
1.74294
1.74571
1.77335
1.89069
2.12239
3.83007
4.5064
5.04163
6.93558
7.58031
7.97527
8.23058
8.4088
8.53632
8.63755
8.7229
8.78979
8.84602
8.90561
8.86152
8.36098
8.05917
8.2743
8.60325
1.77415
1.76832
1.76254
1.75684
1.75131
1.74627
1.74284
1.74517
1.77045
1.87553
2.14031
4.29408
6.04679
8.72683
6.02269
6.78852
7.27641
7.58952
7.78873
7.91794
7.99272
8.02832
8.02929
8.00416
7.95415
7.75449
7.39972
7.33146
7.76402
8.21286
1.77415
1.76832
1.76251
1.7568
1.75125
1.74615
1.74235
1.7426
1.75821
1.82107
1.94501
2.63875
2.85655
2.89787
2.66769
2.95569
3.25886
3.57849
3.93132
4.33867
4.75774
5.14885
5.4811
5.73203
5.88553
5.81804
5.61274
5.81125
6.47779
7.08464
1.77415
1.7683
1.76249
1.75678
1.75121
1.74599
1.74172
1.74001
1.74633
1.77258
1.83248
1.89071
1.91595
1.92356
1.93086
1.95075
1.97905
2.01626
2.06264
2.11974
2.18953
2.27572
2.37436
2.4786
2.57494
2.65727
2.91652
3.74733
4.89713
5.81979
1.77415
1.76829
1.7625
1.75677
1.75117
1.74584
1.74115
1.73803
1.73851
1.74735
1.76478
1.77736
1.78519
1.7881
1.78683
1.78419
1.78149
1.77987
1.77956
1.7811
1.78497
1.79162
1.80119
1.81333
1.82729
1.87059
2.30451
3.24798
4.08701
5.02194
1.77414
1.76829
1.7625
1.75676
1.75113
1.74572
1.74073
1.73667
1.73443
1.73525
1.73891
1.74157
1.74228
1.74136
1.73869
1.73441
1.72949
1.7248
1.7204
1.71643
1.713
1.71026
1.70829
1.70719
1.70747
1.73695
2.13914
3.05307
3.77021
4.59233
1.77414
1.76829
1.76249
1.75675
1.7511
1.74563
1.74045
1.73583
1.73219
1.72991
1.72865
1.72701
1.72468
1.72173
1.71799
1.71349
1.70867
1.70392
1.6993
1.69484
1.6906
1.68664
1.68302
1.67983
1.67751
1.69566
2.03211
2.89772
3.62758
4.31977
1.77414
1.76829
1.76249
1.75674
1.75108
1.74556
1.74026
1.73534
1.73097
1.72727
1.72398
1.72046
1.71663
1.71261
1.70831
1.70371
1.69897
1.69424
1.68965
1.68517
1.68083
1.67668
1.67274
1.66906
1.66594
1.67488
1.9318
2.7299
3.50701
4.08766
1.77414
1.76829
1.76249
1.75674
1.75107
1.74552
1.74015
1.73505
1.73031
1.72594
1.72173
1.71734
1.7128
1.70827
1.70371
1.69904
1.69432
1.68962
1.68503
1.68054
1.67616
1.67191
1.66783
1.66395
1.66045
1.66298
1.83366
2.5318
3.35141
3.84124
1.77414
1.76829
1.76249
1.75674
1.75106
1.7455
1.74009
1.7349
1.72997
1.72529
1.72066
1.71588
1.71101
1.70624
1.70155
1.69684
1.69213
1.68744
1.68287
1.67838
1.67399
1.66971
1.66557
1.66162
1.65796
1.65697
1.74575
2.29349
3.12083
3.55538
1.77414
1.76829
1.76249
1.75674
1.75107
1.7455
1.74007
1.73484
1.72984
1.72503
1.72024
1.71531
1.71031
1.70544
1.70069
1.69597
1.69126
1.68659
1.68201
1.67752
1.67313
1.66884
1.66469
1.6607
1.65699
1.65437
1.67914
2.02037
2.76614
3.21126
1.77414
1.76828
1.76246
1.75667
1.75094
1.74528
1.73972
1.7343
1.72908
1.72406
1.71913
1.7141
1.70893
1.70372
1.69855
1.69338
1.68821
1.68305
1.67795
1.67289
1.6679
1.66298
1.65817
1.6535
1.64906
1.64484
1.64134
1.63914
1.66139
1.81162
1.77414
1.76828
1.76246
1.75667
1.75094
1.74529
1.73974
1.73436
1.72921
1.72432
1.71955
1.71468
1.70961
1.70447
1.69933
1.69417
1.68901
1.68385
1.67875
1.6737
1.66871
1.6638
1.65899
1.65432
1.64988
1.64568
1.64253
1.65209
1.81973
2.27848
1.77414
1.76828
1.76246
1.75667
1.75095
1.74531
1.7398
1.7345
1.72953
1.72494
1.72059
1.71612
1.71134
1.70636
1.70129
1.69616
1.69101
1.68586
1.68077
1.67573
1.67075
1.66585
1.66106
1.65641
1.65199
1.64789
1.64723
1.72525
2.14709
2.8012
1.77414
1.76828
1.76247
1.75668
1.75096
1.74535
1.7399
1.73476
1.73012
1.72615
1.72269
1.71905
1.71485
1.7102
1.70528
1.70021
1.69509
1.68996
1.6849
1.67988
1.67493
1.67006
1.66532
1.66074
1.65641
1.65272
1.6642
1.8946
2.57572
3.27313
1.77414
1.76828
1.76247
1.75668
1.75098
1.74541
1.74006
1.73519
1.73116
1.72838
1.7267
1.7247
1.72163
1.71765
1.71305
1.70812
1.70307
1.69801
1.69303
1.68808
1.68321
1.67844
1.67382
1.66939
1.66527
1.66301
1.72161
2.16071
3.01259
3.63413
1.77414
1.76828
1.76247
1.75669
1.75101
1.74548
1.74029
1.73584
1.73287
1.73238
1.73449
1.73593
1.73517
1.7326
1.72876
1.7242
1.7193
1.71453
1.70972
1.70497
1.70032
1.69586
1.69164
1.68776
1.68444
1.68637
1.82781
2.47581
3.41031
3.95358
1.77414
1.76827
1.76246
1.7567
1.75104
1.74558
1.7406
1.73679
1.7356
1.7398
1.75037
1.75913
1.76328
1.76405
1.76211
1.75846
1.75419
1.75004
1.74584
1.74176
1.73796
1.73463
1.73193
1.73006
1.72955
1.74205
1.99423
2.80374
3.75414
4.36167
1.77415
1.76829
1.76246
1.75671
1.75107
1.74568
1.74096
1.73803
1.73968
1.75359
1.78298
1.80587
1.81925
1.82495
1.82526
1.82423
1.82302
1.82251
1.8226
1.82363
1.82609
1.83022
1.83642
1.84498
1.85666
1.88917
2.22779
3.12282
4.06666
4.91234
1.77415
1.76831
1.76249
1.75672
1.75109
1.74577
1.7413
1.73925
1.7451
1.77265
1.83564
1.90038
1.93102
1.94314
1.95014
1.96547
1.98312
2.00278
2.02523
2.05153
2.08116
2.11337
2.14887
2.18722
2.22592
2.27454
2.55296
3.40783
4.57885
5.636
1.77415
1.76831
1.76251
1.75675
1.75113
1.74582
1.74149
1.74003
1.7491
1.78817
1.89148
1.98713
2.06067
2.0873
2.12695
2.2291
2.3266
2.41756
2.50311
2.5831
2.65746
2.72608
2.79098
2.85055
2.88267
2.91389
3.19141
4.08717
5.27947
6.24498
1.77415
1.76831
1.76251
1.75675
1.75113
1.74581
1.74143
1.73979
1.74795
1.78373
1.87916
1.96319
2.02683
2.05095
2.08281
2.17505
2.26763
2.35564
2.43808
2.51328
2.58094
2.63982
2.69101
2.73149
2.75013
2.77852
3.12598
4.11306
5.33894
6.28033
1.77415
1.76831
1.76249
1.75671
1.75108
1.74573
1.74115
1.73871
1.74288
1.76443
1.81544
1.86177
1.88706
1.89549
1.90209
1.91935
1.94242
1.97132
2.00716
2.05259
2.11075
2.1793
2.2486
2.30865
2.34312
2.39445
2.83121
3.86766
5.06519
5.98283
1.77415
1.76829
1.76246
1.75671
1.75106
1.74564
1.74079
1.73743
1.73767
1.74689
1.76745
1.78235
1.79172
1.79506
1.79351
1.79074
1.78858
1.78759
1.78822
1.79109
1.79693
1.80634
1.8192
1.83445
1.85136
1.97395
2.64041
3.72807
4.69165
5.58163
1.77415
1.76828
1.76246
1.7567
1.75103
1.74554
1.74045
1.7363
1.73411
1.73561
1.74129
1.7457
1.74754
1.74723
1.74451
1.7401
1.73506
1.73014
1.72537
1.721
1.71723
1.71423
1.71211
1.71098
1.71359
1.83572
2.51218
3.61702
4.43055
5.26594
1.77414
1.76828
1.76247
1.75669
1.751
1.74546
1.74019
1.7355
1.73188
1.72989
1.72944
1.72863
1.72682
1.72401
1.72006
1.71516
1.7098
1.70454
1.69934
1.69429
1.68944
1.68485
1.6806
1.67679
1.6757
1.77473
2.40109
3.49631
4.27863
5.04557
1.77414
1.76828
1.76247
1.75668
1.75099
1.7454
1.74001
1.73499
1.73056
1.72693
1.72391
1.72074
1.71713
1.71306
1.70847
1.70342
1.69815
1.69286
1.68765
1.68251
1.67746
1.67257
1.66787
1.66348
1.66095
1.73222
2.27903
3.34838
4.16971
4.85946
1.77414
1.76828
1.76247
1.75668
1.75097
1.74535
1.73989
1.73467
1.7298
1.72535
1.72114
1.71683
1.71229
1.70759
1.70267
1.69754
1.69231
1.68704
1.68186
1.67674
1.67169
1.66674
1.66195
1.65739
1.65398
1.69679
2.13928
3.16018
4.05109
4.66181
1.77414
1.76828
1.76247
1.75668
1.75096
1.74533
1.73981
1.73448
1.72938
1.72451
1.71973
1.71486
1.70986
1.70482
1.69974
1.69458
1.68936
1.68413
1.67897
1.67386
1.6688
1.66383
1.65899
1.65432
1.65031
1.66661
1.98946
2.92513
3.88442
4.42507
1.77414
1.76828
1.76246
1.75668
1.75096
1.74531
1.73977
1.73437
1.72915
1.72408
1.71904
1.7139
1.70869
1.7035
1.69834
1.69315
1.68795
1.68274
1.67758
1.67248
1.66742
1.66244
1.65756
1.65285
1.64854
1.65195
1.84495
2.6298
3.62271
4.13057
1.77414
1.76828
1.76247
1.75668
1.75096
1.74531
1.73976
1.73434
1.72907
1.72391
1.71877
1.71351
1.7082
1.70294
1.69775
1.69256
1.68736
1.68216
1.67702
1.67192
1.66688
1.66191
1.65704
1.65234
1.64796
1.64632
1.72981
2.27279
3.21784
3.76263
1.77414
1.76828
1.76246
1.75667
1.75094
1.74526
1.73968
1.7342
1.72887
1.72369
1.71857
1.71341
1.70816
1.7029
1.69766
1.69242
1.68718
1.68195
1.67677
1.67162
1.66654
1.66152
1.65661
1.65184
1.64729
1.64296
1.63952
1.64134
1.72027
2.00036
1.77414
1.76828
1.76246
1.75667
1.75094
1.74527
1.73969
1.73425
1.72897
1.72386
1.71884
1.71378
1.70861
1.70339
1.69816
1.69292
1.68769
1.68246
1.67728
1.67214
1.66705
1.66204
1.65713
1.65236
1.6478
1.64352
1.64159
1.68993
2.02489
2.65893
1.77414
1.76828
1.76246
1.75667
1.75094
1.74529
1.73974
1.73435
1.72918
1.72426
1.7195
1.71469
1.70969
1.70458
1.6994
1.69418
1.68895
1.68372
1.67855
1.67341
1.66833
1.66333
1.65842
1.65367
1.64913
1.64511
1.65267
1.84081
2.48031
3.23079
1.77414
1.76828
1.76246
1.75667