/*--------------------------------*- C++ -*----------------------------------*\
| =========                 |                                                 |
| \\      /  F ield         | OpenFOAM: The Open Source CFD Toolbox           |
|  \\    /   O peration     | Version:  2512                                  |
|   \\  /    A nd           | Website:  www.openfoam.com                      |
|    \\/     M anipulation  |                                                 |
\*---------------------------------------------------------------------------*/
FoamFile
{
    version     2.0;
    format      ascii;
    arch        "LSB;label=32;scalar=64";
    class       volScalarField;
    location    "260";
    object      omega;
}
// * * * * * * * * * * * * * * * * * * * * * * * * * * * * * * * * * * * * * //

dimensions      [0 0 -1 0 0 0 0];

internalField   nonuniform List<scalar> 
84826
(
16.0846
15.8154
15.5584
15.3126
15.0773
14.8512
14.6339
14.4242
14.2247
14.036
13.8573
13.6939
13.5331
13.3744
13.2252
13.0794
12.9373
12.7992
12.6639
12.5316
12.4025
12.2766
12.1538
12.034
11.9171
11.8031
11.6918
11.5832
11.4771
11.3732
16.0846
15.8155
15.5586
15.313
15.078
14.8523
14.6354
14.4261
14.2273
14.0393
13.8613
13.6989
13.539
13.3807
13.2318
13.086
12.9437
12.8055
12.6702
12.5377
12.4086
12.2825
12.1596
12.0397
11.9227
11.8086
11.6971
11.5882
11.4818
11.3777
16.0846
15.8156
15.5588
15.3134
15.0786
14.8535
14.6376
14.4288
14.2307
14.0441
13.8681
13.708
13.5502
13.3929
13.2449
13.0994
12.9573
12.8192
12.6832
12.5506
12.4214
12.2954
12.1727
12.0531
11.9364
11.8226
11.7116
11.6031
11.4972
11.3935
16.0847
15.8156
15.559
15.3137
15.0792
14.8545
14.6393
14.4314
14.2346
14.0503
13.8776
13.7203
13.5659
13.412
13.2656
13.1208
12.9787
12.8406
12.7045
12.5716
12.4421
12.3157
12.1925
12.0722
11.9545
11.8395
11.7269
11.6169
11.5093
11.4043
16.0847
15.8157
15.5591
15.314
15.0797
14.8555
14.641
14.434
14.2391
14.058
13.8864
13.7042
13.5562
13.4331
13.2896
13.1464
13.0048
12.8668
12.731
12.5991
12.471
12.3467
12.226
12.1084
11.9936
11.8814
11.7716
11.6639
11.5583
11.4538
16.0847
15.8157
15.5592
15.3142
15.08
14.8563
14.6426
14.4367
14.2443
14.0628
13.8951
13.7432
13.6007
13.4602
13.3205
13.1787
13.0371
12.8981
12.7604
12.6264
12.496
12.3694
12.2459
12.1255
12.0077
11.8926
11.7801
11.6702
11.5628
11.4583
16.0847
15.8157
15.5593
15.3143
15.0803
14.8569
14.6438
14.4409
14.2482
14.0684
13.9185
13.8133
13.7238
13.6288
13.4883
13.3436
13.1961
13.0505
12.9087
12.7724
12.6418
12.5162
12.3953
12.2789
12.1675
12.0616
11.9633
11.876
11.806
11.7598
16.0847
15.8157
15.5593
15.3143
15.0805
14.8574
14.645
14.4454
14.2512
14.0761
27.8246
27.2987
26.9189
27.772
18.7456
18.0997
17.9627
17.9974
18.0248
17.9954
17.9043
17.7612
17.5892
17.4142
17.2584
17.1404
17.07
17.0593
17.0926
17.1956
16.0847
15.8157
15.5593
15.3144
15.0807
14.8578
14.6461
14.4475
14.2563
14.0948
27.8897
27.9608
31.5766
65.3192
47.8335
45.2755
43.1314
41.244
39.5309
37.9645
36.5307
35.2196
34.0244
32.9394
31.9587
31.0793
30.2956
29.6097
28.9928
28.4809
16.0848
15.8161
15.5598
15.3151
15.0817
14.859
14.6477
14.4485
14.2618
14.1263
28.0452
57.5861
100.696
188.266
56.3064
52.0974
49.7774
47.7217
45.8789
44.2329
42.756
41.4227
40.2106
39.0957
38.0594
37.0885
36.1765
35.3154
34.512
33.7327
16.0849
15.8164
15.5603
15.3158
15.0825
14.8593
14.6476
14.4485
14.2617
14.1259
28.1082
60.1237
237.39
55.6548
53.5272
51.2315
49.0901
47.156
45.4375
43.9025
42.5235
41.2686
40.1109
39.0297
38.0079
37.0349
36.0968
35.2025
34.3068
16.0849
15.8161
15.5597
15.315
15.0815
14.8581
14.646
14.4474
14.2562
14.0943
27.9235
56.0081
60.4816
142.282
50.4677
47.7726
45.7221
43.9895
42.511
41.2411
40.131
39.1462
38.2616
37.4583
36.7218
36.0746
35.5218
35.014
34.5377
34.0517
16.0848
15.8159
15.5593
15.3143
15.0805
14.8574
14.645
14.4452
14.2509
14.0756
27.8403
27.4605
27.1561
29.7234
17.9632
18.034
18.2685
19.2029
20.367
21.5074
22.5225
23.3821
24.097
24.6828
25.1586
25.5453
25.8575
26.1147
26.2899
26.4639
16.0847
15.8158
15.5593
15.3143
15.0803
14.8569
14.6437
14.4407
14.2479
14.0679
13.917
13.8062
13.6863
13.5548
13.4295
13.2999
13.1671
13.0421
12.9853
13.0605
13.2522
13.5309
13.8674
14.238
14.622
15.0031
15.3711
15.7255
16.0518
16.3715
16.0847
15.8157
15.5592
15.3143
15.08
14.8563
14.6425
14.4365
14.2439
14.0623
13.894
13.7411
13.5954
13.4527
13.3119
13.1686
13.0234
12.8793
12.7361
12.5984
12.4706
12.3555
12.2548
12.1693
12.0994
12.0444
12.0039
11.9765
11.9624
11.9552
16.0847
15.8157
15.5592
15.314
15.0797
14.8555
14.641
14.4338
14.2388
14.0574
13.8857
13.7033
13.555
13.4301
13.2848
13.1398
12.9946
12.8515
12.7095
12.5709
12.4362
12.3055
12.1789
12.0559
11.9369
11.8217
11.7104
11.6028
11.499
11.3989
16.0847
15.8157
15.559
15.3138
15.0792
14.8545
14.6393
14.4313
14.2344
14.0499
13.8768
13.7189
13.5636
13.4083
13.2603
13.114
12.9693
12.827
12.6862
12.5488
12.4151
12.285
12.1584
12.0353
11.9153
11.7986
11.6848
11.574
11.4658
11.3604
16.0846
15.8156
15.5588
15.3135
15.0786
14.8535
14.6376
14.4288
14.2306
14.0439
13.8677
13.7072
13.5485
13.39
13.2406
13.0936
12.9493
12.8079
12.668
12.5315
12.3987
12.2693
12.1435
12.0211
11.9019
11.7859
11.673
11.563
11.4557
11.3511
16.0846
15.8155
15.5587
15.3131
15.078
14.8524
14.6354
14.4261
14.2274
14.0393
13.8612
13.6984
13.5377
13.3783
13.228
13.0808
12.9364
12.7954
12.6567
12.5208
12.3886
12.2597
12.1344
12.0124
11.8937
11.7782
11.6656
11.556
11.4492
11.3451
16.0845
15.8154
15.5584
15.3126
15.0773
14.8513
14.634
14.4244
14.225
14.0363
13.8574
13.6936
13.5321
13.3721
13.2216
13.0742
12.93
12.7892
12.6508
12.5153
12.3833
12.2547
12.1297
12.0079
11.8895
11.7742
11.662
11.5526
11.4461
11.3423
1.93989
2.08193
2.20882
2.32348
2.42824
2.52494
2.61486
2.69971
2.78275
2.86291
2.93916
3.00832
3.06796
3.11556
3.15231
3.18069
3.20424
3.22665
3.24636
3.264
3.27993
3.29431
3.30727
3.31895
3.32947
3.33892
3.34724
3.3546
3.36107
3.36677
1.93991
2.082
2.20895
2.32374
2.42872
2.52585
2.61657
2.70241
2.7874
2.87052
2.95074
3.02436
3.0878
3.13802
3.17564
3.20384
3.22667
3.24784
3.26652
3.28322
3.29826
3.31183
3.32405
3.33502
3.34492
3.35372
3.3615
3.36838
3.37443
3.37977
1.93986
2.0821
2.20918
2.32419
2.42964
2.52768
2.62027
2.70823
2.79754
2.88736
2.9769
3.06072
3.133
3.18915
3.22854
3.25587
3.27755
3.2959
3.31203
3.32647
3.33945
3.35109
3.3615
3.37075
3.37902
3.3862
3.39248
3.39797
3.40273
3.40692
1.9398
2.0822
2.20949
2.32483
2.43093
2.53023
2.62523
2.71708
2.81365
2.91557
3.02484
3.12837
3.22006
3.28805
3.33119
3.35688
3.37534
3.3886
3.39988
3.40991
3.41898
3.42709
3.43426
3.44064
3.44634
3.45141
3.45596
3.46029
3.4645
3.46912
1.93983
2.0822
2.20983
2.32562
2.43253
2.53348
2.63166
2.72936
2.83731
2.96193
3.09418
3.22872
3.35747
3.45484
3.50764
3.53276
3.54766
3.55519
3.55956
3.56179
3.56296
3.56371
3.56408
3.56399
3.56355
3.56291
3.5622
3.56155
3.5611
3.5612
1.93987
2.08223
2.21005
2.32648
2.43433
2.5372
2.63937
2.74534
2.87162
3.0174
3.20691
3.41282
3.6354
3.7945
3.87613
3.90544
3.91884
3.92465
3.92722
3.92741
3.92589
3.9226
3.91807
3.91298
3.90826
3.90458
3.90263
3.90284
3.9056
3.91143
1.93989
2.08235
2.21026
2.32712
2.43614
2.54105
2.64788
2.76571
2.90817
3.10408
3.43816
3.92179
4.47599
4.88491
5.06779
5.14833
5.1816
5.19246
5.18787
5.17234
5.14857
5.11828
5.08456
5.05068
5.01981
4.99422
4.9766
4.96982
4.97634
5.00173
1.93991
2.08248
2.21056
2.32768
2.43758
2.54444
2.65624
2.78925
2.94932
3.26155
3.65534
5.19712
7.42871
11.0881
18.0629
17.5258
17.0008
16.5035
16.046
15.6279
15.2478
14.8995
14.581
14.293
14.0383
13.8226
13.6554
13.5484
13.5077
13.5412
1.93993
2.08259
2.21081
2.32823
2.43867
2.54716
2.66321
2.80727
2.9991
3.55125
4.58405
13.3801
34.8298
78.6184
115.448
92.3014
77.226
66.6159
58.7701
52.6935
47.8334
43.8521
40.53
37.724
35.3374
33.3013
31.5633
30.0855
28.8317
27.7826
1.94004
2.08281
2.2112
2.32888
2.43974
2.54917
2.66772
2.81374
3.04356
3.87774
7.61387
551.66
1419.62
808.845
126.485
100.814
85.3895
74.2593
65.7841
59.1696
53.8985
49.6204
46.0807
43.0955
40.5368
38.3158
36.3728
34.6545
33.1423
31.7534
1.94014
2.08299
2.21145
2.32914
2.44001
2.54888
2.66725
2.81296
3.04171
3.87399
8.17581
261.209
117.369
95.8124
82.2585
72.1807
64.4608
58.4727
53.7373
49.9215
46.7773
44.1189
41.8149
39.7767
37.9447
36.2608
34.7225
33.2091
1.94014
2.08271
2.2111
2.32835
2.43879
2.54663
2.66238
2.80583
2.99546
3.54227
5.79322
299.997
834.924
291.643
110.266
88.0352
73.9859
64.5532
58.0114
53.3735
50.0231
47.5693
45.7438
44.3449
43.2292
42.2687
41.35
40.3815
39.3462
38.1684
1.94015
2.08244
2.21056
2.32744
2.43727
2.54395
2.65536
2.78741
2.94494
3.24904
3.8285
7.675
11.3509
22.0583
17.6102
18.3853
18.8163
19.1648
19.5277
19.9564
20.4539
21.0125
21.5997
22.1945
22.7832
23.358
23.9048
24.4079
24.8603
25.2407
1.94003
2.08233
2.21013
2.32692
2.43579
2.54045
2.64678
2.76348
2.90341
3.09195
3.40262
3.7966
4.13229
4.36412
4.53184
4.6475
4.75562
4.87732
5.0151
5.17384
5.35466
5.55503
5.77354
6.01308
6.28162
6.58312
6.91915
7.28678
7.68123
8.11057
1.93986
2.08216
2.20989
2.32623
2.43392
2.53649
2.63811
2.74297
2.86676
3.0073
3.18306
3.35551
3.51198
3.61902
3.68144
3.7114
3.73728
3.77133
3.81651
3.86949
3.92882
3.99404
4.06406
4.13745
4.21387
4.29258
4.37325
4.45454
4.53794
4.61963
1.93981
2.08212
2.20967
2.32534
2.43206
2.5327
2.63034
2.72701
2.83295
2.95333
3.07802
3.19766
3.30289
3.3766
3.41919
3.44628
3.47059
3.49562
3.52555
3.55835
3.59368
3.63058
3.6684
3.70655
3.74459
3.7821
3.81882
3.85432
3.8888
3.922
1.93977
2.08211
2.20931
2.32452
2.43042
2.52941
2.62388
2.71481
2.80974
2.90866
3.01236
3.1069
3.18609
3.24368
3.28222
3.31107
3.33681
3.36118
3.38489
3.41013
3.4368
3.46431
3.49209
3.51961
3.54644
3.57222
3.59679
3.61983
3.64147
3.66163
1.93983
2.082
2.20899
2.32386
2.4291
2.52683
2.61891
2.70605
2.794
2.88156
2.96745
3.04597
3.11171
3.16241
3.19958
3.22999
3.25703
3.2826
3.30624
3.32927
3.35268
3.37606
3.39905
3.42127
3.44254
3.46259
3.48137
3.49878
3.51487
3.5296
1.93987
2.08189
2.20875
2.32339
2.42816
2.52497
2.6152
2.70028
2.78409
2.8654
2.94292
3.01296
3.07243
3.11959
3.15625
3.18732
3.21476
3.24117
3.26503
3.28717
3.30838
3.32917
3.34933
3.36869
3.38712
3.40445
3.42059
3.43551
3.44919
3.46165
1.93986
2.08183
2.20861
2.32312
2.42766
2.52405
2.6135
2.69763
2.77959
2.85817
2.9322
2.99857
3.05538
3.10107
3.13761
3.16891
3.19675
3.22346
3.24748
3.26959
3.29033
3.31043
3.32977
3.34823
3.36567
3.38195
3.39692
3.41059
3.42296
3.43403
1.77772
1.77828
1.78114
1.78591
1.79234
1.80022
1.80919
1.82072
1.83371
1.84841
1.86448
1.88035
1.89504
1.9073
1.91766
1.92653
1.93478
1.94294
1.95064
1.95797
1.96502
1.97181
1.97834
1.98464
1.99073
1.99655
2.00217
2.00757
2.01274
2.01771
1.77772
1.77828
1.78115
1.78594
1.7924
1.80036
1.80952
1.82138
1.83482
1.85045
1.86788
1.88508
1.90165
1.91502
1.92595
1.9351
1.9433
1.95143
1.95901
1.96622
1.97316
1.97984
1.98626
1.99246
1.99841
2.00415
2.00967
2.01497
2.02006
2.02495
1.77772
1.77829
1.78117
1.78599
1.79252
1.80067
1.81034
1.82252
1.83711
1.8549
1.8757
1.89651
1.9167
1.93251
1.94464
1.95422
1.96226
1.97025
1.97767
1.98472
1.99146
1.99794
2.00417
2.01016
2.01585
2.02137
2.02665
2.03172
2.03661
2.04132
1.77772
1.7783
1.78119
1.78606
1.79269
1.80107
1.81136
1.82441
1.84111
1.86291
1.88869
1.91528
1.94264
1.96391
1.97873
1.98918
1.99744
2.0053
2.01253
2.01934
2.02583
2.03205
2.03807
2.04378
2.0493
2.05464
2.05979
2.06481
2.06972
2.07458
1.77773
1.7783
1.78122
1.78614
1.7929
1.80158
1.81263
1.82717
1.84733
1.87468
1.9132
1.95389
1.99766
2.02833
2.04849
2.06068
2.06935
2.07707
2.08405
2.09052
2.09659
2.10238
2.10784
2.11303
2.11808
2.12296
2.12774
2.13249
2.13727
2.14216
1.77773
1.7783
1.78125
1.78624
1.79315
1.80219
1.81417
1.83099
1.85559
1.89592
1.97569
2.06033
2.14357
2.19374
2.22324
2.23836
2.2492
2.25854
2.26712
2.27531
2.28342
2.29132
2.29903
2.30657
2.31423
2.32217
2.33059
2.33962
2.34939
2.3601
1.77773
1.77832
1.78127
1.78632
1.79341
1.80287
1.81598
1.83606
1.86828
1.94503
2.14551
2.43845
2.65606
2.78749
2.86751
2.91133
2.95727
2.99615
3.0298
3.06005
3.08753
3.11358
3.13806
3.16147
3.18428
3.207
3.2303
3.25482
3.28136
3.31064
1.77773
1.77833
1.7813
1.78638
1.79362
1.80349
1.8179
1.84102
1.88916
2.06712
2.27642
3.64435
4.87812
5.61994
10.0624
10.5256
10.7098
10.7603
10.7352
10.6734
10.5944
10.5055
10.418
10.3368
10.2664
10.21
10.1702
10.1471
10.1444
10.1608
1.77773
1.77834
1.78134
1.78646
1.79378
1.80397
1.81958
1.84621
1.92151
2.35944
3.37776
14.5924
43.904
42.6977
84.0066
68.4643
57.731
50.0445
44.2466
39.763
36.1775
33.2847
30.8939
28.8924
27.2003
25.7589
24.524
23.461
22.5453
21.7538
1.77774
1.77835
1.78137
1.78653
1.79392
1.80431
1.82059
1.8495
1.95916
2.77315
6.71842
563.125
390.943
348.833
132.878
99.3303
80.5921
68.3107
59.4036
52.7026
47.448
43.2192
39.7372
36.8145
34.324
32.1752
30.3037
28.6576
27.1998
25.8944
1.77774
1.77836
1.78136
1.78653
1.79393
1.80433
1.82058
1.84941
1.95868
2.77087
7.23
296.874
139.797
104.427
84.665
71.758
62.4503
55.4445
49.9557
45.5725
41.9624
38.9234
36.3183
34.051
32.0515
30.2675
28.6659
27.1981
1.77774
1.77834
1.78134
1.78645
1.79379
1.80399
1.81954
1.84602
1.92074
2.35652
4.51161
369.353
448.568
300.303
88.4245
72.6656
62.173
54.8874
49.5282
45.4515
42.2454
39.6554
37.4981
35.6317
33.9809
32.4668
31.0478
29.7105
28.4541
27.238
1.77773
1.77833
1.78129
1.78636
1.7936
1.80344
1.81779
1.84071
1.88826
2.06391
2.53918
6.75781
10.3829
12.3914
9.80295
10.513
11.0035
11.4597
11.8852
12.3048
12.7199
13.1384
13.5397
13.9212
14.2788
14.6057
14.905
15.1746
15.4209
15.6315
1.77773
1.77832
1.78125
1.7863
1.79337
1.80279
1.8158
1.83564
1.86731
1.94185
2.13307
2.38649
2.54088
2.62984
2.69976
2.7594
2.83059
2.90486
2.98663
3.07645
3.17416
3.27933
3.38923
3.50621
3.63425
3.77613
3.93343
4.10536
4.29085
4.48418
1.77773
1.7783
1.78123
1.78621
1.7931
1.8021
1.81397
1.83057
1.85465
1.89355
1.96857
2.0414
2.10559
2.14399
2.1678
2.18607
2.20357
2.22064
2.23999
2.26322
2.29006
2.31986
2.35242
2.38726
2.42428
2.46332
2.50455
2.54705
2.5908
2.63424
1.77772
1.77829
1.78121
1.78611
1.79285
1.80148
1.81243
1.82677
1.84646
1.87283
1.909
1.94517
1.98213
2.00733
2.02536
2.03933
2.05156
2.06335
2.07547
2.08903
2.10384
2.11975
2.13659
2.154
2.17193
2.19003
2.20842
2.22702
2.24556
2.26387
1.77772
1.77829
1.78118
1.78603
1.79263
1.80096
1.81117
1.82404
1.84037
1.86141
1.88583
1.91009
1.93465
1.9532
1.96699
1.97861
1.9892
1.99958
2.00971
2.02021
2.03147
2.04338
2.05589
2.06871
2.0817
2.09469
2.10748
2.12014
2.13256
2.14467
1.77772
1.77828
1.78115
1.78595
1.79246
1.80056
1.81015
1.82217
1.83647
1.8537
1.87349
1.89278
1.91122
1.9257
1.93743
1.94795
1.95767
1.96743
1.97681
1.98618
1.99598
2.0061
2.01644
2.02688
2.03733
2.04756
2.0576
2.06735
2.07676
2.08591
1.77772
1.77827
1.78113
1.7859
1.79234
1.80025
1.80933
1.82104
1.83423
1.84941
1.8661
1.88225
1.8977
1.91032
1.92114
1.93118
1.94068
1.9501
1.95925
1.96819
1.97719
1.98634
1.99557
2.00484
2.01409
2.02316
2.03198
2.04055
2.04883
2.05679
1.77772
1.77827
1.78112
1.78587
1.79227
1.80011
1.809
1.8204
1.83316
1.84749
1.86294
1.87798
1.89186
1.90366
1.91409
1.9239
1.93324
1.94258
1.95162
1.96039
1.96912
1.97795
1.98682
1.99564
2.00443
2.01304
2.02133
2.02934
2.03704
2.04434
1.77423
1.7686
1.7632
1.75807
1.75326
1.74881
1.74481
1.74152
1.739
1.7375
1.7369
1.73648
1.73545
1.73384
1.7321
1.73039
1.72874
1.7271
1.72555
1.72403
1.72257
1.72117
1.71985
1.7186
1.7174
1.71628
1.7152
1.71418
1.71322
1.71232
1.77423
1.7686
1.7632
1.75808
1.75327
1.74884
1.74488
1.74167
1.73936
1.73824
1.73826
1.7384
1.73821
1.73705
1.73559
1.73405
1.73249
1.73092
1.72943
1.72795
1.72653
1.72516
1.72386
1.72262
1.72145
1.72033
1.71925
1.71825
1.7173
1.71641
1.77423
1.7686
1.7632
1.75808
1.75329
1.7489
1.74499
1.74203
1.74018
1.73998
1.74158
1.74329
1.74497
1.74486
1.74404
1.74284
1.7415
1.74007
1.73867
1.73728
1.73592
1.73461
1.73336
1.73217
1.73103
1.72993
1.72889
1.72792
1.72699
1.72613
1.77423
1.7686
1.76321
1.7581
1.75332
1.74899
1.74525
1.74262
1.74163
1.7433
1.74792
1.75335
1.7578
1.75985
1.76037
1.75988
1.75899
1.75795
1.75681
1.75561
1.75443
1.75327
1.75216
1.75111
1.7501
1.74913
1.74824
1.74741
1.74666
1.746
1.77423
1.7686
1.76321
1.75811
1.75337
1.74911
1.74562
1.74356
1.74411
1.7491
1.76175
1.7756
1.78791
1.79365
1.79665
1.7975
1.79733
1.79693
1.79629
1.79555
1.79478
1.79402
1.79329
1.7926
1.79196
1.7914
1.79094
1.79059
1.79037
1.79031
1.77424
1.76861
1.76322
1.75813
1.75342
1.74927
1.74611
1.745
1.74806
1.76148
1.79728
1.83732
1.86623
1.88153
1.88858
1.89175
1.8937
1.8954
1.89682
1.89826
1.8998
1.90147
1.90329
1.90523
1.9073
1.90957
1.91206
1.91484
1.91798
1.92157
1.77424
1.76861
1.76322
1.75815
1.75348
1.74946
1.74674
1.74709
1.75534
1.79035
1.89384
2.03402
2.11349
2.15898
2.18508
2.20319
2.22593
2.24922
2.27057
2.29075
2.3099
2.32804
2.34477
2.36005
2.37385
2.38648
2.39843
2.4108
2.42419
2.43893
1.77424
1.76862
1.76324
1.75817
1.75354
1.74967
1.74746
1.74975
1.76807
1.86292
1.98472
2.69502
3.20891
3.38154
4.45596
4.61389
4.76935
4.87621
4.95522
5.01767
5.06768
5.10498
5.13165
5.14776
5.15761
5.16412
5.17309
5.19132
5.22175
5.26835
1.77424
1.76863
1.76325
1.75819
1.75362
1.74985
1.74817
1.75293
1.78779
2.02318
2.58212
8.04586
18.5795
18.4145
32.5472
29.3069
26.6601
24.5377
22.8007
21.3646
20.1342
19.0695
18.1356
17.3152
16.5814
15.92
15.3189
14.7671
14.258
13.7894
1.77424
1.76864
1.76327
1.75822
1.75367
1.74998
1.74867
1.75536
1.8095
2.26056
4.17888
267.357
611.404
501.131
105.427
83.2153
68.976
59.2848
52.1888
46.8179
42.5109
38.9472
35.9451
33.3466
31.0615
29.0283
27.2042
25.5574
24.0608
22.6961
1.77424
1.76863
1.76327
1.75822
1.75365
1.74997
1.74865
1.75533
1.80932
2.25918
4.53603
421.893
242.401
229.653
102.52
80.8184
66.8513
57.2867
50.2966
44.9358
40.6649
37.1867
34.2741
31.7782
29.6234
27.7296
26.0481
24.5431
23.1828
21.9506
1.77423
1.76862
1.76324
1.75818
1.75359
1.74983
1.74814
1.75288
1.78756
2.02211
3.0533
147.044
694.582
319.612
35.1657
31.5137
28.6621
26.4325
24.643
23.1614
21.9012
20.8016
19.8196
18.9218
18.1002
17.3316
16.6143
15.9393
15.3023
14.7046
1.77423
1.76861
1.76323
1.75816
1.75353
1.74966
1.74744
1.74968
1.76788
1.8619
2.13464
4.04036
5.65753
6.15599
4.50335
4.71928
4.915
5.0812
5.26635
5.4805
5.71702
5.96228
6.21101
6.45839
6.70046
6.93424
7.15603
7.36133
7.55181
7.70931
1.77423
1.76861
1.76322
1.75814
1.75347
1.74945
1.7467
1.747
1.75512
1.78947
1.88987
2.01995
2.0864
2.12013
2.14543
2.16833
2.19903
2.22949
2.26165
2.29803
2.33824
2.38157
2.42724
2.47497
2.52488
2.57719
2.63199
2.68916
2.74862
2.80905
1.77424
1.76861
1.76322
1.75812
1.75341
1.74926
1.74607
1.74492
1.74783
1.76082
1.79501
1.83167
1.85597
1.86804
1.87429
1.87872
1.88239
1.88564
1.88928
1.8944
1.90108
1.90914
1.91841
1.92877
1.94011
1.95235
1.96547
1.97932
1.99384
2.00863
1.77423
1.7686
1.76321
1.75811
1.75336
1.7491
1.74559
1.74348
1.74392
1.7486
1.76042
1.77289
1.78341
1.78811
1.79076
1.79213
1.79249
1.7927
1.79292
1.7936
1.79495
1.79691
1.79939
1.80236
1.80578
1.80957
1.8137
1.8181
1.82276
1.82757
1.77423
1.7686
1.76321
1.75809
1.75332
1.74898
1.74523
1.74256
1.74148
1.74293
1.74709
1.75179
1.75553
1.75702
1.75734
1.75723
1.75673
1.75609
1.75546
1.75496
1.75483
1.7551
1.75572
1.75666
1.75791
1.7594
1.76108
1.76289
1.76484
1.76688
1.77423
1.7686
1.7632
1.75808
1.75329
1.74889
1.74497
1.74198
1.74006
1.7397
1.74097
1.74218
1.74335
1.74294
1.74208
1.74116
1.74015
1.73905
1.73803
1.7371
1.73642
1.73603
1.73589
1.73599
1.73626
1.73673
1.73731
1.73797
1.73872
1.73951
1.77423
1.7686
1.7632
1.75807
1.75327
1.74883
1.74485
1.74163
1.73926
1.73801
1.73779
1.73758
1.73704
1.7357
1.73427
1.73296
1.7317
1.73039
1.72918
1.72806
1.72709
1.72637
1.72585
1.72552
1.72534
1.72533
1.72542
1.7256
1.72584
1.72612
1.77423
1.7686
1.76319
1.75807
1.75325
1.7488
1.74478
1.74147
1.73891
1.7373
1.73649
1.73577
1.73447
1.73275
1.73107
1.72958
1.72818
1.72678
1.72549
1.72427
1.72321
1.72236
1.7217
1.72122
1.72088
1.72065
1.72055
1.7205
1.7205
1.72052
1.77415
1.7683
1.76251
1.75677
1.75111
1.74554
1.74012
1.73496
1.73021
1.72596
1.72214
1.71831
1.71403
1.70943
1.70485
1.7004
1.69599
1.69158
1.6872
1.68284
1.67852
1.67425
1.67003
1.66588
1.66179
1.65777
1.65381
1.64991
1.64609
1.64236
1.77415
1.7683
1.76251
1.75677
1.75111
1.74556
1.74015
1.73505
1.73041
1.72638
1.72293
1.71954
1.71562
1.71127
1.70687
1.70252
1.69819
1.69382
1.68948
1.68516
1.68087
1.67663
1.67244
1.66831
1.66424
1.66023
1.65628
1.6524
1.6486
1.64488
1.77415
1.7683
1.76251
1.75678
1.75112
1.74558
1.74022
1.73524
1.73087
1.72739
1.72489
1.72258
1.71958
1.71586
1.71185
1.70776
1.7036
1.69935
1.6951
1.69085
1.68662
1.68243
1.67829
1.67421
1.67018
1.6662
1.6623
1.65845
1.65469
1.65101
1.77415
1.76831
1.76251
1.75678
1.75114
1.74563
1.74036
1.73558
1.73173
1.72939
1.72891
1.72896
1.7278
1.72533
1.72214
1.71856
1.71475
1.71074
1.70669
1.70258
1.69847
1.69439
1.69035
1.68637
1.68244
1.67856
1.67475
1.67102
1.66736
1.66381
1.77415
1.76831
1.76251
1.75679
1.75116
1.7457
1.74056
1.73614
1.73324
1.73313
1.73744
1.74312
1.74589
1.74594
1.74429
1.74168
1.73844
1.73493
1.73125
1.72745
1.72362
1.71979
1.716
1.71226
1.70857
1.70496
1.70142
1.69799
1.69467
1.69148
1.77415
1.76831
1.76252
1.7568
1.75119
1.74579
1.74084
1.73702
1.73579
1.74063
1.75744
1.77744
1.78969
1.7954
1.79686
1.79622
1.79415
1.79177
1.78897
1.78607
1.78318
1.78037
1.77768
1.77511
1.77269
1.77043
1.76835
1.76646
1.76477
1.76331
1.77415
1.76831
1.76252
1.75681
1.75122
1.7459
1.74122
1.73832
1.74023
1.75689
1.80988
1.86542
1.90076
1.92014
1.92842
1.93244
1.93465
1.93766
1.94036
1.94293
1.94563
1.94851
1.95162
1.95498
1.95852
1.96223
1.9662
1.97039
1.97486
1.97966
1.77415
1.76831
1.76253
1.75682
1.75126
1.74602
1.74168
1.74004
1.74784
1.79223
1.95051
2.20649
2.31145
2.3556
2.38808
2.41603
2.45251
2.49046
2.52984
2.56782
2.60428
2.63892
2.67181
2.70205
2.72961
2.75451
2.77742
2.79918
2.82032
2.84102
1.77416
1.76832
1.76255
1.75684
1.7513
1.74613
1.74211
1.74205
1.75835
1.86002
2.05044
3.3598
4.44444
4.56431
5.44526
5.57841
5.6908
5.76395
5.82088
5.86652
5.90485
5.94377
5.97872
6.00537
6.02035
6.02259
6.01064
5.98501
5.94656
5.89599
1.77416
1.76832
1.76256
1.75687
1.75135
1.74622
1.74241
1.74351
1.76895
1.9478
2.48665
10.3436
22.8162
22.9619
19.984
19.4904
18.8762
18.3207
17.8167
17.3543
16.9228
16.5005
16.0567
15.6061
15.1538
14.6958
14.2352
13.7748
13.3167
12.8626
1.77416
1.76832
1.76255
1.75686
1.75134
1.74622
1.7424
1.7435
1.76888
1.9472
2.55317
13.5849
35.6879
39.0762
20.0521
19.424
18.6723
17.9746
17.3281
16.7354
16.1757
15.6457
15.1273
14.6274
14.1401
13.6689
13.2104
12.7657
12.335
11.9206
1.77415
1.76831
1.76253
1.75683
1.75129
1.74613
1.7421
1.74202
1.75828
1.85946
2.19275
5.37845
9.08415
9.19196
5.59249
5.75918
5.89101
5.97566
6.04002
6.08935
6.12458
6.14612
6.15322
6.14641
6.12546
6.09265
6.04793
5.99285
5.92709
5.85306
1.77415
1.76831
1.76252
1.75682
1.75126
1.74602
1.74167
1.74
1.7478
1.79174
1.94859
2.1989
2.29772
2.33526
2.36799
2.40162
2.44751
2.49602
2.54432
2.59405
2.64928
2.71649
2.79169
2.87144
2.95389
3.03754
3.12077
3.20145
3.27884
3.3486
1.77415
1.76831
1.76252
1.75681
1.75122
1.74589
1.74121
1.73828
1.74014
1.75659
1.80845
1.86223
1.89432
1.90984
1.91738
1.92203
1.92614
1.9307
1.93517
1.94048
1.94747
1.95634
1.96679
1.9786
1.99164
2.00581
2.02098
2.03697
2.05367
2.07061
1.77415
1.76831
1.76252
1.7568
1.75119
1.74578
1.74083
1.73698
1.73569
1.74033
1.75654
1.77561
1.78664
1.79121
1.79234
1.79162
1.78952
1.78718
1.78464
1.78233
1.78057
1.77936
1.77868
1.77851
1.77883
1.77967
1.78097
1.78269
1.78482
1.78722
1.77415
1.76831
1.76251
1.75679
1.75116
1.74569
1.74055
1.73612
1.73316
1.73291
1.73685
1.74197
1.74422
1.74396
1.74221
1.7396
1.73629
1.73269
1.729
1.72533
1.72184
1.71858
1.71556
1.71278
1.71023
1.70794
1.70588
1.70402
1.70236
1.70087
1.77415
1.76831
1.76251
1.75678
1.75114
1.74563
1.74035
1.73557
1.73168
1.72923
1.72853
1.72825
1.7268
1.72418
1.72094
1.7174
1.71358
1.70953
1.70546
1.70138
1.69738
1.69353
1.68984
1.68631
1.68294
1.67971
1.67666
1.67373
1.67093
1.66826
1.77415
1.7683
1.76251
1.75678
1.75112
1.74558
1.74022
1.73523
1.73084
1.72729
1.72463
1.7221
1.71888
1.71506
1.71105
1.707
1.70286
1.6986
1.69434
1.6901
1.68593
1.68188
1.67796
1.67417
1.6705
1.66694
1.6635
1.66016
1.65694
1.6538
1.77415
1.7683
1.76251
1.75677
1.75111
1.74556
1.74015
1.73504
1.73038
1.7263
1.72273
1.71917
1.7151
1.71068
1.70629
1.70199
1.69769
1.69332
1.68899
1.68468
1.68043
1.67628
1.67225
1.66832
1.6645
1.66078
1.65715
1.65363
1.6502
1.64687
1.77415
1.7683
1.7625
1.75677
1.7511
1.74554
1.74011
1.73496
1.73018
1.72588
1.72196
1.71799
1.71357
1.70891
1.70436
1.69994
1.69557
1.69116
1.68678
1.68244
1.67816
1.67398
1.6699
1.66592
1.66205
1.65827
1.65458
1.65098
1.64746
1.64404
1.77415
1.76829
1.76248
1.75672
1.751
1.74536
1.7398
1.73444
1.72934
1.72458
1.72007
1.71553
1.71068
1.70561
1.70057
1.69561
1.69066
1.68568
1.6807
1.67572
1.67075
1.6658
1.66089
1.656
1.65116
1.64635
1.64158
1.63685
1.63217
1.62756
1.77415
1.7683
1.76248
1.75672
1.75101
1.74537
1.73982
1.7345
1.72948
1.72487
1.7206
1.71635
1.71174
1.70684
1.70192
1.69702
1.69212
1.68717
1.68222
1.67726
1.67231
1.66737
1.66247
1.6576
1.65276
1.64796
1.6432
1.63847
1.6338
1.6292
1.77415
1.7683
1.76249
1.75672
1.75101
1.74539
1.73988
1.73464
1.72981
1.72556
1.7219
1.71836
1.71435
1.70988
1.70522
1.70049
1.6957
1.69081
1.68591
1.68099
1.67607
1.67116
1.66628
1.66143
1.65661
1.65183
1.64709
1.64239
1.63773
1.63316
1.77415
1.7683
1.76249
1.75673
1.75103
1.74542
1.73997
1.73488
1.73041
1.72689
1.7245
1.72243
1.71962
1.71596
1.71181
1.70742
1.70284
1.6981
1.69331
1.68847
1.68361
1.67876
1.67394
1.66914
1.66438
1.65966
1.65497
1.65033
1.64573
1.64122
1.77415
1.7683
1.76249
1.75673
1.75104
1.74547
1.74013
1.73527
1.73142
1.72929
1.72957
1.73065
1.73019
1.72812
1.72495
1.72119
1.71703
1.7126
1.70804
1.70338
1.69866
1.69395
1.68926
1.68459
1.67996
1.67537
1.67082
1.66633
1.66191
1.65759
1.77415
1.7683
1.76249
1.75674
1.75106
1.74554
1.74033
1.73586
1.73307
1.73365
1.74006
1.74848
1.75303
1.75403
1.75263
1.75001
1.74656
1.74284
1.73877
1.73454
1.73027
1.72601
1.72179
1.71762
1.71351
1.70948
1.70554
1.7017
1.69797
1.69437
1.77415
1.7683
1.76249
1.75675
1.75109
1.74562
1.74059
1.73671
1.7357
1.74196
1.76363
1.78907
1.80442
1.81195
1.81447
1.81438
1.81256
1.81019
1.80735
1.80434
1.80138
1.79858
1.79597
1.79354
1.79132
1.78931
1.7875
1.7859
1.78452
1.78335
1.77415
1.76831
1.76251
1.75675
1.75111
1.7457
1.74089
1.73781
1.73975
1.75772
1.81865
1.8835
1.92254
1.93948
1.94856
1.95569
1.96089
1.9662
1.97192
1.97721
1.98268
1.98833
1.99434
2.00062
2.00715
2.01382
2.02054
2.02733
2.03411
2.04079
1.77416
1.76831
1.76253
1.75677
1.75114
1.74578
1.74118
1.73893
1.745
1.78313
1.91983
2.14099
2.23619
2.26566
2.29575
2.33537
2.37974
2.42362
2.46454
2.50538
2.54627
2.58612
2.62577
2.66413
2.69997
2.73288
2.76233
2.78802
2.80958
2.82618
1.77416
1.76831
1.76254
1.7568
1.75117
1.74583
1.74137
1.73976
1.74919
1.81294
2.08642
2.67222
3.08976
3.14691
3.33744
3.53456
3.69739
3.83679
3.96253
4.07396
4.17145
4.25483
4.32655
4.38547
4.43143
4.46583
4.48916
4.50155
4.5035
4.49559
1.77416
1.76831
1.76252
1.75679
1.75117
1.74583
1.74137
1.73976
1.74918
1.81273
2.08578
2.66066
3.07901
3.14215
3.33805
3.53083
3.69178
3.82195
3.93414
4.02952
4.11129
4.17849
4.2344
4.278
4.31019
4.33214
4.3441
4.34708
4.341
4.32616
1.77415
1.76831
1.7625
1.75676
1.75113
1.74578
1.74117
1.73891
1.74497
1.78292
1.9195
2.13997
2.23752
2.26584
2.29699
2.34156
2.39205
2.4433
2.48962
2.5308
2.56777
2.60132
2.63216
2.66061
2.68705
2.71088
2.73204
2.7501
2.76457
2.77526
1.77415
1.7683
1.7625
1.75675
1.75111
1.7457
1.74088
1.73779
1.7397
1.75761
1.81794
1.88263
1.91997
1.93535
1.94265
1.94849
1.95381
1.96061
1.96691
1.97335
1.9804
1.98839
1.99769
2.00932
2.02273
2.03754
2.05337
2.06977
2.0863
2.10219
1.77415
1.7683
1.76249
1.75675
1.75109
1.74562
1.74058
1.73668
1.73564
1.74179
1.7631
1.78825
1.80276
1.80907
1.81087
1.81054
1.80879
1.80666
1.80399
1.80132
1.79892
1.79693
1.79554
1.79473
1.79445
1.79469
1.79541
1.79657
1.79812
1.79996
1.77415
1.7683
1.76249
1.75674
1.75106
1.74554
1.74032
1.73584
1.73301
1.73349
1.73962
1.74768
1.75183
1.75245
1.75085
1.7481
1.74444
1.74053
1.73631
1.73205
1.72787
1.72387
1.72009
1.71652
1.71317
1.71002
1.7071
1.70439
1.70187
1.69953
1.77415
1.7683
1.76249
1.75673
1.75104
1.74547
1.74012
1.73525
1.73137
1.72916
1.72926
1.73007
1.72939
1.72717
1.72393
1.7201
1.71582
1.71125
1.70658
1.70183
1.69711
1.69247
1.68793
1.6835
1.67918
1.67498
1.67088
1.66691
1.66304
1.65929
1.77415
1.7683
1.76249
1.75673
1.75103
1.74542
1.73997
1.73487
1.73038
1.7268
1.72428
1.72203
1.71906
1.71531
1.71112
1.70669
1.70205
1.69722
1.69236
1.68746
1.68257
1.67773
1.67295
1.66825
1.66362
1.65907
1.65459
1.65019
1.64587
1.64164
1.77415
1.7683
1.76249
1.75672
1.75101
1.74539
1.73988
1.73464
1.72979
1.7255
1.72175
1.71807
1.71394
1.7094
1.70471
1.69997
1.69513
1.6902
1.68524
1.68027
1.67532
1.67041
1.66556
1.66077
1.65603
1.65136
1.64675
1.6422
1.63772
1.63332
1.77415
1.7683
1.76248
1.75672
1.75101
1.74537
1.73983
1.7345
1.72947
1.72482
1.72049
1.71612
1.71142
1.70648
1.70153
1.69663
1.6917
1.68671
1.68172
1.67673
1.67175
1.66681
1.66192
1.65709
1.6523
1.64757
1.6429
1.63827
1.63371
1.62923
1.77415
1.76829
1.76248
1.75671
1.751
1.74536
1.7398
1.73443
1.72933
1.72453
1.71996
1.71532
1.71038
1.70526
1.70021
1.69523
1.69026
1.68525
1.68024
1.67523
1.67025
1.6653
1.6604
1.65555
1.65075
1.646
1.6413
1.63666
1.63206
1.62756
1.77415
1.76829
1.76248
1.75671
1.751
1.74535
1.73976
1.73435
1.72913
1.72416
1.71936
1.71455
1.70955
1.70442
1.6993
1.69422
1.68915
1.68405
1.67896
1.67387
1.66878
1.6637
1.65866
1.65363
1.64863
1.64367
1.63873
1.63382
1.62895
1.62414
1.77415
1.7683
1.76248
1.75672
1.751
1.74535
1.73978
1.73439
1.72924
1.72437
1.71973
1.71511
1.71027
1.70526
1.70021
1.69518
1.69015
1.68506
1.67999
1.67491
1.66983
1.66476
1.65972
1.6547
1.64971
1.64475
1.63981
1.63491
1.63005
1.62524
1.77415
1.7683
1.76248
1.75672
1.75101
1.74537
1.73982
1.7345
1.72947
1.72485
1.7206
1.71643
1.712
1.70727
1.70241
1.69749
1.69253
1.68749
1.68245
1.67738
1.67232
1.66727
1.66224
1.65723
1.65225
1.64729
1.64236
1.63747
1.63261
1.62782
1.77415
1.7683
1.76249
1.75672
1.75102
1.74539
1.73989
1.73467