/*--------------------------------*- C++ -*----------------------------------*\
| =========                 |                                                 |
| \\      /  F ield         | OpenFOAM: The Open Source CFD Toolbox           |
|  \\    /   O peration     | Version:  2512                                  |
|   \\  /    A nd           | Website:  www.openfoam.com                      |
|    \\/     M anipulation  |                                                 |
\*---------------------------------------------------------------------------*/
FoamFile
{
    version     2.0;
    format      ascii;
    arch        "LSB;label=32;scalar=64";
    class       volScalarField;
    location    "260";
    object      p;
}
// * * * * * * * * * * * * * * * * * * * * * * * * * * * * * * * * * * * * * //

dimensions      [0 2 -2 0 0 0 0];

internalField   nonuniform List<scalar> 
84826
(
3.25189
3.26032
3.27644
3.29196
3.28903
3.23677
3.08422
2.75233
2.13759
1.13543
-0.286959
-1.99668
-3.53067
-4.25885
-3.99131
-3.14611
-2.2608
-1.61166
-1.19655
-0.918042
-0.726173
-0.602388
-0.508667
-0.408235
-0.301153
-0.210886
-0.149872
-0.110189
-0.0709353
-0.0384026
3.26138
3.27215
3.29446
3.32124
3.33641
3.31123
3.19568
2.90636
2.32482
1.31243
-0.204535
-2.12625
-3.86861
-4.62095
-4.2182
-3.21787
-2.23489
-1.55719
-1.14871
-0.881738
-0.702978
-0.590982
-0.498844
-0.390987
-0.277394
-0.186459
-0.127314
-0.086926
-0.044554
-0.0139947
3.27939
3.29472
3.32911
3.37806
3.42938
3.45956
3.42202
3.2269
2.72673
1.70811
0.000243505
-2.4016
-4.6109
-5.39603
-4.69059
-3.3506
-2.15917
-1.43332
-1.04728
-0.807126
-0.660346
-0.580549
-0.502075
-0.39269
-0.281225
-0.203743
-0.161092
-0.130451
-0.0851885
-0.0456813
3.30425
3.32612
3.37785
3.45912
3.56451
3.68048
3.76994
3.73987
3.40285
2.41758
0.416333
-2.87242
-5.89131
-6.67009
-5.45629
-3.53752
-1.99051
-1.21001
-0.874659
-0.672179
-0.559861
-0.504204
-0.417697
-0.284645
-0.164413
-0.100632
-0.0795701
-0.0636312
-0.0215005
0.0109661
3.33352
3.36343
3.43668
3.55888
3.73512
3.96905
4.24483
4.48057
4.4502
3.62368
1.22589
-3.69371
-7.99555
-8.55492
-6.58027
-3.76125
-1.67827
-0.8861
-0.691797
-0.602874
-0.583872
-0.576891
-0.477674
-0.31448
-0.189769
-0.148987
-0.156288
-0.16394
-0.126686
-0.0865382
3.36418
3.40296
3.50024
3.66933
3.93018
4.31361
4.84525
5.48784
6.00433
5.6363
2.8141
-5.03936
-11.4025
-11.3203
-8.19318
-3.86027
-0.993545
-0.222007
-0.215254
-0.284844
-0.389036
-0.41454
-0.263884
-0.0475996
0.0851453
0.105879
0.0816102
0.062403
0.0782714
0.0474771
3.39286
3.44048
3.56199
3.77973
4.13256
4.69026
5.55107
6.7884
8.2513
8.93176
5.68145
-7.13249
-16.1765
-15.6723
-10.9715
-3.72599
0.0011372
0.411764
-0.0208004
-0.432091
-0.759523
-0.82578
-0.602928
-0.329834
-0.1903
-0.168044
-0.155779
-0.118155
-0.0334428
-0.111852
3.41622
3.47161
3.61472
3.87697
4.31819
5.0558
6.29685
8.33277
11.3948
14.5984
10.9019
-5.28332
-19.7365
-20.8671
-16.7106
-2.4098
3.0231
2.79278
1.55813
0.568594
-0.0787601
-0.210488
0.0240984
0.234449
0.244762
0.152717
0.125033
0.153297
0.347007
0.0207656
3.43129
3.49237
3.65153
3.94757
4.45866
5.34678
6.94541
9.86447
15.2628
23.6815
24.0521
-11.5779
-23.1041
-35.567
-29.1086
-4.23986
3.9416
2.85651
0.485394
-1.06047
-1.72224
-1.53529
-0.948589
-0.518592
-0.394833
-0.388842
-0.300584
-0.132444
0.101996
0.060959
3.43589
3.4997
3.66679
3.97996
4.52765
5.49789
7.30439
10.8087
18.1171
32.8484
47.4707
-2.62589
-45.1627
-42.2382
-24.5205
1.87934
11.2743
8.71892
4.55403
1.74492
0.27316
-0.0299926
0.221761
0.376942
0.275118
0.123268
0.102101
0.238752
0.202115
0.479602
3.42893
3.49212
3.65776
3.9683
4.5115
5.47515
7.27062
10.7513
17.9998
32.5594
53.9433
13.6895
-41.5579
-21.7913
3.60594
12.2173
9.10005
4.93493
2.30446
0.859569
0.454293
0.587364
0.697338
0.621091
0.517983
0.530568
0.688293
0.588288
0.940566
3.41062
3.46991
3.6251
3.91411
4.41345
5.28267
6.84762
9.70001
14.937
22.9171
33.316
-12.8981
-71.1056
-36.0638
-27.2001
-1.31129
6.06317
3.92512
1.51056
0.212196
-0.61354
-0.926168
-0.861711
-0.730372
-0.689617
-0.675937
-0.594267
-0.395233
-0.398446
0.0999326
3.38243
3.43498
3.57184
3.82317
4.24645
4.95441
6.14322
8.08206
10.9281
13.6469
14.561
-13.8044
-31.9402
-26.073
-17.3478
-1.01719
4.42482
3.41751
2.18993
1.55168
0.860728
0.305848
0.0810856
0.082977
0.127668
0.152303
0.184059
0.235807
0.352901
0.14804
3.34688
3.39069
3.50387
3.70712
4.03636
4.55609
5.35333
6.4781
7.72106
7.96921
3.83581
-10.181
-19.5252
-17.2165
-11.9042
-3.60975
0.590342
0.857258
0.465104
0.266957
-0.070758
-0.424386
-0.535831
-0.425576
-0.257851
-0.126459
-0.0375935
0.0233729
0.153979
-0.0530772
3.30727
3.34141
3.4286
3.58037
3.81352
4.15362
4.61616
5.14463
5.46334
4.76506
1.40628
-7.09157
-13.6202
-12.7122
-9.11385
-4.23622
-0.764534
0.187942
0.192292
0.144423
-0.00496813
-0.203271
-0.263378
-0.171926
-0.0416699
0.0442698
0.0712841
0.0683073
0.073098
-0.00192538
3.26721
3.2918
3.35355
3.45624
3.60188
3.78938
3.99473
4.12222
3.92339
2.84743
0.106779
-5.15721
-9.52173
-9.66033
-7.31318
-4.09033
-1.53493
-0.561622
-0.415855
-0.37541
-0.370873
-0.411288
-0.401363
-0.315858
-0.214176
-0.150042
-0.130466
-0.128435
-0.1078
-0.0801641
3.23028
3.24628
3.28544
3.34562
3.41854
3.48666
3.50673
3.37668
2.89732
1.72139
-0.508819
-3.99513
-7.03806
-7.58248
-6.09411
-3.89315
-2.04147
-1.11092
-0.77965
-0.591376
-0.45454
-0.387009
-0.337897
-0.268943
-0.196227
-0.146045
-0.120948
-0.102154
-0.0662425
-0.0259567
3.19965
3.20871
3.22975
3.25653
3.27426
3.25612
3.15104
2.8636
2.24113
1.07173
-0.79851
-3.32355
-5.53967
-6.1758
-5.26305
-3.70567
-2.28738
-1.41157
-0.979676
-0.72773
-0.558244
-0.465215
-0.411005
-0.354681
-0.292153
-0.237184
-0.194111
-0.154263
-0.10264
-0.0485981
3.17784
3.18208
3.19054
3.19449
3.17545
3.10191
2.92051
2.54451
1.85405
0.715498
-0.926898
-2.93456
-4.67573
-5.31943
-4.75103
-3.56952
-2.40265
-1.58778
-1.1202
-0.838576
-0.648676
-0.527886
-0.447771
-0.3749
-0.300046
-0.231638
-0.174513
-0.124106
-0.0707559
-0.0238867
3.16656
3.16834
3.17035
3.16268
3.12526
3.02466
2.80718
2.39151
1.67445
0.55791
-0.973535
-2.75384
-4.28392
-4.92033
-4.50699
-3.49804
-2.44857
-1.6703
-1.19018
-0.89118
-0.686407
-0.548376
-0.454225
-0.375675
-0.301209
-0.235158
-0.180459
-0.133019
-0.0835776
-0.0375245
3.2429
3.25061
3.26495
3.27742
3.27023
3.21273
3.05469
2.71905
2.10507
1.11122
-0.292786
-1.97232
-3.47405
-4.18433
-3.92061
-3.09831
-2.24112
-1.60979
-1.19991
-0.922782
-0.732227
-0.608108
-0.512539
-0.41118
-0.304805
-0.215598
-0.154662
-0.113857
-0.0727718
-0.0392397
3.25223
3.26222
3.28262
3.30606
3.3164
3.28504
3.16248
2.86719
2.28424
1.27967
-0.216014
-2.09942
-3.80197
-4.53216
-4.13404
-3.16215
-2.21416
-1.55631
-1.15228
-0.88713
-0.710683
-0.598704
-0.505098
-0.397032
-0.284768
-0.194901
-0.135511
-0.0938491
-0.0496661
-0.0173942
3.26993
3.28434
3.31651
3.36145
3.40674
3.42865
3.3808
3.17485
2.66795
1.65537
-0.0254069
-2.36977
-4.52455
-5.27765
-4.57427
-3.27644
-2.13755
-1.43607
-1.05169
-0.811595
-0.66548
-0.58352
-0.503079
-0.394988
-0.286312
-0.209956
-0.166332
-0.133946
-0.0875813
-0.0468956
3.29437
3.31509
3.36417
3.44047
3.53794
3.64227
3.71576
3.666
3.31154
2.3277
0.363194
-2.83805
-5.78438
-6.50634
-5.27821
-3.42511
-1.96252
-1.21611
-0.886174
-0.688764
-0.576494
-0.514174
-0.423891
-0.294069
-0.17854
-0.11565
-0.0924903
-0.0743264
-0.0324233
0.00119685
3.32315
3.35162
3.4216
3.53759
3.70338
3.92071
4.17161
4.37273
4.30549
3.46754
1.12551
-3.67803
-7.89927
-8.325
-6.28632
-3.58474
-1.63466
-0.873325
-0.684459
-0.613118
-0.599799
-0.585192
-0.481799
-0.323229
-0.201714
-0.157652
-0.15888
-0.161661
-0.126239
-0.0881557
3.35327
3.39029
3.4835
3.64486
3.89218
4.25242
4.74605
5.33037
5.7767
5.37251
2.63116
-5.14658
-11.4952
-10.9848
-7.64123
-3.53171
-0.930639
-0.222041
-0.226266
-0.323473
-0.4429
-0.474401
-0.332517
-0.125549
0.0104131
0.0465513
0.0400444
0.0352365
0.058076
0.0387759
3.38145
3.42699
3.54362
3.75162
4.08726
4.61399
5.41932
6.56632
7.90473
8.53527
5.3631
-7.79118
-16.9867
-15.1844
-10.1344
-3.13289
0.257141
0.557896
0.109453
-0.310911
-0.654167
-0.764616
-0.602345
-0.377436
-0.255882
-0.231938
-0.216294
-0.177151
-0.101517
-0.137117
3.40437
3.4574
3.595
3.84566
4.26518
4.96181
6.12603
8.03535
10.9239
14.1332
11.4206
-6.60394
-21.8169
-19.1171
-15.0118
-2.37912
2.34051
2.05543
1.00308
0.245101
-0.234471
-0.304017
-0.0691801
0.147185
0.187157
0.126554
0.108809
0.139852
0.279843
0.0408641
3.41913
3.47764
3.63078
3.91406
4.39975
5.23626
6.73416
9.48027
14.7111
23.8612
26.6199
-8.99929
-29.3232
-25.9519
-20.0211
-0.96486
4.27581
2.47609
0.100905
-1.27455
-1.81102
-1.61028
-1.05615
-0.622754
-0.460283
-0.422209
-0.334198
-0.180453
0.0231339
-0.0360728
3.42358
3.48473
3.64557
3.94539
4.46613
5.3804
7.06776
10.3539
17.5199
34.5814
61.7645
-52.9927
-95.2235
-54.9734
-22.3675
4.21398
10.7534
7.38667
3.26516
0.720212
-0.493267
-0.653041
-0.335921
-0.107375
-0.122508
-0.211719
-0.206297
-0.0771177
-0.0416923
0.160282
3.41665
3.4772
3.63667
3.93397
4.45034
5.35802
7.03459
10.2988
17.4109
34.3326
72.6254
-43.1535
-21.9857
4.55489
11.03
7.54676
3.45417
1.00035
-0.217354
-0.455651
-0.241539
-0.0455917
-0.0283617
-0.0660116
-0.0223828
0.131976
0.123347
0.42651
3.39855
3.4553
3.60481
3.88152
4.35507
5.17284
6.63828
9.32237
14.4087
23.191
40.5417
-43.801
-57.9457
-47.1805
-23.5257
-0.729756
5.59001
3.60454
1.11835
-0.271444
-1.07876
-1.32752
-1.28374
-1.15825
-1.09752
-1.05685
-0.96003
-0.773811
-0.724285
-0.258469
3.37073
3.42099
3.55257
3.79265
4.19411
4.86173
5.97587
7.79379
10.4861
13.2775
15.769
-16.4869
-32.0599
-24.1051
-16.562
-1.78953
3.61531
2.97872
1.80425
1.16592
0.596721
0.183151
-0.0134639
-0.0350717
-0.0272184
-0.0316356
-0.0265991
-0.00280767
0.106982
-0.0947661
3.33566
3.37747
3.48586
3.67956
3.9921
4.48185
5.22591
6.26611
7.40171
7.64745
3.72872
-10.3088
-19.4445
-16.3742
-11.0474
-3.28899
0.539895
0.767585
0.342393
0.0998808
-0.209453
-0.510133
-0.606224
-0.516736
-0.370822
-0.239444
-0.147792
-0.0780518
0.0188242
-0.0686291
3.29659
3.32903
3.41229
3.55664
3.77679
4.09472
4.52146
4.99677
5.2581
4.55282
1.33972
-6.95773
-13.3467
-12.1596
-8.49675
-3.97859
-0.88211
0.0251519
0.0799906
0.045973
-0.0852812
-0.254081
-0.294923
-0.203812
-0.0747491
0.0202461
0.0569184
0.0632699
0.0716144
0.0213789
3.2571
3.28032
3.33898
3.43575
3.57147
3.74342
3.92595
4.02309
3.79629
2.72646
0.0747339
-5.02273
-9.26787
-9.31914
-6.96935
-3.93311
-1.58049
-0.637102
-0.459231
-0.419323
-0.425719
-0.463265
-0.443604
-0.351971
-0.244657
-0.17235
-0.14518
-0.135762
-0.111847
-0.0796283
3.22068
3.23563
3.2723
3.3278
3.39336
3.45086
3.45678
3.31043
2.81993
1.65612
-0.520059
-3.89692
-6.85406
-7.35734
-5.87969
-3.77236
-2.03589
-1.14575
-0.808269
-0.620355
-0.488702
-0.416765
-0.356346
-0.277763
-0.199187
-0.145245
-0.118007
-0.0973916
-0.0621379
-0.0223722
3.1905
3.19873
3.21771
3.24081
3.25305
3.22759
3.11382
2.81828
2.19364
1.03724
-0.796277
-3.25345
-5.40998
-6.02082
-5.1229
-3.62167
-2.27337
-1.43223
-1.00155
-0.747109
-0.578139
-0.482161
-0.421647
-0.360418
-0.295896
-0.240594
-0.197343
-0.156721
-0.104604
-0.0491635
3.16903
3.17258
3.1793
3.18021
3.1569
3.07809
2.89112
2.51144
1.82306
0.697162
-0.917965
-2.88187
-4.58119
-5.20692
-4.65069
-3.50599
-2.38411
-1.59624
-1.13344
-0.850338
-0.660298
-0.538547
-0.455766
-0.380483
-0.304434
-0.235395
-0.177435
-0.125832
-0.0714973
-0.0235319
3.15791
3.15906
3.15948
3.1491
3.10796
3.00302
2.78144
2.36408
1.65078
0.54642
-0.962171
-2.70875
-4.20586
-4.82772
-4.42401
-3.4439
-2.42939
-1.67445
-1.20069
-0.901164
-0.696233
-0.558016
-0.462318
-0.381676
-0.305308
-0.237616
-0.181452
-0.132867
-0.0828706
-0.0368478
3.22449
3.23048
3.24058
3.2461
3.22935
3.15998
2.98889
2.64227
2.02553
1.04468
-0.322802
-1.94018
-3.37622
-4.05388
-3.80467
-3.02826
-2.21913
-1.6142
-1.21005
-0.932684
-0.741597
-0.614431
-0.514621
-0.411777
-0.306903
-0.218891
-0.156821
-0.113222
-0.069306
-0.0353414
3.23352
3.24165
3.25751
3.2734
3.27308
3.22801
3.08952
2.77918
2.18889
1.19458
-0.261838
-2.06895
-3.69115
-4.38127
-4.00023
-3.08311
-2.19285
-1.56379
-1.16349
-0.897232
-0.72009
-0.604617
-0.507359
-0.399537
-0.290028
-0.201623
-0.141117
-0.0970959
-0.0507291
-0.0174251
3.25059
3.26289
3.2899
3.32605
3.35838
3.3626
3.29238
3.0623
2.53719
1.52674
-0.108217
-2.34167
-4.38201
-5.08232
-4.3977
-3.17562
-2.11824
-1.45114
-1.06563
-0.82145
-0.670917
-0.580603
-0.494714
-0.388002
-0.282753
-0.206658
-0.160529
-0.125528
-0.0789456
-0.0395448
3.27415
3.29242
3.33542
3.40106
3.48206
3.56234
3.60261
3.51187
3.11691
2.11852
0.210484
-2.81764
-5.59668
-6.24027
-5.01963
-3.28082
-1.94733
-1.24334
-0.90907
-0.710935
-0.593977
-0.519624
-0.424564
-0.299604
-0.189157
-0.124239
-0.0956345
-0.0736865
-0.0335779
-0.00191966
3.30188
3.32744
3.39022
3.49308
3.63758
3.82167
4.02261
4.15423
4.00614
3.11722
0.835605
-3.66328
-7.6481
-7.94037
-5.86015
-3.35667
-1.6252
-0.897862
-0.680704
-0.603947
-0.582664
-0.553653
-0.450571
-0.302441
-0.186236
-0.13581
-0.126973
-0.123277
-0.0934143
-0.064379
3.33087
3.36444
3.44923
3.59457
3.8145
4.12914
4.54842
5.01774
5.31328
4.77443
2.06704
-5.21161
-11.2172
-10.4514
-6.87878
-3.15312
-0.969658
-0.305126
-0.246259
-0.31651
-0.417231
-0.440821
-0.319065
-0.137555
-0.00881196
0.0385281
0.0462814
0.0512634
0.0705928
0.0532352
3.35796
3.39949
3.50629
3.69539
3.99684
4.46258
5.15925
6.12359
7.18997
7.5093
4.29909
-8.01202
-16.9553
-14.2908
-8.60995
-2.52581
0.189331
0.468206
0.148323
-0.173944
-0.44874
-0.548609
-0.430433
-0.250729
-0.142614
-0.114626
-0.100707
-0.0725553
-0.0239034
-0.0476282
3.37995
3.42844
3.55468
3.78354
4.16274
4.78249
5.79679
7.42907
9.8339
12.3709
9.80363
-7.60014
-23.8017
-18.6841
-10.6385
-1.19066
2.15008
1.83288
0.949997
0.341578
-0.0443349
-0.124124
0.03836
0.20992
0.255962
0.214026
0.189914
0.208687
0.263379
0.142215
3.39403
3.44766
3.58828
3.84677
4.28565
5.03189
6.34144
8.70357
13.1588
20.8729
24.0459
-11.2766
-40.4542
-27.6462
-9.22714
2.71053
5.25931
3.41472
1.27835
0.0184033
-0.578106
-0.601754
-0.315268
-0.0582745
0.0205477
0.000323525
0.0130461
0.0897975
0.1959
0.140214
3.39815
3.45423
3.60213
3.87553
4.3447
5.15804
6.63146
9.46248
15.6516
30.4531
59.4847
-58.8731
-74.4167
-52.1933
-6.88402
8.47675
10.5239
7.18326
3.60953
1.49195
0.422711
0.167535
0.301145
0.417384
0.364608
0.239933
0.178592
0.22153
0.21884
0.294415
3.39129
3.44679
3.59332
3.86497
4.33248
5.14022
6.60081
9.41193
15.558
30.2577
70.4092
-69.6038
-8.24366
7.69944
10.4127
7.18692
3.60004
1.48128
0.444096
0.202319
0.289432
0.385339
0.34677
0.252324
0.220425
0.28723
0.282354
0.39731
3.37364
3.42567
3.56304
3.81598
4.2449
4.97348
6.25042
8.55794
12.8958
20.3409
38.3233
-49.7041
-84.0024
-47.656
-11.5165
1.89996
5.74258
4.10543
1.85573
0.537528
-0.129214
-0.314589
-0.299669
-0.230283
-0.231746
-0.271355
-0.262369
-0.181302
-0.13324
0.016654
3.34661
3.39251
3.51312
3.73192
4.0935
4.6854
5.65321
7.20447
9.44628
11.6649
14.0995
-16.6475
-34.6519
-22.7478
-12.2041
-1.63388
2.58242
2.31423
1.33212
0.773608
0.416243
0.210059
0.139416
0.154441
0.168296
0.167191
0.180967
0.215397
0.278061
0.148576
3.31256
3.35049
3.44929
3.62453
3.90381
4.33464
4.97444
5.84243
6.73464
6.7462
2.98329
-9.87601
-18.7431
-15.2745
-9.46455
-2.7878
0.401037
0.731551
0.406164
0.171568
-0.075287
-0.300291
-0.385631
-0.349805
-0.266862
-0.185291
-0.124529
-0.075974
-0.0222581
-0.0516475
3.27466
3.30379
3.37892
3.5078
3.70162
3.97601
4.33265
4.7023
4.83448
4.04251
0.962517
-6.66999
-12.672
-11.4343
-7.61375
-3.56089
-1.00502
-0.158691
-0.0287597
-0.0404663
-0.140793
-0.261941
-0.281827
-0.199317
-0.0836847
0.00760443
0.0500107
0.0658381
0.0757417
0.0439502
3.23638
3.25684
3.30861
3.39284
3.50836
3.6491
3.78561
3.82108
3.52894
2.43799
-0.100373
-4.81908
-8.80549
-8.80989
-6.47615
-3.70549
-1.65675
-0.748691
-0.498767
-0.432149
-0.431532
-0.452216
-0.420155
-0.326315
-0.221385
-0.148275
-0.117954
-0.104991
-0.0839251
-0.0569474
3.20108
3.21372
3.24465
3.2901
3.34028
3.37566
3.35189
3.17085
2.65104
1.49167
-0.598931
-3.76761
-6.54674
-7.00689
-5.57302
-3.61688
-2.04901
-1.20446
-0.842546
-0.647514
-0.521002
-0.443081
-0.370163
-0.281861
-0.198199
-0.140541
-0.110575
-0.0878402
-0.0540674
-0.0170078
3.17182
3.1781
3.19227
3.20718
3.20755
3.16623
3.03318
2.71862
2.08405
0.94254
-0.828022
-3.15674
-5.19286
-5.76677
-4.90994
-3.50668
-2.26451
-1.46927
-1.03408
-0.77224
-0.600941
-0.496966
-0.424335
-0.354125
-0.285604
-0.22914
-0.185659
-0.144848
-0.0939392
-0.0410533
3.15101
3.15286
3.1554
3.1494
3.11648
3.02572
2.82565
2.4352
1.74599
0.639582
-0.924989
-2.80244
-4.41847
-5.01304
-4.4883
-3.41339
-2.36579
-1.61706
-1.15761
-0.868746
-0.675626
-0.549744
-0.461039
-0.381524
-0.303973
-0.234492
-0.175984
-0.123603
-0.068951
-0.021384
3.14021
3.1398
3.13635
3.11965
3.07002
2.95493
2.72298
2.29859
1.58823
0.504455
-0.95886
-2.63608
-4.06586
-4.66154
-4.28309
-3.36064
-2.40679
-1.68714
-1.22027
-0.917397
-0.710375
-0.570121
-0.470609
-0.38605
-0.306861
-0.23674
-0.178275
-0.128006
-0.0773872
-0.0324921
3.19764
3.20101
3.20466
3.19977
3.16882
3.08187
2.89143
2.52778
1.90539
0.942595
-0.370889
-1.89638
-3.23699
-3.87118
-3.65068
-2.94177
-2.19693
-1.62673
-1.23201
-0.955241
-0.762551
-0.63075
-0.526045
-0.422015
-0.318829
-0.231354
-0.166616
-0.118595
-0.070783
-0.0350791
3.2062
3.21154
3.22051
3.22513
3.20908
3.14387
2.98199
2.64924
2.04717
1.06748
-0.330151
-2.02326
-3.52564
-4.16747
-3.82448
-2.98907
-2.17545
-1.58479
-1.19172
-0.923882
-0.74342
-0.622027
-0.520417
-0.4134
-0.306967
-0.219325
-0.156118
-0.108318
-0.0589503
-0.0229454
3.22236
3.23154
3.25078
3.27393
3.2874
3.26609
3.1638
2.89897
2.34734
1.34202
-0.225782
-2.29395
-4.15763
-4.79876
-4.17334
-3.06712
-2.11559
-1.49275
-1.10896
-0.858975
-0.700026
-0.597808
-0.504892
-0.399112
-0.296248
-0.218414
-0.167523
-0.128721
-0.0814325
-0.0412885
3.24463
3.25931
3.29327
3.34332
3.40065
3.44678
3.44042
3.29249
2.84202
1.82401
-0.0057967
-2.76144
-5.26387
-5.83827
-4.70383
-3.14975
-1.98277
-1.32727
-0.98057
-0.772932
-0.646189
-0.557966
-0.457473
-0.335764
-0.226079
-0.154273
-0.116034
-0.0882652
-0.0486644
-0.015786
3.27083
3.29222
3.34434
3.42826
3.54254
3.68012
3.81175
3.84842
3.58942
2.62523
0.426394
-3.55771
-7.09343
-7.356
-5.37987
-3.18585
-1.73655
-1.05074
-0.777353
-0.666313
-0.623657
-0.580075
-0.481083
-0.344088
-0.228422
-0.164982
-0.140168
-0.125845
-0.0960476
-0.0655932
3.29817
3.32695
3.3993
3.52175
3.70329
3.95491
4.27253
4.58598
4.66951
3.92641
1.26622
-4.97196
-10.2025
-9.53342
-6.13245
-3.02688
-1.30938
-0.649783
-0.461675
-0.443064
-0.484507
-0.482188
-0.376144
-0.218305
-0.0936515
-0.0332582
-0.0105759
0.00369573
0.0239708
0.0208226
3.32367
3.35977
3.45236
3.61458
3.8685
4.25077
4.80144
5.51252
6.18595
5.99304
2.72983
-7.33862
-15.1556
-12.5382
-6.99871
-2.53797
-0.589472
-0.186447
-0.265578
-0.422176
-0.571502
-0.611557
-0.498227
-0.332263
-0.214141
-0.166071
-0.140648
-0.111604
-0.0693824
-0.0608657
3.34429
3.38675
3.49723
3.69559
4.01863
4.53447
5.34821
6.58649
8.23421
9.50297
7.05842
-7.14819
-22.0653
-17.315
-7.35772
-1.52106
0.741781
0.853095
0.370042
-0.0383306
-0.296903
-0.345108
-0.204999
-0.0346288
0.0522577
0.0565532
0.0522302
0.0722551
0.108058
0.0752907
3.35737
3.40443
3.52802
3.75355
4.12915
4.75498
5.81579
7.62907
10.7132
15.0276
16.4361
-9.65686
-38.3577
-25.3629
-6.43375
-0.202054
1.93712
1.5749
0.507962
-0.277185
-0.683172
-0.723504
-0.52075
-0.299169
-0.19295
-0.178968
-0.16543
-0.110408
-0.0351082
-0.00778111
3.36101
3.41023
3.54012
3.77847
4.17984
4.86144
6.06245
8.26045
12.5597
20.6639
35.0774
-30.7393
-75.479
-41.9509
-3.85426
2.34703
4.22706
3.39003
1.69374
0.496489
-0.155235
-0.313517
-0.192364
-0.0518598
-0.0239729
-0.0755209
-0.108712
-0.0742878
-0.0487402
0.0411039
3.35424
3.40303
3.53169
3.76802
4.16857
4.84647
6.03488
8.21563
12.4827
20.5245
40.4875
-27.0124
-83.7737
-54.9619
-4.57462
2.0395
4.32594
3.54052
1.78453
0.548355
-0.0773726
-0.215947
-0.123028
-0.00808867
0.0139413
-0.0267666
-0.0409706
0.0102182
0.0422763
0.128056
3.33725
3.38292
3.50314
3.72262
4.08982
4.70069
5.73161
7.49844
10.4931
14.6396
24.1846
-24.43
-73.4418
-39.8851
-6.15736
-0.167833
2.4003
2.11462
0.913531
0.054457
-0.361416
-0.463725
-0.425567
-0.360584
-0.354287
-0.378413
-0.36986
-0.308228
-0.242111
-0.136811
3.31135
3.35132
3.45617
3.64469
3.95141
4.4416
5.21381
6.38324
7.90361
8.95242
9.91368
-12.8883
-30.8471
-20.0915
-8.27971
-2.19637
0.711369
1.0621
0.575784
0.211555
0.0277355
-0.0407877
-0.0375349
0.00195406
0.0267521
0.0375
0.0601261
0.100245
0.139029
0.104074
3.27883
3.31144
3.39639
3.54541
3.77842
4.12846
4.62803
5.25587
5.78783
5.36671
1.73635
-8.64371
-16.4596
-13.358
-7.66479
-2.78075
-0.392619
0.136595
0.0326839
-0.109366
-0.242704
-0.353107
-0.389496
-0.355964
-0.293623
-0.232134
-0.179797
-0.134287
-0.091246
-0.079074
3.24265
3.26717
3.33026
3.43698
3.59384
3.80806
4.06878
4.29456
4.2407
3.29722
0.36651
-6.09499
-11.3256
-10.3445
-6.71135
-3.34034
-1.35077
-0.550524
-0.315422
-0.260575
-0.289961
-0.337933
-0.327175
-0.248077
-0.145909
-0.0609576
-0.0109793
0.0175135
0.0360461
0.0286066
3.20612
3.22262
3.26416
3.33028
3.4171
3.51416
3.58668
3.53731
3.15374
2.02246
-0.375304
-4.51111
-8.04415
-8.09942
-5.90848
-3.5
-1.8115
-0.966221
-0.640615
-0.525327
-0.49585
-0.488271
-0.442984
-0.351203
-0.251114
-0.176715
-0.138001
-0.115755
-0.0902114
-0.058802
3.17245
3.18171
3.20407
3.23481
3.26284
3.26679
3.20113
2.97111
2.41028
1.25485
-0.723776
-3.58519
-6.08184
-6.51086
-5.19644
-3.45957
-2.09914
-1.31262
-0.924761
-0.71567
-0.587187
-0.499338
-0.413537
-0.316533
-0.226743
-0.162045
-0.124078
-0.0951184
-0.0589567
-0.0208926
3.14454
3.14792
3.15482
3.15761
3.14064
3.07637
2.91549
2.57293
1.92287
0.802832
-0.879494
-3.02308
-4.87825
-5.41357
-4.63981
-3.37599
-2.26562
-1.52685
-1.09168
-0.823285
-0.647962
-0.533292
-0.446375
-0.365523
-0.291489
-0.231786
-0.185954
-0.143876
-0.0934251
-0.0418841
3.12469
3.12398
3.12012
3.10373
3.05659
2.94813
2.72854
2.32153
1.62938
0.549724
-0.941714
-2.69279
-4.18658
-4.74492
-4.27514
-3.29942
-2.34698
-1.64804
-1.1966
-0.903487
-0.706672
-0.574769
-0.478181
-0.393068
-0.313263
-0.24296
-0.183275
-0.129672
-0.0739773
-0.0252873
3.11439
3.11159
3.10219
3.07598
3.01364
2.88338
2.63577
2.19979
1.49162
0.436216
-0.961548
-2.53761
-3.87008
-4.43073
-4.09446
-3.25431
-2.37998
-1.70541
-1.24979
-0.945345
-0.736442
-0.59315
-0.488527
-0.399182
-0.31681
-0.244206
-0.182985
-0.13029
-0.0778733
-0.0325974
3.16383
3.16403
3.15973
3.14209
3.09399
2.98622
2.77361
2.39238
1.76754
0.831565
-0.413283
-1.82748
-3.05466
-3.64232
-3.46165
-2.83356
-2.16104
-1.63131
-1.24999
-0.975268
-0.780492
-0.643703
-0.534479
-0.429503
-0.327381
-0.239568
-0.17176
-0.119519
-0.0685041
-0.0318278
3.1718
3.17376
3.17424
3.16506
3.13002
3.04092
2.85221
2.49585
1.8851
0.930116
-0.389948
-1.94438
-3.30236
-3.89488
-3.60881
-2.873
-2.14419
-1.59719
-1.21522
-0.946707
-0.76178
-0.633825
-0.528017
-0.42162
-0.317514
-0.229945
-0.163962
-0.112843
-0.0613852
-0.0240116
3.18681
3.19222
3.20191
3.20917
3.19991
3.14843
3.00926
2.70692
2.13165
1.14448
-0.329471
-2.19357
-3.84116
-4.42767
-3.9016
-2.93923
-2.09942
-1.5229
-1.14381
-0.888688
-0.72107
-0.607782
-0.508365
-0.40256
-0.300686
-0.220568
-0.165106
-0.123066
-0.0759454
-0.0369692
3.20749
3.21783
3.24068
3.27173
3.30061
3.30654
3.24663
3.0365
2.53259
1.51237
-0.199644
-2.61083
-4.76496
-5.29333
-4.3348
-3.01033
-2.00623
-1.39257
-1.0308
-0.809566
-0.672928
-0.574955
-0.471729
-0.353233
-0.243714
-0.166086
-0.119756
-0.0875247
-0.0491371
-0.0178389
3.23176
3.24812
3.28716
3.34804
3.42615
3.50926
3.56242
3.49578
3.12501
2.10539
0.0621657
-3.28179
-6.24532
-6.55413
-4.87368
-3.04021
-1.83283
-1.17535
-0.844205
-0.689578
-0.621913
-0.566963
-0.473193
-0.347105
-0.232937
-0.160308
-0.123842
-0.102334
-0.0735124
-0.0464806
3.25705
3.28003
3.33702
3.43165
3.56746
3.74571
3.94824
4.09154
3.95753
3.03116
0.560202
-4.37756
-8.61346
-8.31133
-5.48093
-2.98876
-1.5699
-0.88191
-0.585896
-0.490989
-0.483759
-0.464419
-0.374092
-0.238798
-0.121653
-0.0550898
-0.0244955
-0.00598535
0.0143943
0.0176993
3.28057
3.31009
3.38505
3.5143
3.71167
3.99747
4.38417
4.82028
5.0834
4.42651
1.4254
-6.1776
-12.3602
-10.5716
-5.95034
-2.73615
-1.13062
-0.509017
-0.374317
-0.413991
-0.487508
-0.498767
-0.404578
-0.263081
-0.152909
-0.10268
-0.0810218
-0.0620363
-0.0325971
-0.0231131
3.2995
3.33474
3.42551
3.58603
3.8419
4.23622
4.82544
5.63796
6.52233
6.54442
2.91879
-9.28212
-18.3682
-13.7121
-6.19315
-2.1951
-0.253991
0.341409
0.211386
-0.0613651
-0.259024
-0.301826
-0.195902
-0.0468629
0.0482811
0.0692456
0.0659425
0.0743445
0.0963585
0.0818076
3.31137
3.35073
3.45302
3.63687
3.9379
4.42259
5.19673
6.40763
8.09867
9.57256
8.40544
-9.13357
-27.3658
-19.0808
-6.76146
-2.04505
0.419634
1.03963
0.598185
0.0245311
-0.35084
-0.453949
-0.34505
-0.180091
-0.0808931
-0.0622014
-0.0647767
-0.04173
0.00348866
0.0286937
3.31441
3.35567
3.46358
3.65852
3.98112
4.51271
5.39602
6.87219
9.217
12.1751
14.8868
-13.4882
-41.272
-23.9493
-6.75595
-1.37497
1.56281
2.19944
1.49145
0.653862
0.0945273
-0.114461
-0.0760358
0.0312001
0.0775507
0.0512876
0.014438
0.0172294
0.0387908
0.0656055
3.30773
3.34856
3.45554
3.64902
3.96936
4.49587
5.37013
6.83264
9.15419
12.076
16.4136
-14.2178
-44.9928
-26.5339
-7.11826
-1.62749
1.46365
2.15051
1.43761
0.594628
0.0663127
-0.119133
-0.0870251
0.00463877
0.0467149
0.031221
0.0124885
0.0322004
0.0611374
0.0927486
3.29155
3.32947
3.42876
3.60743
3.89938
4.36917
5.11925
6.29215
7.91742
9.28936
10.9785
-12.5932
-35.2487
-21.3736
-6.56586
-2.15307
0.441283
1.16955
0.722969
0.1481
-0.186944
-0.288126
-0.253178
-0.182167
-0.147354
-0.147658
-0.144343
-0.11108
-0.0679017
-0.0188835
3.26707
3.29987
3.38535
3.53673
3.77744
4.14874
4.70204
5.45734
6.24541
6.11771
2.2524
-10.1054
-19.2594
-14.1345
-6.65133
-2.70372
-0.422787
0.396915
0.305936
0.0605607
-0.0817383
-0.121718
-0.096492
-0.0442965
-0.00404085
0.0191232
0.04255
0.0781933
0.108931
0.102248
3.23643
3.26265
3.33038
3.44729
3.62533
3.88186
4.2237
4.59007
4.74217
3.9214
0.691234
-7.07882
-13.2736
-11.1982
-6.42347
-2.99444
-1.0813
-0.318361
-0.189634
-0.233195
-0.290904
-0.33154
-0.331113
-0.289706
-0.233526
-0.181039
-0.135369
-0.0941721
-0.0569103
-0.0354843
3.20241
3.22134
3.26956
3.34938
3.46229
3.60642
3.75852
3.827
3.58152
2.50235
-0.156188
-5.2285
-9.46263
-8.95697
-5.93165
-3.24927
-1.63347
-0.832879
-0.503094
-0.385071
-0.358767
-0.358868
-0.330504
-0.259474
-0.172222
-0.0962257
-0.0435363
-0.00795763
0.0173674
0.0238443
3.16806
3.17977
3.20877
3.25287
3.30539
3.35131
3.35147
3.20985
2.73502
1.58232
-0.608997
-4.05511
-7.01251
-7.17166
-5.31565
-3.31595
-1.93261
-1.14692
-0.762253
-0.59387
-0.527719
-0.492899
-0.43783
-0.350855
-0.256727
-0.181844
-0.134519
-0.103363
-0.0729814
-0.0413616
3.13642
3.14161
3.15343
3.16624
3.16772
3.13469
3.02102
2.73816
2.13962
1.0062
-0.822252
-3.30978
-5.45444
-5.87075
-4.76413
-3.29019
-2.13236
-1.40503
-0.996767
-0.767804
-0.629772
-0.53206
-0.438505
-0.338134
-0.245204
-0.174984
-0.128815
-0.0936571
-0.0553657
-0.0184233
3.11018
3.11007
3.10801
3.09601
3.05817
2.96682
2.77405
2.40197
1.74054
0.65606
-0.911028
-2.83251
-4.46962
-4.96997
-4.31902
-3.22292
-2.25002
-1.57174
-1.14222
-0.868202
-0.687101
-0.562128
-0.463083
-0.373045
-0.293122
-0.229128
-0.179603
-0.135551
-0.0857313
-0.0369842
3.09154
3.08773
3.076
3.04691
2.98262
2.85325
2.61144
2.18786
1.49714
0.455567
-0.943188
-2.54379
-3.89195
-4.41326
-4.01796
-3.1603
-2.31157
-1.66873
-1.23136
-0.936963
-0.736063
-0.597112
-0.492118
-0.400876
-0.318036
-0.246274
-0.18529
-0.130654
-0.074434
-0.0257393
3.08185
3.07617
3.05944
3.02158
2.94392
2.79575
2.53038
2.08337
1.38178
0.364688
-0.952039
-2.40745
-3.6253
-4.14865
-3.86687
-3.12345
-2.33738
-1.71456
-1.27579
-0.972873
-0.762132
-0.614654
-0.504096
-0.409685
-0.324002
-0.248941
-0.185138
-0.129963
-0.0755798
-0.0300669
3.12471
3.12134
3.10811
3.07622
3.00916
2.8788
2.64296
2.24457
1.61984
0.717017
-0.44944
-1.74213
-2.84938
-3.39202
-3.2598
-2.72113
-2.1245
-1.63736
-1.27238
-1.00131
-0.804634
-0.662948
-0.549296
-0.442854
-0.340924
-0.252142
-0.181306
-0.12541
-0.071478
-0.0327762
3.132
3.13018
3.12113
3.09657
3.04063
2.92581
2.70923
2.32977
1.71365
0.791301
-0.439576
-1.84407
-3.05356
-3.60073
-3.38387
-2.7568
-2.11359
-1.61096
-1.24371
-0.976773
-0.787856
-0.653438
-0.543051
-0.436113
-0.33305
-0.244867
-0.176202
-0.122194
-0.0687301
-0.028996
3.14571
3.14692
3.14593
3.13557
3.10149
3.0178
2.84088
2.50238
1.90845
0.95098
-0.411634
-2.05882
-3.49034
-4.03574
-3.62967
-2.819
-2.08395
-1.55284
-1.18415
-0.927694
-0.753555
-0.631015
-0.525257
-0.417954
-0.315593
-0.23271
-0.172767
-0.127348
-0.0792146
-0.0391991
3.16458
3.17011
3.18059
3.19071
3.1888
3.15227
3.03796
2.76831
2.22017
1.21915
-0.348917
-2.41439
-4.22661
-4.73396
-3.99024
-2.89138
-2.023
-1.45183
-1.08741
-0.857326
-0.712613
-0.607251
-0.50169
-0.385131
-0.275553
-0.193084
-0.139552
-0.102203
-0.0618642
-0.0277814
3.18669
3.19748
3.22202
3.25768
3.29701
3.32327
3.29735
3.13281
2.66972
1.63537
-0.213382
-2.9522
-5.36538
-5.73795
-4.43516
-2.93527
-1.90602
-1.28827
-0.932692
-0.746956
-0.655931
-0.588318
-0.495386
-0.376341
-0.264318
-0.185912
-0.140429
-0.111764
-0.079048
-0.0480488
3.20967
3.22621
3.26628
3.33068
3.41792
3.52054
3.60904
3.59501
3.28022
2.2578
0.0517974
-3.75276
-7.07075
-7.09899
-4.93804
-2.91988
-1.70846
-1.05988
-0.735091
-0.600527
-0.557432
-0.518095
-0.429815
-0.304774
-0.190875
-0.117887
-0.0790027
-0.0537787
-0.0261134
-0.00823832
3.23094
3.25316
3.30872
3.40238
3.54021
3.72786
3.95439
4.14241
4.06824
3.15156
0.507324
-4.98175
-9.58331
-8.7793
-5.373
-2.7932
-1.37882
-0.730035
-0.526077
-0.515627
-0.549919
-0.540765
-0.452903
-0.322848
-0.213584
-0.154343
-0.126717
-0.104964
-0.0719376
-0.045247
3.24794
3.27508
3.34421
3.4643
3.64952
3.92142
4.29617
4.73124
5.01592
4.38125
1.27775
-6.80059
-13.3283
-10.8667
-5.61238
-2.43822
-0.799914
-0.130129
-0.092924
-0.267367
-0.410345
-0.4323
-0.335208
-0.193691
-0.0890594
-0.0488074
-0.04056
-0.0286356
-0.000894009
0.0128579
3.25841
3.28906
3.36802
3.50764
3.72982
4.07097
4.57656
5.2618
5.98039