/*--------------------------------*- C++ -*----------------------------------*\
| =========                 |                                                 |
| \\      /  F ield         | OpenFOAM: The Open Source CFD Toolbox           |
|  \\    /   O peration     | Version:  2512                                  |
|   \\  /    A nd           | Website:  www.openfoam.com                      |
|    \\/     M anipulation  |                                                 |
\*---------------------------------------------------------------------------*/
FoamFile
{
    version     2.0;
    format      ascii;
    arch        "LSB;label=32;scalar=64";
    class       volScalarField;
    location    "260";
    object      p;
}
// * * * * * * * * * * * * * * * * * * * * * * * * * * * * * * * * * * * * * //

dimensions      [0 2 -2 0 0 0 0];

internalField   nonuniform List<scalar> 
90398
(
8.40559
8.41233
8.43024
8.45199
8.45726
8.41124
8.25825
7.91778
7.29193
6.30954
5.00286
3.64609
2.80101
2.86325
3.57415
4.30721
4.68629
4.7874
4.841
4.92164
4.96474
4.92371
4.80588
4.62678
4.36535
4.02624
3.4931
2.93682
1.68953
1.37902
8.41399
8.42324
8.44783
8.4818
8.50663
8.48929
8.37341
8.07004
7.45891
6.43
4.97102
3.39432
2.45423
2.64034
3.54707
4.37956
4.7445
4.8077
4.85693
4.94799
4.99072
4.94285
4.82214
4.64427
4.38562
4.0503
3.52392
2.97795
1.72984
1.436
8.42972
8.44389
8.48159
8.53977
8.60413
8.64638
8.61073
8.39339
7.82754
6.71366
4.91559
2.8262
1.68786
2.17917
3.52073
4.55029
4.86263
4.83969
4.88435
4.99645
5.03264
4.96648
4.83941
4.66708
4.41931
4.09785
3.58831
3.06439
1.81344
1.55372
8.45098
8.47225
8.52889
8.62274
8.74727
8.88446
8.98561
8.93071
8.48076
7.26613
4.8534
1.7795
0.344927
1.46027
3.55854
4.87436
5.05431
4.89947
4.96589
5.11664
5.1288
5.01643
4.86167
4.6827
4.44446
4.14558
3.66837
3.18256
1.94605
1.73099
8.47517
8.5052
8.5855
8.72507
8.93046
9.20328
9.51733
9.74996
9.57419
8.30781
4.80087
-0.118797
-1.87776
0.482612
3.78816
5.39772
5.22378
4.87063
5.03627
5.28792
5.29231
5.12676
4.91731
4.6879
4.41461
4.10603
3.64581
3.1916
1.9866
1.83619
8.49904
8.53871
8.64552
8.83803
9.14249
9.59562
10.2249
10.944
11.3803
10.2858
4.84495
-3.5512
-5.47894
-0.720059
4.59484
6.48718
5.53183
4.79571
5.05743
5.42804
5.47861
5.34856
5.15673
4.90396
4.58559
4.23806
3.76064
3.29802
2.09806
1.93078
8.519
8.56807
8.70136
8.94907
9.36401
10.0375
11.1113
12.6369
14.3625
13.9787
4.9311
-9.65901
-11.0031
-2.54396
5.85514
7.95355
5.98009
4.91699
5.19357
5.46065
5.41807
5.31343
5.18788
4.96534
4.64056
4.27293
3.78189
3.29807
2.09673
1.82016
8.53148
8.58855
8.74454
9.04144
9.5622
10.4745
12.0968
14.9477
19.4212
19.4498
10.3571
-16.3468
-19.0023
-6.82835
8.78778
9.12909
5.80598
5.17617
5.8378
5.94173
5.67011
5.49113
5.36893
5.14911
4.81181
4.41775
3.89625
3.37014
2.17302
1.68448
8.53344
8.59584
8.76729
9.09838
9.69846
10.807
12.9881
17.3632
22.4651
35.6496
17.719
-47.1914
-32.8063
-10.4382
14.8359
9.98433
3.88616
4.01947
5.48031
5.70081
5.39762
5.25535
5.19768
5.04417
4.7681
4.40956
3.89125
3.32976
2.17684
1.81625
8.52284
8.58685
8.76366
9.10759
9.74067
10.9313
13.4366
18.8753
28.9236
55.299
46.1386
-91.0159
-64.1912
-20.2476
24.7202
14.939
5.46975
5.15525
6.65295
6.69584
6.1556
5.7877
5.53107
5.24022
4.88436
4.46967
3.8755
3.21523
1.85373
2.04696
8.49901
8.56055
8.73098
9.0624
9.67033
10.809
13.1715
18.1986
29.262
70.3901
-37.0936
-52.4991
-27.4714
25.6637
16.4525
6.43492
5.36414
6.58865
6.66182
6.15452
5.75157
5.45101
5.16495
4.85713
4.50172
3.94969
3.38666
1.98167
2.68576
8.46281
8.51804
8.67107
8.96611
9.49564
10.4583
12.2765
15.6811
22.5794
34.434
-17.4321
-53.125
-44.143
-21.3359
15.0069
12.5613
5.71878
4.5452
5.69069
6.15471
6.0084
5.80051
5.6069
5.39474
5.13941
4.8165
4.26314
3.73795
2.18178
2.98073
8.41654
8.46239
8.58985
8.83156
9.24876
9.95742
11.1405
12.9713
15.0542
16.835
-3.94785
-23.1865
-21.4596
-8.21574
8.16941
9.63049
5.85518
4.52384
5.1845
5.64997
5.62544
5.5222
5.45003
5.37824
5.27246
5.10064
4.72432
4.39537
3.12124
3.49442
8.36361
8.39834
8.49556
8.67517
8.96842
9.42235
10.075
10.8028
10.9745
8.16178
-1.34573
-10.0573
-9.66729
-2.2875
5.07003
7.4007
5.70704
4.68264
5.03464
5.42317
5.45363
5.38306
5.32272
5.24588
5.13635
4.99873
4.76336
4.56732
3.72809
3.47315
8.30812
8.33128
8.39722
8.51489
8.69276
8.93437
9.20662
9.32877
8.83784
6.51926
0.87074
-4.62072
-4.95817
-0.667076
4.03529
6.145
5.64002
5.01613
5.16779
5.45584
5.54084
5.5329
5.50256
5.42831
5.30889
5.16083
4.93512
4.68695
3.82071
3.25902
8.25427
8.26653
8.30348
8.36593
8.44732
8.52786
8.54779
8.34559
7.58905
5.6994
2.17372
-1.27776
-1.86825
0.475741
3.46995
5.14066
5.19254
4.8726
4.93511
5.15541
5.27354
5.30071
5.28109
5.21081
5.09356
4.9363
4.69602
4.38117
3.52396
2.91409
8.20602
8.20893
8.22133
8.23844
8.24493
8.21039
8.07049
7.69544
6.87132
5.33223
2.95383
0.662247
0.0317588
1.31424
3.27686
4.59448
4.91425
4.85011
4.94106
5.14532
5.28173
5.32566
5.31175
5.24576
5.12542
4.94195
4.6591
4.2586
3.36587
2.62794
8.16672
8.16239
8.15582
8.13875
8.09146
7.97959
7.74262
7.28128
6.46157
5.16566
3.42386
1.80507
1.22938
1.94973
3.27258
4.30854
4.72717
4.81748
4.93098
5.09922
5.21723
5.25948
5.25006
5.19007
5.06731
4.86014
4.53766
4.0611
3.12507
2.30949
8.13894
8.12988
8.11052
8.07076
7.98901
7.83003
7.53867
7.03702
6.23793
5.0965
3.70216
2.44996
1.92648
2.34743
3.29837
4.15081
4.60115
4.77299
4.90148
5.04949
5.1628
5.21601
5.21878
5.16532
5.03891
4.812
4.45655
3.91378
2.92392
2.04881
8.1243
8.11305
8.08732
8.03626
7.93769
7.75645
7.44055
6.923
6.13848
5.07215
3.83206
2.73989
2.24418
2.53753
3.3222
4.08721
4.54415
4.74988
4.88836
5.03264
5.14917
5.21032
5.21773
5.16394
5.03299
4.79603
4.42526
3.84803
2.8218
1.90673
8.39615
8.4021
8.41814
8.43664
8.4373
8.38554
8.227
7.88331
7.26063
6.29229
5.01527
3.69566
2.87462
2.92952
3.6111
4.31601
4.68292
4.78549
4.84231
4.92231
4.9637
4.92307
4.80763
4.63231
4.37435
4.04384
3.51825
2.99384
1.71514
1.51292
8.40437
8.41275
8.43527
8.46559
8.48509
8.46081
8.33733
8.02816
7.41765
6.40289
4.98223
3.45788
2.54999
2.72217
3.58769
4.38537
4.73836
4.80542
4.85824
4.94762
4.98811
4.94085
4.82313
4.64947
4.39564
4.07099
3.55364
3.03858
1.76807
1.59358
8.41972
8.43285
8.46807
8.52172
8.57916
8.61177
8.56401
8.33459
7.76326
6.66219
4.9239
2.92523
1.83545
2.29362
3.56703
4.54934
4.85233
4.83906
4.88874
4.99838
5.03195
4.96544
4.83861
4.66784
4.42506
4.11608
3.61813
3.12724
1.8641
1.76125
8.44048
8.46045
8.514
8.60196
8.71705
8.84016
8.92077
8.84124
8.37043
7.16192
4.85171
1.95584
0.588267
1.62707
3.60745
4.85899
5.03687
4.8966
4.9646
5.11286
5.12953
5.02421
4.87175
4.69185
4.45536
4.16447
3.69655
3.24158
1.99975
1.98208
8.46409
8.49248
8.56889
8.70079
8.89285
9.14423
9.42367
9.60601
9.3733
8.0866
4.77675
0.216499
-1.46471
0.729279
3.82981
5.36431
5.21679
4.88653
5.03136
5.25874
5.2646
5.11614
4.92405
4.7081
4.44583
4.14878
3.69972
3.2748
2.06697
2.12909
8.48735
8.52504
8.62701
8.80964
9.09534
9.51547
10.0877
10.7081
10.9968
9.7842
4.72459
-2.90072
-4.80006
-0.383612
4.58621
6.41734
5.54211
4.86779
5.10942
5.43158
5.4537
5.3178
5.13817
4.90707
4.6131
4.28925
3.83381
3.40624
2.21375
2.23489
8.50674
8.55354
8.68119
8.91646
9.30618
9.93174
10.9092
12.2434
13.602
12.8329
4.52064
-8.3491
-9.91069
-2.16212
5.66677
7.88582
6.02701
5.00267
5.2689
5.50735
5.42454
5.27702
5.13201
4.91638
4.61631
4.28052
3.82248
3.38213
2.20279
2.07343
8.51875
8.57318
8.72311
9.00682
9.49674
10.34
11.8105
14.2866
17.8509
18.1308
9.12274
-13.7378
-16.9486
-6.27749
8.23359
9.03516
5.94668
5.3233
5.96708
6.08409
5.79368
5.55293
5.37745
5.13578
4.80428
4.43023
3.93119
3.43671
2.2603
1.89156
8.52042
8.57988
8.74454
9.06237
9.63093
10.6564
12.6146
16.3853
21.0569
30.323
10.4842
-29.8303
-29.9142
-13.1442
17.5089
11.3744
4.73341
4.61309
5.96432
6.17416
5.83171
5.59078
5.42608
5.1959
4.87847
4.50098
3.96544
3.39044
2.1587
2.12723
8.50975
8.57078
8.7402
9.06871
9.66754
10.7701
13.0036
17.6331
26.3949
47.4437
14.1459
-80.4263
-46.9852
-34.5142
32.624
18.4079
6.63376
5.42581
6.58331
6.5762
6.05901
5.70215
5.44825
5.16907
4.83706
4.44892
3.84847
3.1583
1.36237
2.01083
8.48609
8.54472
8.70793
9.0243
9.59917
10.6528
12.7577
17.0443
26.5811
60.5061
-43.9303
32.5565
18.8239
6.70947
5.14443
6.2062
6.26246
5.79797
5.44401
5.17456
4.91333
4.63212
4.29885
3.76199
3.10037
1.3282
2.21223
8.45029
8.50279
8.64947
8.93217
9.43239
10.321
11.9512
14.9038
21.023
29.4961
-18.4419
-60.8266
-47.1035
-31.5642
17.5878
12.4419
5.28433
4.50491
5.72836
6.13418
5.91643
5.65338
5.39789
5.14017
4.8685
4.54803
4.0323
3.33417
1.50241
2.17212
8.40461
8.44813
8.57017
8.80006
9.19063
9.84343
10.9108
12.5052
14.1427
15.6176
-1.56985
-20.5043
-20.6967
-8.45231
7.92942
9.5867
6.29522
5.09702
5.58325
5.87195
5.75344
5.60462
5.48837
5.38932
5.2789
5.12478
4.8102
4.43336
3.42711
3.41121
8.35243
8.38525
8.47764
8.64692
8.92
9.33784
9.92528
10.5475
10.6055
8.00894
-0.365863
-8.73201
-8.79317
-2.01055
5.09657
7.66165
5.95558
4.75814
4.9403
5.2491
5.27294
5.21823
5.17227
5.11082
5.02544
4.92615
4.77141
4.64924
4.12158
3.43766
8.29772
8.31931
8.38137
8.49126
8.65501
8.87354
9.11027
9.187
8.6625
6.45887
1.34322
-3.87846
-4.41574
-0.448507
4.00544
6.03013
5.49709
4.8935
5.07835
5.40177
5.51909
5.52891
5.50712
5.4396
5.33051
5.19691
5.00617
4.7618
4.05126
2.94994
8.24465
8.25571
8.28971
8.34646
8.41839
8.48485
8.48542
8.26475
7.50694
5.69192
2.41054
-0.873936
-1.52611
0.652677
3.48729
5.09708
5.17625
4.90323
4.98153
5.19335
5.29742
5.3115
5.28337
5.21227
5.10194
4.95158
4.73123
4.38312
3.64499
2.42142
8.19711
8.19915
8.20934
8.22233
8.22248
8.1793
8.02952
7.64865
6.83287
5.33875
3.08103
0.893089
0.25299
1.45042
3.31423
4.57751
4.89288
4.83886
4.92735
5.12153
5.25271
5.29882
5.29191
5.23538
5.12716
4.95066
4.68321
4.23255
3.44441
2.07199
8.15839
8.15344
8.1452
8.12515
8.07357
7.95633
7.71463
7.25307
6.44351
5.17869
3.50282
1.94207
1.37086
2.04422
3.3056
4.30144
4.71037
4.80645
4.9237
5.09232
5.2131
5.261
5.25749
5.2017
5.08472
4.87892
4.56807
4.03276
3.21364
1.78899
8.13104
8.12152
8.10085
8.05885
7.97405
7.81165
7.51827
7.01879
6.2299
5.11169
3.75675
2.5394
2.0225
2.41772
3.33002
4.15374
4.59355
4.76718
4.89874
5.04776
5.16261
5.21853
5.22418
5.17325
5.05136
4.82488
4.48343
3.88014
3.02425
1.59318
8.11659
8.10496
8.07809
8.02511
7.92406
7.74029
7.42361
6.90932
6.13493
5.08836
3.87702
2.8104
2.32092
2.59643
3.35183
4.09267
4.5386
4.74417
4.88514
5.03043
5.14789
5.21109
5.2216
5.17143
5.04602
4.80893
4.45586
3.8147
2.94397
1.49594
8.37696
8.38106
8.39264
8.40378
8.39431
8.33032
8.15941
7.80749
7.18877
6.24538
5.02315
3.77517
2.9983
3.03585
3.66075
4.31691
4.66826
4.77796
4.84176
4.92107
4.96072
4.92267
4.81337
4.6469
4.39984
4.08727
3.57316
3.10616
1.78081
1.77989
8.38481
8.39118
8.40886
8.431
8.43885
8.39975
8.25999
7.93742
7.32612
6.3365
4.98512
3.55766
2.70465
2.84715
3.63728
4.3779
4.71827
4.79748
4.85825
4.94569
4.98408
4.93975
4.82847
4.6641
4.42132
4.11539
3.61404
3.15598
1.85051
1.91322
8.39941
8.41022
8.43979
8.4836
8.52623
8.53852
8.46555
8.21056
7.62576
6.5478
4.91475
3.07576
2.06318
2.45744
3.61391
4.52339
4.82275
4.8326
4.8918
4.99816
5.03097
4.96885
4.84765
4.68431
4.4511
4.16097
3.68516
3.25428
1.968
2.16981
8.41913
8.43632
8.48305
8.55863
8.65391
8.74743
8.78657
8.65687
8.14287
6.94762
4.8214
2.21789
0.948171
1.84871
3.63816
4.79623
4.99041
4.88659
4.95804
5.09902
5.12232
5.03112
4.8892
4.7159
4.48691
4.21368
3.77148
3.37839
2.12385
2.47166
8.44149
8.46652
8.53457
8.65075
8.81589
9.0236
9.23353
9.3182
8.97535
7.67246
4.71078
0.730215
-0.845409
1.04135
3.82722
5.25838
5.18368
4.91226
5.03438
5.22913
5.23889
5.11548
4.94776
4.75115
4.50704
4.23389
3.81721
3.45607
2.24402
2.69377
8.46345
8.49709
8.58873
8.75149
9.00116
9.35717
9.8131
10.2498
10.2713
8.94405
4.6131
-1.83665
-3.75588
-0.00110229
4.43791
6.16776
5.4845
4.93473
5.14591
5.40866
5.40986
5.28172
5.12445
4.92569
4.67119
4.39004
3.98665
3.63795
2.45895
2.84893
8.48161
8.52371
8.63894
8.84966
9.1922
9.72543
10.5146
11.5073
12.2575
11.0951
4.35168
-6.1079
-8.17958
-1.5321
5.43792
7.51775
5.92516
5.04158
5.29247
5.50203
5.39847
5.22755
5.08339
4.89855
4.65326
4.38005
3.9935
3.64701
2.50048
2.72122
8.49263
8.5419
8.67779
8.9327
9.36463
10.0833
11.2687
13.1091
15.2583
15.2925
7.33215
-9.54292
-14.9942
-5.37435
8.11393
8.85967
6.02485
5.3591
5.91156
6.04308
5.7609
5.4817
5.28651
5.06727
4.79698
4.49898
4.0767
3.65568
2.42525
2.37829
8.49368
8.54755
8.6972
8.98286
9.4842
10.3598
11.9193
14.6772
17.9508
22.2907
10.9777
-15.8301
-27.5417
-13.0278
16.8168
11.1893
5.02721
4.7156
5.88944
6.14462
5.84539
5.57842
5.38663
5.17118
4.90782
4.60189
4.12027
3.51475
2.00562
2.22703
8.48285
8.538
8.69188
8.98686
9.51285
10.4524
12.2115
15.5675
21.3664
31.7798
9.79607
-68.2885
-46.0788
-31.2809
29.3218
16.3924
5.82317
4.81768
5.99872
6.17947
5.80619
5.51557
5.30309
5.07815
4.81825
4.50407
3.9509
3.1347
1.16808
1.86713
8.45956
8.51245
8.66048
8.94403
9.44838
10.3451
12.0023
15.1113
21.3675
36.6456
-49.4637
-20.5688
29.4347
16.8351
6.07259
4.95731
6.06052
6.20133
5.81671
5.51365
5.27165
5.04537
4.81883
4.56424
4.13998
3.60605
2.37073
2.60061
8.42463
8.47192
8.60453
8.85733
9.29633
10.0514
11.3461
13.5139
17.7321
21.2498
7.77389
-55.5495
-36.4292
-27.6344
16.5259
11.0748
4.7965
4.42486
5.63232
6.02882
5.86866
5.66711
5.4664
5.26709
5.07331
4.87906
4.61564
4.42571
3.68137
3.03156
8.38023
8.41913
8.52861
8.73307
9.0738
9.62504
10.4752
11.6504
12.5067
10.6529
2.84461
-16.7176
-17.8235
-7.4312
7.28407
8.61038
5.96331
5.12665
5.60228
5.84749
5.73494
5.58791
5.47254
5.38017
5.30153
5.2471
5.22731
5.44757
5.20659
3.50768
8.32959
8.3584
8.44017
8.58897
8.82407
9.17175
9.63046
10.0544
9.89024
7.62258
0.924039
-6.76717
-7.40554
-1.52071
4.91754
7.40042
5.97239
4.92037
5.06979
5.35026
5.38566
5.34314
5.29702
5.23789
5.17029
5.11112
5.05195
5.08373
4.70936
2.73083
8.27656
8.29487
8.34855
8.44267
8.57901
8.7523
8.91612
8.90266
8.29656
6.29951
2.01302
-2.74959
-3.55226
-0.102752
3.95736
5.85493
5.38243
4.84648
5.03394
5.35421
5.48236
5.50112
5.48444
5.43118
5.34898
5.25097
5.12348
4.91737
4.31385
2.02993
8.22514
8.23362
8.26111
8.30597
8.3586
8.39634
8.35752
8.09677
7.3263
5.63598
2.7401
-0.262519
-0.994338
0.912675
3.50035
5.00264
5.11409
4.90876
5.01378
5.22804
5.33403
5.35162
5.32991
5.27017
5.17902
5.04813
4.86249
4.50857
3.88359
1.43362
8.17908
8.17911
8.18424
8.18834
8.17517
8.11412
7.94369
7.54802
6.7424
5.32546
3.2654
1.2479
0.592106
1.64603
3.35342
4.53491
4.8576
4.83874
4.93805
5.12526
5.25289
5.30322
5.30599
5.2617
5.16932
5.00759
4.76684
4.29167
3.64527
1.06344
8.14156
8.13504
8.1228
8.09607
8.03523
7.90691
7.65485
7.19019
6.39719
5.18728
3.62318
2.16559
1.60097
2.19188
3.35168
4.28589
4.68754
4.79939
4.92429
5.09252
5.21661
5.27292
5.27977
5.23454
5.13002
4.93457
4.64651
4.07723
3.43478
0.852621
8.11506
8.10426
8.0803
8.03304
7.9415
7.772
7.47362
6.97642
6.20541
5.12922
3.8451
2.69375
2.18856
2.53607
3.37945
4.15474
4.58099
4.76151
4.90009
5.05188
5.17054
5.23247
5.24515
5.20244
5.09207
4.87365
4.5532
3.90634
3.26675
0.718168
8.10102
8.08826
8.05845
8.0009
7.89434
7.70532
7.38605
6.87628
6.1199
5.10958
3.95245
2.93644
2.46001
2.70147
3.4019
4.10006
4.53043
4.73942
4.88644
5.03439
5.15441
5.2222
5.23938
5.198
5.08584
4.85764
4.52766
3.83876
3.24895
0.62122
8.34908
8.35041
8.35525
8.35558
8.33163
8.25049
8.0625
7.69988
7.08751
6.18019
5.03297
3.88262
3.16381
3.17576
3.72291
4.31515
4.64784
4.7666
4.83761
4.91516
4.95355
4.92057
4.8211
4.66827
4.43899
4.15718
3.66474
3.2756
1.8976
2.20171
8.35638
8.35976
8.37013
8.38032
8.37163
8.31196
8.15001
7.81036
7.20057
6.24913
4.99071
3.69208
2.90862
3.00771
3.6965
4.3636
4.68989
4.78442
4.85328
4.93773
4.97503
4.93648
4.83508
4.68466
4.46086
4.18611
3.71109
3.32881
1.98551
2.40457
8.3699
8.37729
8.39842
8.42796
8.44975
8.43409
8.32741
8.04032
7.44361
6.40617
4.90755
3.2739
2.35554
2.66201
3.66242
4.47904
4.77745
4.81659
4.88443
4.98563
5.02018
4.9677
4.85802
4.70821
4.49331
4.23247
3.78929
3.43875
2.12896
2.76801
8.38811
8.40126
8.43786
8.4957
8.56333
8.61653
8.60134
8.40996
7.854
6.6943
4.78693
2.53954
1.40138
2.11885
3.65685
4.69385
4.91472
4.86079
4.93506
5.0642
5.09486
5.02336
4.90063
4.74514
4.53618
4.29169
3.88976
3.58486
2.3253
3.17055
8.40868
8.42889
8.48464
8.57837
8.70652
8.85541
8.97681
8.94576
8.49192
7.20271
4.63833
1.33297
-0.0949119
1.38984
3.77214
5.06391
5.08779
4.89917
5.00432
5.16938
5.18662
5.09145
4.9539
4.78719
4.57374
4.33765
3.97622
3.71518
2.5292
3.48458
8.42875
8.45668
8.53357
8.66821
8.86876
9.14025
9.453
9.67657
9.44473
8.06762
4.49605
-0.653798
-2.46263
0.447497
4.16171
5.71564
5.30679
4.9202
5.09935
5.31749
5.32158
5.2171
5.08965
4.92995
4.72137
4.49372
4.1694
3.94308
2.84195
3.68842
8.44512
8.48063
8.5785
8.75504
9.03395
9.4489
10.0115
10.6231
10.8282
9.43614
4.29817
-3.73559
-5.94991
-0.721544
4.9606
6.67599
5.56628
4.94542
5.18464
5.38372
5.30514
5.15523
5.03309
4.88929
4.7041
4.50298
4.21913
4.03538
3.06411
3.66357
8.45471
8.49662
8.61256
8.82706
9.18043
9.74293
10.5938
11.7582
12.74
11.8833
6.45046
-6.03819
-11.8682
-4.1439
6.82827
7.67677
5.60899
5.11002
5.61832
5.81782
5.62644
5.39394
5.2313
5.06373
4.87111
4.66913
4.38403
4.18175
3.22835
3.39488
8.45486
8.50083
8.62883
8.86882
9.27736
9.96175
11.0799
12.8587
15.0227
15.6675
9.66424
-10.6743
-22.1205
-9.1445
11.1893
8.9299
4.88361
4.60154
5.54616
5.84117
5.62999
5.39484
5.23576
5.08045
4.91024
4.73108
4.45058
4.24057
3.3062
3.14387
8.44382
8.49084
8.62251
8.87048
9.29832
10.0309
11.2904
13.4296
16.591
20.3208
17.4867
-28.6547
-30.2442
-22.5767
16.8469
11.6037
5.37915
4.95071
6.01472
6.25756
5.94773
5.65661
5.4459
5.24969
5.06006
4.86903
4.58353
4.3865
3.41863
2.90197
8.42107
8.46601
8.59231
8.83001
9.23911
9.93645
11.1216
13.0961
15.8986
20.3916
19.2927
-35.5679
-59.2723
-27.4704
17.285
11.6796
5.32502
4.89388
5.92301
6.14324
5.85364
5.59026
5.39123
5.21959
5.08341
4.98832
4.91794
5.06142
4.37133
2.84556
8.38741
8.42728
8.53967
8.7501
9.10496
9.68978
10.6134
11.9911
13.3856
12.9399
10.8498
-33.5302
-21.6935
-17.3272
10.9865
8.55426
4.59506
4.45545
5.45266
5.81743
5.70924
5.5515
5.41247
5.28411
5.18677
5.14989
5.23079
5.6303
5.12693
2.54849
8.34486
8.37716
8.46881
8.63767
8.91128
9.33366
9.93094
10.6322
10.8799
9.12195
4.11294
-11.4249
-13.5838
-5.16022
5.94685
7.04949
5.32072
4.92963
5.4596
5.74312
5.69031
5.57616
5.48296
5.41132
5.37537
5.41058
5.63042
6.06852
5.50781
2.15191
8.29648
8.31963
8.38658
8.5067
8.69051
8.94785
9.25003
9.44346
9.05517
7.04938
1.95011
-4.4793
-5.50378
-0.738922
4.50549
6.51732
5.62307
4.96124
5.13971
5.38272
5.41308
5.3705
5.32673
5.28458
5.25457
5.24129
5.26915
5.27982
4.76342
1.426
8.24588
8.25955
8.30116
8.37287
8.4718
8.5852
8.65781
8.53449
7.85897
6.06475
2.5568
-1.50298
-2.42381
0.374729
3.82497
5.46695
5.17544
4.7898
4.96806
5.25845
5.38846
5.42069
5.42239
5.39689
5.35632
5.2978
5.23979
5.01313
4.45034
0.864506
8.19685
8.20159
8.21947
8.24732
8.27345
8.27259
8.18308
7.87288
7.09885
5.55036
3.0608
0.451452
-0.311067
1.24948
3.49589
4.82538
4.97743
4.85969
4.99488
5.21383
5.33027
5.36161
5.35709
5.31851
5.25711
5.14923
5.01648
4.64612
4.09329
0.309956
8.15293
8.14998
8.14756
8.13891
8.10729
8.02207
7.8244
7.41024
6.62332
5.30804
3.47413
1.67941
1.03347
1.9033
3.39844
4.4615
4.78956
4.81929
4.93706
5.11919
5.24485
5.301
5.31565
5.28863
5.22232
5.0809
4.88454
4.38192
3.86163
-0.0795789
8.11716
8.10823
8.08999
8.05357
7.9798
7.83646
7.57064
7.10263
6.33417
5.19862
3.77103
2.44962
1.90213
2.38912
3.41337
4.26344
4.65312
4.78474
4.91872
5.08522
5.21199
5.27754
5.29737
5.26836
5.18884
5.01264
4.76212
4.15097
3.69351
-0.291552
8.09188
8.07905
8.05012
7.99516
7.89411
7.71485
7.40986
6.91632
6.17059
5.15204
3.95983
2.89832
2.41265
2.69781
3.44848
4.15796
4.565
4.75326
4.8996
5.05392
5.17693
5.24685
5.2704
5.24111
5.15311
4.9546
4.66413
3.97069
3.56002
-0.476436
8.07846
8.06387
8.02959
7.96531
7.85087
7.65447
7.3317
6.82834
6.09686
5.13631
4.05265
3.10666
2.65044
2.84733
3.47297
4.11333
4.52254
4.73491
4.8884
5.03885
5.16186
5.23573
5.26259
5.23386
5.14241
4.93568
4.63367
3.90796
3.60703
-0.683595
8.31414
8.31216
8.30881
8.29611
8.25489
8.15371
7.94668
7.57358
6.97196
6.11122
5.0532
4.01344
3.3592
3.34184
3.80194
4.32267
4.63295
4.75862
4.83499
4.90981
4.94751
4.92108
4.83338
4.69692
4.48809
4.24259
3.78108
3.48604
2.05237
2.78947
8.32074
8.32055
8.32205
8.31789
8.28963
8.20618
8.0198
7.66351
7.06047
6.15991
5.01112
3.85445
3.14939
3.20096
3.77634
4.36055
4.6685
4.77573
4.85017
4.93063
4.96789
4.93706
4.84772
4.71329
4.51119
4.27333
3.83526
3.54451
2.158
3.05332
8.33294
8.33626
8.34716
8.35969
8.35716
8.30976
8.16689
7.84869
7.24819
6.26942
4.92748
3.51246
2.70047
2.913
3.73871
4.44936
4.74181
4.80717
4.87964
4.97362
5.0108
4.97062
4.87538
4.74144
4.54867
4.32471
3.9262
3.67131
2.33438
3.52229
8.34931
8.35766
8.38202
8.41883
8.45472
8.46309
8.39112
8.14128
7.55835
6.46467
4.80055
2.92784
1.94483
2.46647
3.71874
4.61405
4.85604
4.8501
4.92361
5.03801
5.07442
5.02289
4.92098
4.78638
4.6029
4.3959
4.04753
3.84757
2.5969
4.02287
8.36769
8.3822
8.42313
8.4905
8.57651
8.66117
8.69283
8.55507
8.02402
6.79515
4.64248
2.00755
0.778573
1.85659
3.77657
4.89672
5.01147
4.90215
4.99133
5.13049
5.15613
5.08692
4.97791
4.84233
4.66465
4.47438
4.17945
4.03849
2.92247
4.3914
8.38543
8.40667
8.46589
8.56783
8.71306
8.89347
9.06624
9.10057
8.68967
7.33821
4.4726
0.593943
-0.959955
1.07838
3.9912
5.33951
5.19352
4.94615
5.08115
5.25965
5.27396
5.19316
5.09147
4.96816
4.8065
4.63873
4.39906
4.32447
3.35491
4.54673
8.39963
8.42738
8.50478
8.6419
8.85017
9.13998
9.49068
9.77469
9.60256
8.17417
4.28451
-1.57002
-3.4821
0.21202
4.56018
6.00406
5.40892
5.00085
5.17787
5.34885
5.30122
5.17984
5.07668
4.96753
4.83381
4.70402
4.52893
4.56611
3.7415
4.42926
8.40746
8.44058
8.53335
8.70205
8.96917
9.36872
9.91621
10.5321
10.7791
9.43908
4.10448
-4.91615
-7.16141
-0.971607
5.59616
6.82154
5.5764
5.15224
5.50055
5.68859
5.56701
5.38931
5.26327
5.14654
5.02194
4.91304
4.78541
4.92773
4.14408
4.16735
8.40652
8.44309
8.5457
8.73537
9.04606
9.5337
10.2569
11.219
12.0373
11.3134
6.82845
-7.10247
-13.0711
-4.36544
7.14861
7.773
5.48972
4.97428
5.50899
5.72988
5.56961
5.37445
5.25174
5.15127
5.06137
4.99236
4.91147
5.18137
4.51213
3.82463
8.39524
8.43276
8.53823
8.73395
9.05844
9.58113
10.3949
11.5477
12.812
12.7304
9.05124
-13.2474
-18.2248
-6.82348
8.47093
9.04231
5.96476
5.27832
5.8412
6.00982
5.77437
5.53592
5.38482
5.27278
5.19912
5.18872
5.26601
5.67149
4.87966
3.19536
8.37317
8.40882
8.50946
8.69627
9.00516
9.50027
10.2614
11.3186
12.4032
12.0833
9.42224
-14.7466
-19.2964
-7.66795
8.64023
9.03973
5.95024
5.27832
5.83191
5.99406
5.77416
5.55435
5.41135
5.30639
5.25718
5.28738
5.47513
5.94641
5.06294
2.25774
8.34105
8.37212
8.46079
8.6246
8.89012
9.29985
9.88537
10.6013
11.0262
9.81633
6.14807
-11.1609
-13.9073
-4.80688
7.25455
7.69965
5.49761
5.07643
5.6325
5.87704
5.77332
5.62794
5.52103
5.43947
5.41023
5.48464
5.78296
6.1383
5.13151
1.29214
8.30079
8.32523
8.3962
8.52467
8.72436
9.01214
9.37424
9.68697
9.50464
7.71074
2.47043
-5.38453
-6.50898
-0.858719
5.11997
6.35702
5.36253
5.07644
5.45245
5.67821
5.64044
5.54657
5.47906
5.43807
5.44671
5.53565
5.79211
5.92925
5.12832
0.620172
8.25519
8.27173
8.32116
8.40819
8.53498
8.69628
8.84804
8.8389
8.28805
6.50477
2.66309
-2.26267
-3.31758
0.188332
4.23312
5.8174
5.43596
5.08651
5.2477
5.4414
5.46757
5.43033
5.39968
5.37892
5.38488
5.40652
5.48498
5.33231
4.79503
0.0893338
8.20759
8.21579
8.24296
8.28864
8.3455
8.39376
8.37585
8.15209
7.43847
5.83067
3.02332
-0.170568
-1.05903
1.00058
3.74219
5.12948
5.08369
4.87215
5.02579
5.26423
5.37997
5.41494
5.42865
5.426
5.42477
5.39863
5.41089
5.08096
4.52129
-0.434582
8.1615
8.16182
8.16822
8.17617
8.17211
8.1287
7.98711
7.63162
6.86864
5.47299
3.38902
1.23402
0.510598
1.69995
3.54129
4.6816
4.89516
4.86745
5.01426
5.22062
5.33987
5.38402
5.39776
5.38461
5.36111
5.28282
5.22132
4.76453
4.23719
-1.00963
8.12022
8.11375
8.10229
8.07863
8.02573
7.91338
7.68722
7.257
6.49733
5.29824
3.70548
2.17017
1.56885
2.2403
3.4858
4.40897
4.74142
4.82211
4.95626
5.13208
5.25698
5.32112
5.35014
5.34305
5.30972
5.19713
5.06791
4.46954
4.04413
-1.46049
8.08659
8.07481
8.0494
8.00152
7.9126
7.75207
7.47164
7.00231
6.26508
5.21626
3.94117
2.77408
2.26132
2.6393
3.50722
4.2572
4.63064
4.78344
4.92699
5.09121
5.22016
5.29539
5.33046
5.32108
5.27259
5.12398
4.93605
4.21876
3.94413
-1.74748
8.06281
8.0476
8.01272
7.94859
7.8362
7.64556
7.33356
6.84574
6.1311
5.18116
4.09463
3.1357
2.67924
2.89829
3.54281
4.175
4.55814
4.75339
4.90694
5.06294
5.19004
5.26906
5.30631
5.29433
5.23418
5.05923
4.82321
4.03375
3.85015
-2.08828
8.05016
8.03343
7.9938
7.92149
7.7975
7.59242
7.26599
6.77113
6.07001
5.16934
4.17119
3.30627
2.87593
3.02436
3.5654
4.13928
4.52301
4.7373
4.89665
5.04939
5.17604
5.25784
5.29758
5.28543
5.2217
5.03811
4.7897
4.00229
3.95043
-2.49253
8.27389
8.26826
8.25586
8.22887
8.16914
8.04721
7.8215
7.44035
6.85447
6.04699
5.08357
4.15553
3.56522
3.51746
3.88781
4.33332
4.61793
4.748
4.82889
4.90185
4.94063
4.92247
4.84844
4.7305
4.54542
4.34003
3.91409
3.72595
2.22572
3.53847
8.27972
8.27561
8.26734
8.24753
8.19843
8.0906
7.88057
7.5109
6.92094
6.07919
5.04419
4.02778
3.39857
3.402
3.86185
4.35985
4.646
4.76305
4.84233
4.92006
4.95943
4.93847
4.86343
4.74733
4.56929
4.37053
3.97514
3.79112
2.35151
3.83819
8.29045
8.28932
8.28904
8.28318
8.25509
8.17571
7.99841
7.65459
7.06009
6.15077
4.96577
3.75755
3.04652
3.16674
3.81877
4.42136
4.70343
4.79087
4.86761
4.95603
4.99749
4.97151
4.89349
4.77904
4.61097
4.42588
4.07821
3.93576
2.57212
4.38831
8.30477
8.30792
8.31901
8.33333
8.33634
8.30047
8.17571
7.87777
7.28501
6.276
4.84582
3.30774
2.46658
2.80496
3.77947
4.53516
4.79271
4.82957
4.90434
5.00763
5.05036
5.01824
4.93827
4.82707
4.6712
4.50516
4.21645
4.13837
2.92387
4.945
8.32072
8.32908
8.35409
8.39361
8.43668
8.45936
8.40986
8.18562
7.61274
6.47889
4.68986
2.62443
1.59496
2.31313
3.78386
4.73139
4.91845
4.87952
4.96083
5.08355
5.12076
5.07697
4.99499
4.88894
4.74674
4.60483
4.37626
4.36952
3.37
5.27739
8.3359
8.34993
8.3902
8.45794
8.54764
8.64226
8.69235
8.57861
8.06057
6.79633
4.51378
1.64287
0.360168
1.69416
3.87421
5.02992
5.07245
4.92794
5.0282
5.17944
5.21047
5.15745
5.0821
4.99149
4.8735
4.76567
4.60171
4.6918
3.87011
5.26674
8.34771
8.36718
8.42251
8.51866
8.65717
8.83192
9.0032
9.04254
8.64029
7.27126
4.31768
0.238736
-1.31114
1.02457
4.15928
5.4635
5.25326
4.98532
5.10636
5.26064
5.25371
5.17169
5.09466
5.01888
4.93188
4.86705
4.78134
5.02464
4.24369
4.90503
8.35361
8.3775
8.44545
8.5667
8.74978
9.00258
9.30323
9.53334
9.33372
7.93641
4.14892
-1.70362
-3.57926
0.278139
4.71636
6.07594
5.43135
5.06311
5.28008
5.4647
5.42392
5.31371
5.23105
5.16246
5.09855
5.06686
5.07391
5.47393
4.52394
4.40959
8.3515
8.37821
8.45406
8.59198
8.80772
9.12116
9.53117
9.94954
10.0178
8.7207
4.05983
-3.8792
-6.1453
-0.576056
5.34523
6.87797
5.58689
4.98114
5.25935
5.46426
5.39672
5.27885
5.20876
5.16232
5.13825
5.13992
5.24157
5.81788
4.78541
3.78742
8.33997
8.36743
8.44546
8.58785
8.81391
9.15172
9.61302
10.1301
10.3935
9.24987
4.1472
-5.4519
-7.98306
-1.31045
5.76694
7.72594
6.01762
5.19537
5.47526
5.66703
5.56393
5.42603
5.3488
5.30495
5.30414
5.36991
5.61556
6.17701
5.02375
2.75276
8.31867
8.34445
8.41829
8.55306
8.76645
9.08286
9.50879
9.9676
10.142
8.88895
3.82611
-5.51929
-7.73583
-1.14198
5.8147
7.68447
5.94031
5.09968
5.3729
5.56931
5.48579
5.37113
5.31579
5.29158
5.32101
5.40331
5.64969
6.03866
4.94697
1.3914
8.28829
8.31013
8.37378
8.48957
8.66824
8.92202
9.23651
9.50216
9.35671
7.82234
3.2456
-4.07363
-5.65815
-0.316329
5.35901
6.79304
5.54539
4.98401
5.28068
5.50893
5.48782
5.41907
5.38245
5.36871
5.40849
5.50019
5.72429
5.86035
4.90353
0.133565
8.25056
8.26675
8.31552
8.40216
8.52951
8.69511
8.8619
8.89441
8.43931
6.78987
3.05877
-2.1293
-3.33828
0.329735
4.44957
5.76199
5.25096
4.97415
5.2166
5.42961
5.45281
5.41994
5.40493
5.41152
5.46418
5.54714
5.71956
5.62427
4.99807
-0.741554
8.20806
8.21753
8.24808
8.30072
8.37093
8.44302
8.46515
8.30102
7.6585
6.08154
3.1748
-0.348109
-1.32233
0.989158
3.93639
5.28399
5.23003
5.04373
5.17619
5.35116
5.40358
5.39946
5.40152
5.41351
5.45619
5.49272
5.60002
5.24339
4.7875
-1.42211
8.1638
8.16611
8.17781
8.19625
8.21063
8.19701
8.09874
7.79602
7.07362
5.65608
3.42612
0.990892
0.184171
1.59684
3.67803
4.85189
4.98638
4.89862
5.02479
5.21964
5.32916
5.37646
5.41096
5.43749
5.47651
5.4744
5.54476
5.01819
4.53051
-2.06472
8.121
8.11653
8.11056
8.09746
8.06254
7.97786
7.78904
7.39877
6.65984
5.42138
3.6951
1.96063
1.30513
2.14529
3.58381
4.54915
4.8191
4.86093
5.00325
5.18956
5.31122
5.37264
5.41065
5.42905
5.44732
5.4001
5.40523
4.73824
4.30705
-2.68319
8.08267
8.07236
8.05109
8.01135
7.93638
7.79726
7.54505
7.10437
6.37953
5.30015
3.93419
2.64495
2.09705
2.57761
3.57235
4.35932
4.6953
4.817
4.95974
5.12794
5.2544
5.33037
5.37779
5.39602
5.40079
5.31775
5.2625
4.46314
4.20387
-3.18295
8.05144
8.03655
8.00327
7.94298
7.83815
7.66043
7.3668
6.8997
6.19901
5.24159
4.11648
3.10249
2.63053
2.90019
3.60684
4.25304
4.60858
4.77988
4.93092
5.09225
5.22332
5.30911
5.36129
5.37533
5.36308
5.24371
5.12727
4.21628
4.19873
-3.57153
8.02934
8.0115
7.97005
7.89591
7.77148
7.56938
7.25132
6.77189
6.09271
5.21624
4.23777
3.38335
2.95904
3.1115
3.64481
4.19494
4.55213
4.75322
4.91281
5.06976
5.20087
5.29042
5.34418
5.35407
5.32858
5.1808
5.01102
4.04878
4.14079
-4.08156
8.01756
7.99844
7.95289
7.87175
7.73759
7.52372
7.19443
6.71044
6.04368
5.20781
4.29912
3.51793
3.11569
3.21513
3.66719
4.1696
4.52497
4.73972
4.90389
5.05858
5.18926
5.28066
5.33574
5.34398
5.31381
5.15559
4.97634
4.04627
4.26233
-4.68518
8.23031
8.22091
8.19918
8.15763
8.07941
7.93741
7.69489
7.30898
6.74286
5.99157
5.12151
4.29905
3.76844
3.69292
3.97872
4.35116
4.60832
4.73992
4.82426
4.89604
4.93667
4.92708
4.86693
4.76795
4.6075
4.44393
4.0573
3.98324
2.39348
4.40823
8.23533
8.22719
8.20889
8.1732
8.10344
7.97228
7.7412
7.36257
6.791
6.01127
5.08636
4.19891
3.63933
3.60046
3.95375
4.36877
4.63028
4.75328
4.83632
4.91205
4.95408
4.94316
4.88284
4.78563
4.63237
4.47385
4.12349
4.05496
2.54476
4.71287
8.24453
8.23886