/*--------------------------------*- C++ -*----------------------------------*\
| =========                 |                                                 |
| \\      /  F ield         | OpenFOAM: The Open Source CFD Toolbox           |
|  \\    /   O peration     | Version:  2512                                  |
|   \\  /    A nd           | Website:  www.openfoam.com                      |
|    \\/     M anipulation  |                                                 |
\*---------------------------------------------------------------------------*/
FoamFile
{
    version     2.0;
    format      ascii;
    arch        "LSB;label=32;scalar=64";
    class       surfaceScalarField;
    location    "260";
    object      phi;
}
// * * * * * * * * * * * * * * * * * * * * * * * * * * * * * * * * * * * * * //

dimensions      [0 3 -1 0 0 0 0];

oriented        oriented;

internalField   nonuniform List<scalar> 
278528
(
1.5995
0.000410697
9.32213e-05
1.59902
0.000256343
0.000233507
1.59876
-0.000110895
0.000384061
1.59887
-0.000690818
0.000584521
1.59836
-0.000325321
0.000840779
1.5978
-0.000574974
0.00114895
1.59728
-0.00133719
0.00186663
1.59944
-0.00433969
0.00218325
1.60187
-0.00521877
0.0027939
1.61179
-0.0131142
0.00320017
1.61713
-0.00872027
0.00338305
1.61334
0.000863435
0.00294999
1.62201
-0.0108188
0.002168
1.62056
0.000261632
0.00120214
1.6185
0.00152219
0.000557369
1.61704
0.00120985
0.000277709
1.6154
0.00128328
0.000397351
1.61552
-0.000287944
0.000203485
1.61541
0.000138842
1.35058e-05
1.61561
-3.14187e-05
-0.000114505
1.61618
-0.000289976
-0.000234231
1.61714
-0.000507272
-0.000400448
1.61851
-0.00071431
-0.000601606
1.62037
-0.00096342
-0.000855007
1.62282
-0.00127738
-0.00115343
1.6261
-0.00167542
-0.00163546
1.63024
-0.00213575
-0.00208848
1.63614
-0.00280795
-0.00323358
1.64262
-0.00321456
-0.00337537
-0.00460881
-0.00651579
1.59995
0.000373746
9.39032e-05
1.5998
0.00018286
0.000234346
1.59962
-0.000324408
0.000398988
1.5994
-0.00106699
0.000599994
1.59892
-0.000665789
0.000829451
1.59885
-0.00172264
0.00122867
1.59743
-0.00198662
0.00208151
1.59908
-0.00840855
0.00242785
1.60261
-0.0119112
0.0031684
1.61175
-0.0259161
0.00366447
1.6179
-0.018882
0.0040285
1.61451
0.000728391
0.00353974
1.62292
-0.0216833
0.00247169
1.62093
0.000908086
0.00136503
1.61852
0.00329112
0.000664053
1.61697
0.00237396
0.000410901
1.61599
0.00170122
0.000591552
1.61545
-7.26434e-05
0.00035971
1.61527
0.000188599
0.000173427
1.61547
-0.00023078
4.71182e-05
1.61605
-0.000749685
-6.33689e-05
1.61699
-0.00117131
-0.000222183
1.61833
-0.00157323
-0.000429003
1.62015
-0.00205529
-0.000692594
1.62256
-0.00265359
-0.00101163
1.6258
-0.0034098
-0.00152875
1.62988
-0.00428437
-0.00202186
1.63573
-0.00555842
-0.00325608
1.64212
-0.00631713
-0.00340731
-0.00891663
-0.00700862
1.59994
0.000346231
9.65392e-05
1.5998
8.65423e-05
0.000246545
1.59943
-0.00037377
0.00042171
1.59911
-0.00137769
0.000636776
1.59848
-0.000851579
0.000826854
1.59771
-0.00232917
0.00139126
1.59733
-0.00405772
0.002455
1.59747
-0.0114841
0.00295461
1.60096
-0.0193607
0.00396811
1.61162
-0.0414068
0.00484167
1.61963
-0.0323881
0.00550944
1.61703
-0.0015115
0.00485481
1.62487
-0.0325826
0.00308589
1.62168
0.00244439
0.00166673
1.61854
0.00561005
0.00084643
1.61685
0.00345016
0.000636931
1.61577
0.00188381
0.000927452
1.61532
-0.000102975
0.000517755
1.61516
9.37977e-05
0.000306847
1.6154
-0.000550325
0.00012856
1.616
-0.00125407
-3.10468e-05
1.61692
-0.00179686
-0.00023495
1.61822
-0.00234144
-0.000474187
1.62
-0.00301814
-0.000766246
1.62235
-0.00386221
-0.0011177
1.62552
-0.00492067
-0.00168132
1.62954
-0.0061653
-0.00222847
1.63537
-0.00790535
-0.0036408
1.64169
-0.00903277
-0.00373991
-0.012354
-0.00837139
1.59998
0.000279187
0.000100029
1.59972
8.79063e-05
0.000262193
1.59929
-0.000391996
0.000452353
1.59872
-0.00149318
0.000693464
1.5982
-0.00120284
0.000882551
1.59679
-0.00249345
0.0015907
1.59475
-0.00498942
0.00298395
1.59524
-0.0157588
0.00379946
1.59866
-0.0280731
0.00531145
1.61122
-0.0611566
0.00720575
1.62278
-0.0522429
0.00832269
1.6217
-0.00728486
0.00689789
1.62797
-0.0433058
0.00448038
1.62273
0.00548562
0.0022315
1.61842
0.00865071
0.00127058
1.61658
0.00413669
0.00116077
1.61549
0.00144812
0.0015455
1.61501
-0.000638538
0.00103547
1.6149
-0.000559249
0.000793658
1.61526
-0.00144203
0.000576028
1.61591
-0.00219529
0.00034048
1.61683
-0.00267641
1.33422e-05
1.6181
-0.00319899
-0.000348123
1.6198
-0.00392689
-0.000748414
1.62207
-0.00489386
-0.0012062
1.62513
-0.00614253
-0.00185681
1.62906
-0.00767452
-0.0025051
1.63483
-0.00969743
-0.00414486
1.64112
-0.0112463
-0.00422824
-0.0148381
-0.0103392
1.59998
0.000202604
0.000101101
1.59963
0.000171379
0.0002803
1.59916
-0.000408441
0.00049216
1.59843
-0.00152382
0.000767129
1.59866
-0.00239503
0.00097887
1.59643
-0.0019129
0.00165592
1.59391
-0.00616912
0.00371707
1.59182
-0.018777
0.00513217
1.59599
-0.0399339
0.00772411
1.61031
-0.0869356
0.0114801
1.62845
-0.0838359
0.0134931
1.64956
-0.0391036
0.0107302
1.63236
-0.0324628
0.0063972
1.62396
0.0108951
0.00300661
1.61817
0.0125272
0.00196088
1.61644
0.00398065
0.00190845
1.61529
0.000473107
0.0021504
1.61469
-0.00128973
0.00128591
1.61461
-0.00130944
0.000862893
1.61508
-0.00246084
0.00060087
1.61579
-0.00318333
0.000335982
1.61674
-0.00348607
-7.43883e-05
1.61801
-0.00383036
-0.000570286
1.61968
-0.00439659
-0.0011432
1.62187
-0.00523184
-0.00181745
1.62481
-0.00639703
-0.00270074
1.62862
-0.00794109
-0.00363086
1.6343
-0.00991002
-0.00563879
1.64049
-0.0116476
-0.00597626
-0.014662
-0.0137929
1.59997
0.000145132
9.93098e-05
1.59972
0.000130248
0.000296395
1.59893
-0.000138581
0.000525772
1.59777
-0.00121467
0.000858642
1.59719
-0.00293787
0.00113735
1.59757
-0.00348316
0.00120428
1.59309
-0.00606708
0.00439689
1.58914
-0.0223939
0.00761181
1.59031
-0.0529976
0.0119151
1.59613
-0.112204
0.0194809
1.63853
-0.150405
0.0241995
1.64759
-0.0662969
0.0181899
1.63778
-0.0326008
0.00997682
1.62403
0.0192522
0.00545293
1.61623
0.0155119
0.00484534
1.61532
-5.86744e-05
0.00496715
1.61463
-0.00387761
0.00504523
1.61393
-0.00414669
0.00358146
1.61406
-0.00394083
0.00253512
1.6146
-0.0047178
0.00175436
1.61526
-0.00485645
0.00106481
1.61613
-0.00464169
0.000341234
1.61733
-0.00457247
-0.00039774
1.61894
-0.00476162
-0.00119337
1.62106
-0.0052534
-0.00206876
1.62392
-0.00612617
-0.00315982
1.62771
-0.00745087
-0.00437331
1.63338
-0.00912316
-0.00665713
1.63982
-0.0107401
-0.00756045
-0.0126881
-0.0166907
1.60004
1.25706e-05
9.70926e-05
1.59969
0.000208483
0.000287222
1.59912
-2.02368e-05
0.000459425
1.59776
-0.000729004
0.00088578
1.59546
-0.00222043
0.00159249
1.59508
-0.00441695
0.00132801
1.59185
-0.00688599
0.00406831
1.58119
-0.0227353
0.0110346
1.57409
-0.0648669
0.0190454
1.59056
-0.0320036
0.034678
-0.0439775
-0.0374035
-0.0499079
1.65433
-0.0683476
0.0469675
-0.0558332
-0.074474
-0.062428
1.66755
-0.0309256
0.0337689
-0.0186542
-0.0350182
-0.028617
1.6464
-0.00285
0.0198123
-0.000622968
-0.0126632
-0.01512
1.62387
0.00967437
0.0140573
0.012247
0.00133951
0.00451231
1.61375
0.0116871
0.0140579
1.61155
-0.00990971
0.012133
1.61299
-0.0154704
0.0102103
1.61256
-0.0116914
0.00803068
1.61333
-0.0110149
0.00635911
1.61424
-0.0105453
0.00498116
1.61502
-0.00922469
0.00365545
1.6159
-0.00779521
0.00233612
1.61702
-0.00670144
0.00105654
1.61849
-0.00594658
-0.000233874
1.62043
-0.00555433
-0.00161018
1.6231
-0.00560145
-0.00322667
1.62675
-0.00612241
-0.00508906
1.6324
-0.00704322
-0.00795724
1.63901
-0.00732809
-0.0102677
-0.00758222
-0.0199828
1.59991
1.56611e-05
9.4322e-05
1.59984
6.73505e-05
0.00022374
1.59967
0.000213178
-5.81516e-05
1.59859
-8.1498e-05
0.000440121
1.59466
-0.000946493
0.00267118
1.59038
-0.0027108
0.00258521
1.58545
-0.00620611
0.00427051
1.56602
-0.0181718
0.0149272
0.388352
-0.012346
0.0304724
0.385051
0.386063
0.38274
-0.0215872
-0.0140712
-0.0234715
0.389837
-0.0385318
0.00508221
0.409569
-0.0915947
0.0100918
-0.39639
-0.422095
0.43353
-0.052274
0.00998445
-0.43351
0.430427
-0.00470693
0.00495205
-0.421272
0.414619
0.0141153
0.00221665
1.6227
-0.0132719
0.038269
-0.408942
-0.409036
-0.407438
-0.410471
1.62125
-0.0427503
0.0343823
1.61824
-0.0391903
0.0268041
1.61768
-0.0306109
0.0195533
1.61822
-0.0249016
0.0134314
1.61862
-0.0190147
0.00815699
1.61888
-0.0126796
0.0032741
1.61927
-0.00692123
-0.00119192
1.61986
-0.00205382
-0.00517314
1.6207
0.00200331
-0.00874144
1.62196
0.00526328
-0.0120576
1.62399
0.00765136
-0.01532
1.62705
0.0092701
-0.0185825
1.63231
0.00990116
-0.0224459
1.639
0.0120548
-0.0263584
0.0109836
-0.0326456
1.59986
7.20211e-05
9.3388e-05
1.59951
0.000196659
0.000225503
1.59963
0.000314389
-0.000209374
1.59936
0.000449003
-0.000252461
1.59508
0.000798592
0.00253963
1.58814
-0.000135788
0.00438566
1.57865
-0.0028283
0.00613218
0.389288
-0.00848032
0.018937
0.388094
0.386929
0.385751
0.383713
-0.0102597
0.00351687
0.370233
-0.051476
0.0129951
0.0451134
-0.376603
0.405245
0.0429976
-0.380208
0.134077
-0.0609263
-0.0411875
-0.0524799
-0.0475721
0.402224
-0.417299
0.0810364
-0.0276306
-0.0402488
-0.0364933
-0.0344993
0.0228871
0.0136706
0.0126701
0.0238561
-0.385914
0.374665
0.0166616
-0.0111918
-0.0172771
-0.0132442
-0.0138719
0.0160411
0.00887127
0.00799045
0.0173932
-0.368904
0.36543
-0.00993184
-0.005497
-0.00607113
-0.00378831
-0.00483143
0.00556339
0.011499
0.0118499
0.00480154
1.34585
-0.0967441
0.034981
-0.356372
-0.23342
-0.381103
-0.326242
1.38097
-0.104847
0.0271098
1.41473
-0.0861473
0.013291
1.45101
-0.0666867
-0.000125613
1.4853
-0.0484774
-0.0106457
1.51535
-0.0301139
-0.0188767
1.5409
-0.0125539
-0.0256166
1.56217
0.00283549
-0.0309649
1.57936
0.0157474
-0.034943
1.59298
0.0262635
-0.037837
1.60371
0.0345128
-0.0399767
1.61257
0.0404338
-0.0416828
1.62016
0.0445327
-0.0429986
1.62836
0.0459681
-0.044533
1.63585
0.0497676
-0.045512
0.0421656
-0.0446046
1.59985
0.000139813
9.38785e-05
1.59935
0.00040689
0.000290469
1.59869
0.000714703
0.000274205
1.59821
0.00111104
-0.000174762
1.59565
0.00168722
0.00168104
1.58781
0.00263794
0.00507655
1.57309
0.00442374
0.00749233
0.385907
0.00892707
0.0204487
0.384748
0.382962
0.381648
0.374686
-0.00124773
0.00506862
0.00744872
0.0100079
-0.0902082
0.0872084
-0.00843723
0.00152607
0.0586277
-0.0748436
0.0507894
0.016098
-0.0133378
-0.0131625
-0.0122762
-0.0119373
0.0953265
-0.0404598
0.0538827
-0.107056
-0.00243207
0.00130275
0.00277889
-0.00352616
-0.0542032
0.0381386
0.0506017
-0.0412669
0.00157376
0.00186279
0.00174921
0.00157287
-0.0463643
0.0229107
-0.0332676
0.00971314
0.0470129
0.852027
-0.0983688
-0.0765225
-0.131994
-0.168984
-0.256297
-0.216366
0.896992
-0.0665477
-0.0831516
0.945762
-0.0475417
-0.0872872
1.00267
-0.0317777
-0.0917524
1.06249
-0.0167387
-0.0915
1.12238
-0.00144067
-0.0884935
1.18044
0.013942
-0.0845005
1.23448
0.0286997
-0.0798479
1.28302
0.042093
-0.0748438
1.32561
0.0535311
-0.0698235
1.36246
0.0626459
-0.0649923
1.39445
0.0689485
-0.0605807
1.42165
0.0731883
-0.056034
1.44809
0.07247
-0.0532522
1.46896
0.073366
-0.0448093
0.057037
-0.0363441
1.59985
0.000202875
9.27455e-05
1.59938
0.00060262
0.000286279
1.59875
0.00108523
0.000265029
1.59834
0.00172263
-0.000193597
1.59593
0.00246683
0.00164088
1.58835
0.0052315
0.00498968
1.57451
0.01101
0.00727422
0.385675
0.0236239
0.0195695
0.387216
0.382802
0.384575
-0.00356977
0.375885
0.00830764
0.00507656
-0.00260697
-0.0891245
0.0822718
0.00747169
0.00193804
-0.0180823
-0.0186813
0.0550993
0.0448277
-0.0108705
-0.0224699
-0.0204204
-0.0094954
0.0120426
-0.0716647
0.0674059
0.00163164
-0.00933274
-0.0663425
0.0315813
-0.0153134
-0.0139145
0.0640466
1.08019
-0.139027
0.0222088
-0.235318
-0.303373
-0.245168
-0.277745
1.06736
-0.0759451
0.0223346
1.04624
-0.0522613
0.0259298
1.02679
-0.0351409
0.0228785
1.0123
-0.0209879
0.018786
1.0085
-0.0111351
0.0135488
1.0182
-0.00350341
0.00780271
1.03972
0.00456772
0.00266183
1.06949
0.0137281
-0.0013515
1.10384
0.0235708
-0.00435337
1.13983
0.0333542
-0.00671609
1.17528
0.0420814
-0.0086697
1.20891
0.0500661
-0.0107237
1.24105
0.052472
-0.0124855
1.26578
0.0573863
-0.0091326
0.0455409
-0.0209082
1.59988
0.000245532
9.00867e-05
1.59958
0.000689458
0.000213075
1.59981
0.00110214
-0.000235847
1.59974
0.00210038
-0.000303386
1.59585
0.00391724
0.00244225
1.58983
0.00711426
0.0041476
1.58282
0.0125021
0.00552679
0.390609
0.0279553
0.0167482
0.392063
0.388845
0.390266
-0.0129895
0.385524
0.0143289
0.00372468
-0.012676
0.0571309
0.013589
-0.0183437
-0.0151718
-0.0215865
0.093948
0.0920471
0.0938426
0.0955264
-0.37866
-0.0435136
-0.104253
0.111681
0.00514657
0.0308324
0.00741691
-0.115851
0.11619
-0.00230593
-0.00539793
0.0240258
-0.11064
0.107713
-0.000648169
-0.020477
0.0208434
-0.103277
0.000915321
0.101775
-0.0202296
1.54768
-0.137396
0.00170104
-0.391956
-0.394856
-0.371151
-0.392979
1.54267
-0.0861872
0.0153316
1.52724
-0.0669557
0.0301831
1.50811
-0.0556735
0.0396998
1.48084
-0.0421869
0.0484954
1.44455
-0.0303672
0.0555552
1.40194
-0.0210346
0.0601763
1.35767
-0.0131486
0.0620314
1.31591
-0.00616228
0.0616972
1.27995
7.10978e-05
0.0594878
1.2515
0.00556965
0.0562198
1.23046
0.0105387
0.0524825
1.21821
0.0149013
0.0471914
1.21097
0.0158477
0.0435099
1.20638
0.0176941
0.0438876
0.00304837
0.0138892
1.59994
0.000227231
8.90373e-05
1.59995
0.000481796
0.000203873
1.59994
0.00121187
-9.84539e-05
1.59917
0.00251586
0.000363177
1.59583
0.0047488
0.00251571
1.5928
0.00790872
0.00224121
1.59061
0.0113051
0.00339072
1.57818
0.027789
0.0125827
0.392119
0.0680668
0.0228514
-0.0146675
-0.0253317
-0.0173379
-0.0279763
0.395042
0.391265
0.394127
-0.0438379
0.395994
0.0344506
0.00528582
-0.0725948
0.421652
0.0542505
0.0054737
-0.408932
-0.00259871
-0.428801
0.432285
0.00435303
-0.00500728
0.042909
-0.427365
0.421538
-0.0309917
-0.00601641
0.0567515
-0.415923
0.408153
-0.0410401
-0.00781488
1.5936
-0.0901544
-0.0375061
-0.400219
-0.401572
-0.400013
-0.40145
1.59524
-0.059389
-0.0283712
1.59415
-0.0447054
-0.02111
1.59518
-0.0407411
-0.0159259
1.59739
-0.033813
-0.0105532
1.59818
-0.0266798
-0.00444265
1.59581
-0.0207867
0.00216336
1.58908
-0.0155402
0.00917508
1.5771
-0.010584
0.0164475
1.56004
-0.00602026
0.0231838
1.53833
-0.0020785
0.0293574
1.51324
0.00115561
0.034386
1.48846
0.00278664
0.0366924
1.46153
0.00324103
0.0392172
1.44187
0.00227721
0.0347359
-0.0188736
0.000819565
1.60008
6.71546e-05
9.00481e-05
1.59983
0.000477647
0.000261061
1.59947
0.00116931
0.000405778
1.59848
0.00272574
0.000784544
1.59685
0.00499148
0.00139406
1.59776
0.00608226
0.00092436
1.59697
0.00895018
0.00313904
1.59159
0.0243391
0.00882953
1.59516
0.0509823
0.0134941
1.61735
0.091199
0.018947
-0.0272684
-0.0334314
-0.032574
-0.0391624
1.66174
0.0872049
0.0100323
-0.0434164
-0.0208248
-0.049364
-0.0279496
1.66517
-0.00333399
-0.00544548
-8.51448e-05
0.00831723
-0.00327777
0.000604636
1.64026
-0.0242106
-0.0163024
0.0212653
0.020668
0.0143192
0.00938694
1.61754
-0.0670169
-0.0188663
0.0293336
0.0296799
0.0241652
0.0255805
1.60663
-0.0601387
-0.0190235
1.6048
-0.0391898
-0.0183021
1.60636
-0.028994
-0.0172142
1.60509
-0.0231384
-0.0162929
1.60501
-0.0188248
-0.014874
1.6054
-0.0138988
-0.013131
1.60601
-0.0100148
-0.0113447
1.60698
-0.00704229
-0.00941066
1.60819
-0.00457495
-0.00717142
1.60929
-0.00252785
-0.00455919
1.60979
-0.000987745
-0.00158924
1.60958
7.1788e-05
0.00120771
1.60889
0.000249069
0.00302405
1.6071
-0.000698799
0.00542666
1.60977
-0.00025691
-0.000440287
-0.0149575
-0.0251534
1.60001
-2.18626e-05
9.08658e-05
1.59989
0.000340529
0.000265068
1.59933
0.00126519
0.000462563
1.59857
0.00275007
0.000741534
1.59866
0.00398868
0.000920557
1.60019
0.00377223
0.000783498
1.59768
0.00791495
0.00354393
1.59703
0.0192272
0.00576094
1.60347
0.0365562
0.00799158
1.61159
0.0723608
0.010739
1.64409
0.0479624
0.00679455
1.64616
-0.0035026
-0.00179112
1.63418
-0.00368329
-0.00843349
1.61947
-0.0410069
-0.0112022
1.61026
-0.0395705
-0.0112838
1.60861
-0.0279734
-0.00950551
1.60763
-0.0211097
-0.00684728
1.60647
-0.0165224
-0.00541812
1.60607
-0.0144626
-0.00392532
1.60613
-0.0114421
-0.00247385
1.60629
-0.00895258
-0.0011749
1.60656
-0.00716637
-9.87296e-05
1.60706
-0.00579172
0.000766292
1.60786
-0.00471544
0.00142079
1.60898
-0.00395212
0.00183321
1.61031
-0.00339505
0.00203573
1.61223
-0.00310195
0.00122308
1.61374
-0.00351504
0.000996437
1.61978
-0.00109726
-0.00549596
-0.0081057
-0.0270814
1.60003
-0.000133043
9.14538e-05
1.59981
0.000322835
0.000245181
1.59959
0.00107034
0.000422418
1.59926
0.00244253
0.000641515
1.60011
0.00238646
0.000755172
1.59886
0.00377426
0.00124797
1.59784
0.00598871
0.00295593
1.59788
0.015532
0.00366406
1.60475
0.0247872
0.00490923
1.61993
0.0510942
0.00612477
1.63275
0.0308322
0.00435178
1.64867
-0.0192115
-0.000142363
1.62924
0.0197053
-0.00388636
1.61973
-0.0252308
-0.00618811
1.61289
-0.0261657
-0.0065046
1.61054
-0.0198734
-0.00568563
1.60915
-0.0152199
-0.00445673
1.60825
-0.0112172
-0.00435475
1.60766
-0.00981482
-0.00402223
1.6075
-0.00765336
-0.00358313
1.60747
-0.00580689
-0.00307799
1.60752
-0.00455514
-0.00261063
1.60765
-0.00371787
-0.00216363
1.60791
-0.00316436
-0.00177342
1.60838
-0.00286573
-0.00157644
1.60907
-0.00270374
-0.00147494
1.61068
-0.00258088
-0.00235792
1.61186
-0.00273628
-0.00227976
1.61791
-0.000277799
-0.0071867
-0.00237411
-0.0243582
1.60002
-0.000236041
8.9556e-05
1.59991
0.000221167
0.000224486
1.59973
0.000876213
0.000378486
1.59955
0.00206719
0.000563583
1.5996
0.00168138
0.000659536
1.599
0.00316902
0.00120606
1.59809
0.00459475
0.00231187
1.59998
0.0110404
0.00262128
1.6048
0.0167388
0.00325259
1.61757
0.0346589
0.00369638
1.62611
0.0194342
0.00289211
1.62138
-0.0148279
0.000393375
1.62562
0.0174586
-0.00194806
1.61933
-0.0151736
-0.00371505
1.61415
-0.0167601
-0.00417483
1.61161
-0.0134817
-0.00379567
1.61001
-0.0107138
-0.00285803
1.60901
-0.00748068
-0.00269662
1.60824
-0.00674206
-0.00226154
1.60783
-0.00542252
-0.00178363
1.60764
-0.00425864
-0.0013139
1.60758
-0.00349684
-0.000958362
1.60765
-0.00303262
-0.000712378
1.60786
-0.00275237
-0.000597217
1.60834
-0.00262749
-0.000725325
1.60903
-0.00256478
-0.000944679
1.61078
-0.00242637
-0.00214262
1.61223
-0.00227714
-0.00224688
1.61862
-0.000304186
-0.00666676
0.000775051
-0.0205725
1.59999
-0.000299972
8.54956e-05
1.59999
2.20266e-05
0.000207132
1.59987
0.000655993
0.000345397
1.59992
0.00151489
0.000505196
1.59981
0.00119048
0.000607535
1.59973
0.00222603
0.00102854
1.60023
0.00225073
0.00185678
1.60131
0.00800723
0.00197197
1.60556
0.0101305
0.00239168
1.61612
0.0217562
0.00237807
1.62218
0.0114414
0.00195755
1.61694
-0.0101568
0.000603139
1.62295
0.012701
-0.00122563
1.6187
-0.00853403
-0.00235015
1.6147
-0.00993304
-0.00279382
1.61225
-0.00835419
-0.00263688
1.61054
-0.00700102
-0.00195262
1.60949
-0.00450404
-0.00189266
1.60866
-0.00422977
-0.00164208
1.60814
-0.00346916
-0.00138821
1.60784
-0.00275867
-0.00116092
1.6077
-0.00228508
-0.00102566
1.6077
-0.00200519
-0.000987533
1.60787
-0.00184897
-0.00103944
1.60832
-0.00179538
-0.00130199
1.60904
-0.00177878
-0.00161503
1.61092
-0.0016918
-0.00287738
1.61269
-0.00143484
-0.00293646
1.61919
-0.000188403
-0.00698797
0.00226062
-0.0174414
1.6
-0.000373079
8.23989e-05
1.59999
-0.000153316
0.000193742
1.60005
0.00027624
0.000321137
1.60019
0.000911776
0.00046763
1.6002
0.000579564
0.000613337
1.60074
0.000810019
0.000882094
1.60003
0.00144382
0.00153224
1.60237
0.00411217
0.00156927
1.60634
0.00432572
0.00186625
1.61523
0.0111362
0.00176055
1.61995
0.00531311
0.00144374
1.61451
-0.00517875
0.000485051
1.62128
0.00663773
-0.0006737
1.61822
-0.00383188
-0.00160446
1.61497
-0.00460795
-0.0020387
1.61265
-0.00396873
-0.00203106
1.61099
-0.00371495
-0.00158336
1.60982
-0.00179757
-0.00149904
1.60896
-0.0019613
-0.00137313
1.60836
-0.00162747
-0.00121032
1.60798
-0.00128181
-0.00106686
1.60776
-0.00104614
-0.00100318
1.60772
-0.000911279
-0.00103008
1.60785
-0.000847691
-0.00114158
1.6083
-0.000847826
-0.00146718
1.60904
-0.000877076
-0.00183413
1.61106
-0.000886693
-0.0031644
1.61317
-0.000751535
-0.00324995
1.61976
-0.000162861
-0.00700553
0.00158863
-0.0143089
1.59955
8.17257e-05
1.59921
0.000192477
1.59918
0.000305715
1.59965
0.000452171
1.5996
0.00062683
1.59961
0.000810682
1.59972
0.00134172
1.60246
0.00138234
1.60519
0.00161841
1.6148
0.00154248
1.61892
0.00121241
1.61334
0.000414048
1.62045
-0.000455952
1.61792
-0.00127993
1.61502
-0.00168299
1.61278
-0.00170977
1.61042
-0.00132997
1.60987
-0.00122485
1.60904
-0.00111574
1.60839
-0.000962532
1.60796
-0.000833957
1.60772
-0.000787463
1.60765
-0.000831386
1.60776
-0.000974634
1.60821
-0.001351
1.60897
-0.00175711
1.61107
-0.00320835
1.6134
-0.00332725
1.62004
-0.00703519
-0.0127976
1.5996
0.000358328
0.000135387
1.59919
0.000232855
0.000419903
1.59894
-0.000103894
0.000741693
1.59872
-0.000302991
0.00111681
1.59903
-0.00120685
0.00173966
1.59904
-0.00124847
0.00239915
1.59924
-0.00159889
0.00327303
1.60184
-0.00470102
0.00429576
1.60444
-0.00515213
0.00534439
1.60798
-0.0064376
0.0061104
1.61453
-0.00955253
0.00639374
1.60986
0.00244045
0.00519376
1.61671
-0.00906527
0.0043957
1.61847
-0.00291363
0.00237793
1.61625
0.00168914
0.0011085
1.61485
0.00138269
0.000318333
1.61624
-0.000461732
-0.000502217
1.61661
-0.001409
0.00128374
1.61662
-0.000155656
0.000195173
1.61691
-0.00014207
-0.000212872
1.61758
-0.000404892
-0.000452964
1.6186
-0.000632202
-0.000736456
1.62
-0.000853102
-0.00110687
1.62191
-0.00111528
-0.00160939
1.62441
-0.00144927
-0.00218852
1.62768
-0.00186957
-0.00306584
1.63193
-0.00237051
-0.00406791
1.63798
-0.00312192
-0.00630416
1.6447
-0.00354563
-0.00666662
-0.00534432
-0.0127676
1.6
0.000321399
0.000137979
1.59988
0.000161447
0.000428863
1.59973
-0.000311969
0.000757986
1.59942
-0.000480302
0.00110146
1.59907
-0.00189944
0.00187377
1.59914
-0.00261712
0.00253957
1.59952
-0.00341339
0.00352591
1.60151
-0.00897975
0.0047292
1.60518
-0.0116799
0.00603089
1.61035
-0.0150163
0.00707907
1.61523
-0.017939
0.00754597
1.6114
0.00405523
0.00577418
1.61749
-0.0180808
0.00540666
1.62014
-0.00689111
0.00271382
1.6183
0.00287541
0.00133333
1.61724
0.00216873
0.000716062
1.61843
-0.00079967
-0.000226697
1.61675
-0.000876826
0.00154369
1.61636
-7.14353e-05
0.000515804
1.61662
-0.000441415
0.000135598
1.61726
-0.000959245
-9.15296e-05
1.61822
-0.00139032
-0.000370326
1.61954
-0.00181148
-0.000745883
1.62135
-0.00232724
-0.00125188
1.62368
-0.00295316
-0.00181801
1.62686
-0.00376729
-0.00283906
1.63096
-0.00471057
-0.00388098
1.63686
-0.00615083
-0.00627914
1.64327
-0.0068962
-0.00659418
-0.0103589
-0.0137691
1.59996
0.000320837
0.000143002
1.59988
4.04711e-05
0.000446251
1.59957
-0.000356197
0.000792323
1.59921
-0.000565922
0.0010897
1.59854
-0.00251825
0.00211585
1.59808
-0.00357566
0.00282326
1.59968
-0.00659845
0.00404866
1.60013
-0.0121088
0.00564552
1.60376
-0.0188524
0.00752309
1.60972
-0.0253515
0.00922617
1.60941
-0.0221856
0.0100836
1.61411
-0.00348997
0.0077159
1.6204
-0.0280856
0.00682074
1.62067
-0.0086255
0.00314329
1.61816
0.00469076
0.00156436
1.61684
0.00300068
0.00114191
1.61748
-0.00112338
0.000645743
1.61644
-0.000709455
0.00141993
1.61626
-0.00021551
0.000671848
1.61655
-0.000879968
0.000323497
1.61719
-0.00161182
3.21013e-05
1.61813
-0.00217785
-0.00032643
1.61942
-0.00275002
-0.000780117
1.62113
-0.00343681
-0.00132276
1.62336
-0.00431926
-0.00196394
1.6265
-0.00545686
-0.00315014
1.63054
-0.00678797
-0.00429098
1.63635
-0.0087835
-0.0069761
1.64266
-0.00989144
-0.00717964
-0.0145268
-0.016678
1.59999
0.000280733
0.00015002
1.59979
4.33031e-05
0.000470554
1.59945
-0.000397039
0.000842186
1.59908
-0.000645679
0.0011441
1.59815
-0.00309154
0.00239664
1.59698
-0.00406194
0.00325512
1.59692
-0.00841387
0.00487643
1.59798
-0.0165241
0.0071671
1.60151
-0.0271944
0.0101401
1.6096
-0.0392098
0.0129867
1.61735
-0.0363819
0.0147956
1.61968
-0.00922589
0.0103208
1.62299
-0.0367635
0.00987355
1.62165
-0.00902363
0.00399577
1.61802
0.00765038
0.00195791
1.61652
0.00393623
0.00174489
1.61691
-0.00163171
0.0016897
1.61618
-0.000781875
0.00185816
1.61606
-0.000591699
0.00132614
1.61643
-0.00161253
0.000986204
1.61712
-0.00251464
0.000614643
1.61803
-0.00313117
0.000108307
1.61924
-0.00376531
-0.000489432
1.62085
-0.0045438
-0.00120277
1.62304
-0.00556227
-0.00212433
1.62606
-0.00689783
-0.00346429
1.63003
-0.0084908
-0.0048614
1.63571
-0.0108543
-0.00790855
1.642
-0.0122876
-0.00827687
-0.0176167
-0.020927
1.6
0.000230899
0.00015834
1.59973
0.000100721
0.000499697
1.59936
-0.000438114
0.000903966
1.59937
-0.00112468
0.00124577
1.59502
0.000761672
0.00148391
1.59573
-0.00816349
0.0050635
1.59484
-0.00984017
0.00605301
1.59435
-0.0203734
0.00948381
1.5983
-0.037786
0.0144005
1.61125
-0.0602221
0.0195548
1.627
-0.0622033
0.0235844
1.6491
-0.036258
0.0156938
1.62856
-0.0231721
0.0133749
1.62309
-0.00533471
0.00482772
1.61777
0.0123452
0.00260419
1.61636
0.00472532
0.00254495
1.61643
-0.0021405
0.00259646
1.61587
-0.00105818
0.00214717
1.61582
-0.00121331
0.00155926
1.61628
-0.00262961
0.00119278
1.61701
-0.00363417
0.000771221
1.61793
-0.00422715
0.000153515
1.61902
-0.00478304
-0.000583022
1.62058
-0.00553553
-0.00166596
1.62272
-0.00652905
-0.00296767
1.62561
-0.00788345
-0.00463173
1.62947
-0.00955199
-0.00652327
1.63495
-0.012086
-0.0100535
1.6414
-0.0135494
-0.011332
-0.0191213
-0.0270125
1.60007
9.30856e-05
0.000167403
1.59974
0.000219346
0.000515359
1.59912
-0.000221863
0.000941073
1.59857
-0.00113518
0.00142191
1.60106
-0.00142839
0.000855704
1.59424
-0.0069075
0.00677825
1.59213
-0.0109446
0.00763083
1.58958
-0.0229939
0.0128161
1.59198
-0.0493569
0.0211339
1.61043
-0.0906902
0.031533
1.64811
-0.11598
0.0403205
1.6497
-0.045409
0.0257444
1.64939
-0.0322781
0.0194162
1.62477
0.0175378
0.00722123
1.6169
0.019955
0.00516306
1.61646
0.00403042
0.00614746
1.61608
-0.00317447
0.00649152
1.61539
-0.00217327
0.0054253
1.61548
-0.00300929
0.00428181
1.616
-0.00480104
0.00345483
1.61667
-0.00584712
0.00264909
1.61745
-0.00631969
0.00170609
1.61846
-0.00680847
0.000669511
1.62
-0.0074241
-0.000797835
1.62208
-0.00824494
-0.00241207
1.62488
-0.00942083
-0.00445054
1.62868
-0.0109022
-0.00693089
1.63404
-0.0132573
-0.0110333
1.64108
-0.0141312
-0.0142175
-0.0194858
-0.0323018
1.59992
0.000102003
0.000169341
1.59994
-2.01695e-05
0.000519628
1.59937
0.000175541
0.000639333
1.59846
-0.000703433
0.00136424
1.59798
-0.00159112
0.0022503
1.59102
-0.00457963
0.00597815
1.58457
-0.0111862
0.010779
1.58022
-0.0249447
0.0173825
1.58359
-0.0654264
0.0317856
1.59656
-0.0305822
0.0531094
-0.0364219
-0.0282736
-0.0268238
1.64595
-0.0564382
0.0727384
-0.0492867
-0.0440494
-0.0413815
1.65391
-0.0209486
0.0455533
-0.0171102
-0.0135376
-0.0136442
1.63905
-0.00346398
0.0290522
-0.0104753
-0.000726337
-0.0119988
1.62182
0.00846962
0.0115156
0.00997035
0.00971378
0.00921522
1.61448
0.0336834
0.00775604
1.61533
0.00546774
0.00992345
1.61483
-0.00301928
0.0106294
1.61435
-0.00276732
0.00917054
1.61512
-0.0048641
0.00751772
1.61601
-0.00661923
0.00597911
1.61668
-0.00700672
0.00420072
1.61742
-0.00689928
0.00224309
1.61838
-0.00680156
0.000134009
1.61977
-0.00682209
-0.00217645
1.62161
-0.0070603
-0.00462791
1.62417
-0.00772088
-0.00752507
1.62772
-0.00872329
-0.0109384
1.63299
-0.0107292
-0.0159713
1.64048
-0.0103463
-0.0217678
-0.0161764
-0.0393561
1.59996
7.53503e-05
0.000166427
1.59966
0.000165153
0.000345063
1.59901
-0.000191964
0.000961123
1.59749
-0.000335612
0.00160446
1.59673
0.000200717
0.001646
1.59131
-0.00312331
0.00656699
1.57927
-0.00871063
0.0138615
1.5706
-0.02441
0.0230951
0.388628
-0.0131359
0.0491641
0.386136
0.390502
0.387688
-0.0208298
-0.0130713
-0.0193972
-0.0121527
0.38931
-0.0360115
0.0169348
-0.0218439
0.406382
-0.0724023
0.0278509
-0.396401
-0.0192723
-0.415998
0.423752
-0.0303301
0.0208648
-0.0127157
-0.424213
0.421567
-0.0024193
0.0142849
-0.00768474
-0.416564
0.411204
0.0134108
0.00809883
1.61451
0.0783131
0.00482753
-0.406248
-0.406388
-0.40648
-0.406456
1.61525
0.0292862
0.00994421
1.61297
0.0165513
0.00961325
1.61311
0.0102422
0.00649975
1.6143
0.00384239
0.00361532
1.61528
-5.94759e-05
0.000697113
1.61597
-0.00171641
-0.00263871
1.61663
-0.00243358
-0.00625117
1.61741
-0.00279757
-0.00991312
1.61838
-0.00302807
-0.0134677
1.61964
-0.00333734
-0.0170378
1.62154
-0.00406197
-0.0209355
1.62425
-0.0049812
-0.0251854
1.62901
-0.00719788
-0.0309864
1.63527
-0.00548989
-0.0377297
-0.0119153
-0.0507348
1.5999
9.37109e-05
0.000173585
1.59973
0.00026424
0.000306607
1.59842
0.000335113
0.000584773
1.5947
0.000215324
0.00292112
1.59518
0.000361444
0.00190565
1.58921
0.000455571
0.00678898
1.57525
-0.00265389
0.0140558
0.388125
-0.011199
0.0312245
0.386546
0.388845
0.386279
-0.00815161
0.383052
-0.0112901
0.0114066
0.371998
-0.0421597
0.0313129
-0.0237439
0.0405522
-0.377793
0.0698954
-0.068732
-0.3857
0.0920305
0.104601
0.102792
0.103812
0.103284
-0.0261144
-0.0322286
-0.0347175
-0.0289211
-0.0126501
-0.107374
0.010274
0.109726
-0.0101081
0.0101207
-0.110063
-0.00826813
2.37216e-05
0.108792
0.00200466
0.0075164
-0.105185
-0.00479029
-0.00532432
0.00702496
0.00386357
0.104412
1.61775
0.169902
-0.0577958
-0.403586
-0.405918
-0.405908
-0.401056
1.61998
0.10017
-0.0458831
1.62214
0.0745865
-0.0467857
1.62436
0.0592371
-0.0512376
1.6238
0.0470338
-0.0531803
1.62121
0.0386062
-0.054862
1.61718
0.0330363
-0.056268
1.61229
0.0290026
-0.0574471
1.60674
0.0259257
-0.0580773
1.60077
0.0235138
-0.0583842
1.59461
0.0214336
-0.0585969
1.58872
0.0191524
-0.059084
1.58331
0.0171435
-0.0598838
1.58054
0.0127509
-0.0619829
1.57537
0.017191
-0.0633251
0.00220563
-0.0662016
1.59987
0.000139445
0.000183738
1.59952
0.000404198
0.000501995
1.59938
0.000707501
5.1996e-05
1.59675
0.001097
0.00158398
1.59419
0.00165965
0.00294923
1.5898
0.00259167
0.00733728
1.57722
0.00426703
0.0131751
0.385853
0.00837145
0.0354801
0.38557
0.384895
0.386339
0.374481
-0.00177893
0.0149307
-0.0104568
0.00871974
-0.00830999
0.00896041
-0.089861
0.0868981
-0.00783921
0.0102142
-0.0104287
0.0109498
-0.0219304
0.0231052
-0.0118852
0.0102213
0.00188899
-0.000949918
-0.00462961
0.00523451
-0.0020282
0.000126582
8.71895e-05