/*--------------------------------*- C++ -*----------------------------------*\
| =========                 |                                                 |
| \\      /  F ield         | OpenFOAM: The Open Source CFD Toolbox           |
|  \\    /   O peration     | Version:  2512                                  |
|   \\  /    A nd           | Website:  www.openfoam.com                      |
|    \\/     M anipulation  |                                                 |
\*---------------------------------------------------------------------------*/
FoamFile
{
    version     2.0;
    format      ascii;
    arch        "LSB;label=32;scalar=64";
    class       surfaceScalarField;
    location    "260";
    object      phi;
}
// * * * * * * * * * * * * * * * * * * * * * * * * * * * * * * * * * * * * * //

dimensions      [0 3 -1 0 0 0 0];

oriented        oriented;

internalField   nonuniform List<scalar> 
260615
(
1.59991
-4.51422e-05
0.000125876
1.5998
-0.000159646
0.00026036
1.59969
-0.000324094
0.000421837
1.59963
-0.000585678
0.00062651
1.59974
-0.00100975
0.000887684
1.60016
-0.00163416
0.00119751
1.60072
-0.00211816
0.00153826
1.60367
-0.00493062
0.00196718
1.60713
-0.00624262
0.00275475
1.61221
-0.00842079
0.00330605
1.61865
-0.0101417
0.00367361
1.6172
-0.00217621
0.00360092
1.62889
-0.0148743
0.00314819
1.62958
-0.00290655
0.00219431
1.6278
0.000643853
0.00113098
1.62492
0.00261636
0.000258254
1.62117
0.00379395
-5.0588e-05
1.61935
0.00220617
-0.000389416
1.61756
0.0023445
-0.00054603
1.61618
0.00199334
-0.000590498
1.61515
0.00162615
-0.000585775
1.61442
0.00134346
-0.000589999
1.61387
0.00115685
-0.000591128
1.61344
0.00102645
-0.0005876
1.6131
0.000924929
-0.000578621
1.61282
0.000851539
-0.000564969
1.61258
0.000808626
-0.000565571
1.61236
0.000784928
-0.000558576
1.61213
0.000795648
-0.000571678
0.000819483
-0.000547841
1.5999
-8.55055e-05
0.000129306
1.59977
-0.000303941
0.000266372
1.59962
-0.000619545
0.000431836
1.5995
-0.00112538
0.000643748
1.59951
-0.00195363
0.000918429
1.59984
-0.0032408
0.00125572
1.60087
-0.00480945
0.00164259
1.603
-0.00918698
0.00210419
1.60644
-0.0127359
0.00302652
1.61178
-0.017503
0.00371223
1.61892
-0.021537
0.00421942
1.61822
-0.00574417
0.00424504
1.63017
-0.0305518
0.00369286
1.63064
-0.00606061
0.00266345
1.62845
0.00140628
0.00142974
1.62516
0.00548742
0.000416579
1.62184
0.00702416
8.74794e-05
1.61929
0.00504924
-0.00029083
1.61742
0.00466168
-0.000439179
1.61605
0.00386877
-0.000480861
1.61505
0.00311695
-0.000475524
1.61434
0.00255372
-0.000473456
1.6138
0.00218458
-0.000476022
1.61339
0.00192105
-0.000468249
1.61306
0.00171205
-0.000446021
1.61278
0.00156048
-0.000426867
1.61254
0.00146494
-0.000408973
1.61231
0.00140812
-0.000386996
1.61212
0.00137241
-0.000386755
0.00128949
-0.000345067
1.59989
-0.000117101
0.000134439
1.59971
-0.000419546
0.000276989
1.59949
-0.000860876
0.00044807
1.59926
-0.00157702
0.000675577
1.59907
-0.00276835
0.000982102
1.59912
-0.0046835
0.00138372
1.59968
-0.00729839
0.00190209
1.60159
-0.0135103
0.00238733
1.60493
-0.019715
0.00361691
1.61076
-0.0279706
0.00460267
1.6195
-0.035735
0.00542262
1.62037
-0.0123132
0.00566007
1.63291
-0.0479951
0.00488424
1.63292
-0.00979111
0.00369458
1.62982
0.00245749
0.002032
1.62564
0.00898675
0.000671522
1.62169
0.0106506
0.000305684
1.61907
0.00787351
-0.000205245
1.61717
0.00688471
-0.000312311
1.61584
0.00559061
-0.000370578
1.61492
0.00445212
-0.000396501
1.61428
0.0036598
-0.000442956
1.61381
0.00317647
-0.000507275
1.61346
0.00285041
-0.000566843
1.61318
0.00261354
-0.000611225
1.61294
0.00247156
-0.000663976
1.61271
0.00241121
-0.000716468
1.6125
0.00238572
-0.000761369
1.61228
0.00240845
-0.000823564
0.00242324
-0.000851965
1.59987
-0.000135944
0.000137287
1.59964
-0.000493642
0.000290475
1.59932
-0.00102272
0.000473704
1.5989
-0.00189568
0.000720589
1.59843
-0.00337965
0.0010726
1.59801
-0.00584892
0.00155954
1.59795
-0.00949204
0.0022357
1.59923
-0.0177338
0.00291632
1.60222
-0.0273172
0.00458193
1.60875
-0.0406557
0.00611618
1.62043
-0.0549383
0.00748235
1.62431
-0.0240124
0.00778201
1.63732
-0.0684715
0.00742678
1.63669
-0.0149285
0.00570957
1.63199
0.00389865
0.00323742
1.62625
0.0135172
0.0011867
1.62153
0.0147234
0.000634192
1.61866
0.0106814
6.00131e-05
1.61668
0.00887754
-5.45616e-06
1.61538
0.00692756
-1.53232e-05
1.61452
0.00531382
2.37869e-05
1.61392
0.00425087
2.44235e-05
1.6135
0.0036075
1.21328e-05
1.61318
0.00316076
1.43657e-05
1.61293
0.00283804
3.38264e-05
1.6127
0.00264993
5.73592e-05
1.61248
0.00255316
7.89415e-05
1.61225
0.00250839
0.000107594
1.61213
0.00241285
0.000122217
0.00207212
0.00018897
1.59985
-0.000139042
0.000143618
1.59956
-0.000516038
0.000299908
1.5991
-0.00108353
0.000504054
1.59845
-0.00203924
0.000779049
1.59758
-0.00370749
0.00118291
1.59652
-0.00659366
0.00178875
1.59547
-0.0111302
0.00267149
1.5956
-0.0215916
0.00369227
1.59764
-0.035413
0.00602013
1.60499
-0.0564859
0.00844285
1.62207
-0.0827494
0.010686
1.6509
-0.0646514
0.0117549
1.64374
-0.073322
0.011936
1.64253
-0.0233554
0.0095849
1.6351
0.00575166
0.00549663
1.62696
0.0193526
0.00221956
1.62129
0.018962
0.00136917
1.61821
0.0130819
0.000641949
1.61628
0.0104138
0.000381564
1.61517
0.00790317
0.000131597
1.6145
0.00605348
-6.53495e-05
1.61407
0.00502453
-0.000333136
1.61378
0.00451791
-0.000615058
1.61358
0.00423099
-0.000858897
1.61339
0.0040867
-0.00106257
1.61319
0.00408569
-0.0012364
1.61298
0.00414215
-0.00138128
1.61277
0.00421479
-0.00150393
1.61253
0.00426364
-0.00160607
0.00405036
-0.00157054
1.59983
-0.000124879
0.000150155
1.59946
-0.000480933
0.000313494
1.59886
-0.00102833
0.000533577
1.59794
-0.00197278
0.000843141
1.59658
-0.00367176
0.00130814
1.59466
-0.00674393
0.00204878
1.59238
-0.0120684
0.0032049
1.5903
-0.0242896
0.00474619
1.59007
-0.0432299
0.00801024
1.59801
-0.0762334
0.0117667
1.62478
-0.125117
0.0155377
1.64686
-0.105692
0.0188636
1.65246
-0.100022
0.0209797
1.65086
-0.0400246
0.0180778
1.63839
0.00747385
0.0106499
1.62676
0.0261038
0.00478421
1.62002
0.0219301
0.00368502
1.61629
0.0133336
0.00341739
1.61432
0.00874714
0.00360057
1.61337
0.00513422
0.00370508
1.61289
0.00276507
0.00376698
1.61263
0.00162407
0.00365782
1.61251
0.00118698
0.00346179
1.61242
0.00107217
0.00324812
1.61229
0.00115378
0.00305876
1.61211
0.00138879
0.00287052
1.61194
0.00158126
0.00272071
1.61172
0.00183975
0.00258919
1.61171
0.00176958
0.00249493
0.00116563
0.00246942
1.59981
-9.36108e-05
0.000153509
1.59937
-0.000387873
0.000329498
1.59862
-0.000853385
0.000562916
1.59741
-0.0016775
0.000903463
1.59549
-0.00321122
0.00143948
1.59256
-0.00615046
0.00231847
1.58853
-0.0118584
0.00380259
1.58071
-0.0227315
0.00623016
1.57783
-0.0507493
0.0103697
1.58534
-0.0999275
0.0161396
1.62739
-0.0374944
0.0222353
-0.0471478
-0.0466657
-0.0581443
1.66168
-0.0414761
0.0322455
-0.0373579
-0.0469797
-0.0465018
1.66611
-0.0282671
0.0419539
-0.0340911
-0.0369727
-0.0471211
1.66467
-0.019905
0.0391071
-0.00783215
-0.0296098
-0.0204685
1.6421
0.00262328
0.0273437
1.62518
0.0265784
0.0163314
1.61972
0.0156663
0.0116039
1.61553
0.008283
0.00914504
1.61373
0.00321389
0.00727423
1.61308
-4.52799e-05
0.00579817
1.61287
-0.00162715
0.00459421
1.61282
-0.00181015
0.00347689
1.61281
-0.00128019
0.00246739
1.61273
-0.000516436
0.00167273
1.61249
0.000280865
0.00110933
1.61213
0.000987448
0.000746786
1.61173
0.00137613
0.000595953
1.61134
0.00155247
0.000667989
1.61123
0.00109185
0.000775798
-7.22114e-05
0.00181039
1.59979
-4.74895e-05
0.000156328
1.59929
-0.000243394
0.000343575
1.5984
-0.000569297
0.000588216
1.59692
-0.00116525
0.000958037
1.59445
-0.00231586
0.00155838
1.59031
-0.00460141
0.00256899
1.58353
-0.00949336
0.00439585
1.57297
-0.0199983
0.00780931
1.55874
-0.0493498
0.0128074
0.391945
-0.116253
0.0210586
0.388471
0.388562
0.38499
0.396371
-0.0431223
0.00119024
-0.406459
0.420353
-0.0591876
0.00381187
-0.424012
0.426249
-0.039918
0.00943924
-0.425141
0.427504
-0.0308884
0.00864162
1.66557
-0.0271183
0.0827038
-0.425533
-0.433416
-0.425011
-0.434703
1.64004
-0.019336
0.0713557
1.62256
-0.0351874
0.0681986
1.61069
-0.0455079
0.0655469
1.60239
-0.0500917
0.061542
1.59665
-0.0518625
0.0575195
1.59275
-0.051497
0.0537344
1.59031
-0.04922
0.0498314
1.58886
-0.0458576
0.0460188
1.58791
-0.0420881
0.0425125
1.58712
-0.0382984
0.0393644
1.58635
-0.0348754
0.0366177
1.58502
-0.0317738
0.034468
1.58356
-0.0296271
0.0326254
1.57959
-0.0268236
0.0318714
-0.0267215
0.031581
1.59977
9.26078e-06
0.000158293
1.59923
-6.11275e-05
0.000354541
1.59824
-0.000202225
0.000606407
1.59654
-0.00048458
0.00100092
1.59363
-0.0010628
0.00165131
1.58849
-0.00225423
0.00277292
1.57906
-0.00497636
0.00490025
1.56145
-0.0114428
0.00903523
1.52728
-0.0302401
0.0150368
0.378089
-0.0957447
0.0208443
0.37254
0.371608
0.363655
0.384671
-0.0540825
-0.000740015
0.0482245
0.422163
-0.407741
0.0760446
-0.0243025
-0.0228673
-0.0285147
-0.0200922
0.00324815
-0.000115375
0.0031654
-0.000965247
-0.421736
0.424762
0.0603502
-0.0310688
-0.0218121
-0.027238
-0.0214654
0.0118661
0.00732753
0.00812711
0.0111122
-0.434959
0.432563
0.0570038
-0.0221524
-0.032617
-0.0297497
-0.0223917
0.0098651
0.0141128
0.0183396
0.00974065
1.08331
-0.0988443
0.143482
-0.387877
-0.252978
-0.363202
-0.151233
1.04892
-0.0722668
0.0871158
1.04121
-0.0891876
0.0614919
1.05474
-0.0998378
0.0406538
1.07984
-0.0994325
0.0241679
1.10996
-0.0949106
0.0128829
1.14108
-0.088401
0.00575413
1.17112
-0.0806659
0.00137526
1.19873
-0.0725719
-0.000901319
1.22294
-0.0646655
-0.00163682
1.24327
-0.0572336
-0.00139515
1.25963
-0.0506596
-0.000576472
1.27165
-0.0445516
0.000734157
1.2805
-0.0403699
0.00187967
1.28334
-0.0331068
0.00343857
-0.0311494
0.00564296
1.59975
7.07672e-05
0.000174093
1.59917
0.000139422
0.000373263
1.59811
0.00020676
0.00063319
1.59629
0.000284849
0.00103813
1.59312
0.000384533
0.0017134
1.58742
0.000525573
0.0029008
1.57646
0.00075835
0.00521288
1.55394
0.00118001
0.0098782
1.50527
0.00207222
0.0163425
0.353381
0.00455121
0.0135525
0.349434
0.344008
0.344564
-0.029216
-0.0155906
0.0482748
0.0847865
0.0901344
0.0860205
0.0889514
0.0264548
-0.100897
0.105469
-0.023124
-0.00262116
-0.00214592
-0.00180702
-0.00134573
-0.105913
0.0389024
0.103162
-0.0113944
-0.0120617
-0.0149464
-0.0107799
0.00454536
0.00227571
0.00378905
0.00254297
-0.0739648
0.0222491
-0.0157157
0.00652828
0.060794
-0.0214012
-0.0730107
-0.23384
-0.00055987
0.0233795
0.099325
0.106416
0.287637
-0.0770505
-0.304745
0.502713
-0.0545271
-0.250045
0.65184
-0.0420778
-0.207053
0.758802
-0.030713
-0.17575
0.836645
-0.0215188
-0.151267
0.894817
-0.0141293
-0.13247
0.940467
-0.00807169
-0.118263
0.977859
-0.0027873
-0.10718
1.00956
0.00190508
-0.0982667
1.03733
0.00605986
-0.091055
1.06219
0.00963018
-0.085149
1.08516
0.0128202
-0.0803451
1.10597
0.0147771
-0.075971
1.12839
0.0182485
-0.0737747
0.0183991
-0.0686718
1.59974
0.000130114
0.0001887
1.59915
0.000335636
0.000387212
1.59809
0.00060867
0.000643348
1.59627
0.00104189
0.00105101
1.5931
0.00181355
0.00172402
1.5875
0.00329233
0.00281838
1.57661
0.00645436
0.00518313
1.55426
0.013698
0.00982349
1.50604
0.0340595
0.0162099
0.34987
0.103412
0.0131126
0.354236
0.345037
0.344896
-0.00182922
0.0326742
-0.0218136
0.0830116
0.087383
0.0827455
0.0876747
-0.00106833
-0.0990149
0.0922606
0.0106244
-0.000406135
-0.000971131
-0.000401484
-0.00104505
-0.0210487
0.0316812
-0.030838
-0.010625
0.0312907
0.0951437
0.0927354
-0.17589
-0.0346227
-0.155111
0.056796
0.0472363
0.315977
0.0104465
-0.308768
0.507822
0.0193262
-0.265934
0.64451
0.0394041
-0.218287
0.74351
0.0530512
-0.182806
0.816658
0.0610275
-0.155707
0.873046
0.0654184
-0.135947
0.919245
0.067645
-0.12192
0.958815
0.0692676
-0.111617
0.993995
0.070747
-0.104007
1.02625
0.0723055
-0.0984819
1.0563
0.074
-0.0944136
1.0851
0.0754629
-0.0914542
1.11181
0.0765933
-0.0885226
1.14184
0.0762975
-0.0880918
0.0754333
-0.0847337
1.59975
0.000180886
0.000187168
1.59922
0.000506552
0.000348776
1.59826
0.000957998
0.000601705
1.59657
0.00169595
0.0010174
1.59369
0.00302646
0.00165904
1.58873
0.00556234
0.00267831
1.5795
0.010828
0.00484676
1.56234
0.0219264
0.0089175
1.52942
0.0522683
0.0147062
0.37399
0.120613
0.0198095
0.379725
0.365179
0.3735
-0.0510369
0.0560125
-0.00484828
0.094076
0.0914116
0.0929221
0.0954373
-0.0279608
-0.102619
0.109319
-0.00474297
0.0259835
-0.00555068
-0.112598
0.114561
0.00561679
0.0163317
-0.00193456
-0.00900957
-0.00743705
0.00169158
-0.10513
-0.0111572
0.107604
0.00715814
1.26428
-0.0385779
0.165165
-0.350786
-0.406886
-0.159981
-0.380737
1.21624
-0.0353479
0.0936851
1.16772
-0.00605453
0.0737906
1.12372
0.0200188
0.0633381
1.08455
0.0388592
0.0533379
1.04955
0.0519298
0.0441005
1.019
0.0600943
0.035873
0.994196
0.064811
0.0276441
0.974956
0.0678209
0.0207003
0.961517
0.0696422
0.0145633
0.954234
0.0709613
0.00864449
0.954295
0.0717085
0.00224031
0.962087
0.0719008
-0.00422861
0.975091
0.0733774
-0.00979336
0.99679
0.07022
-0.0156248
0.0779979
-0.0220826
1.59978
0.000217607
0.000172541
1.59932
0.000631836
0.00032152
1.59849
0.00121246
0.000563678
1.59705
0.00216466
0.000959125
1.59467
0.00385415
0.00154529
1.59069
0.00699679
0.00253617
1.58421
0.0129726
0.00432746
1.57426
0.0242214
0.00765048
1.56159
0.0525498
0.012385
0.39003
0.101909
0.019792
0.393447
0.386776
0.390245
-0.04919
0.394658
0.0434258
0.00113401
-0.0727619
-0.411284
0.426162
0.0550341
0.00278288
-0.0246335
-0.429192
0.425836
0.0189405
0.00935735
-0.0211742
-0.42554
0.429297
0.0102742
0.00717008
1.64424
-0.0437552
0.0521629
-0.424495
-0.421153
-0.426837
-0.418887
1.6241
-0.0567019
0.0414017
1.61037
-0.0353477
0.0429743
1.59952
-0.0175868
0.0484225
1.58634
-0.00179152
0.053829
1.56769
0.0117561
0.0588315
1.54318
0.022
0.0626057
1.51422
0.0292827
0.0645006
1.48214
0.034541
0.065368
1.44836
0.0385472
0.0648874
1.41371
0.0416163
0.064006
1.3797
0.0436235
0.0620962
1.34689
0.0448823
0.0598223
1.31705
0.046157
0.0570537
1.28629
0.0462224
0.0547585
0.0478021
0.0493532
1.59982
0.000236052
0.00015415
1.59941
0.00069933
0.000324224
1.59872
0.00134856
0.000544811
1.59757
0.00240308
0.000894882
1.59577
0.00422976
0.00141475
1.59303
0.00745575
0.00227346
1.58933
0.0129529
0.00371242
1.58217
0.0253465
0.0060371
1.58063
0.044178
0.00991655
1.59109
0.0764425
0.0150126
1.63729
0.121886
0.0192251
-0.0375411
-0.0459348
-0.046824
-0.0569704
1.67108
0.0913872
0.0240644
-0.0373681
-0.0299463
-0.0428857
-0.0389383
1.6647
0.0690229
0.0231052
-0.0144093
-0.0167124
-0.0235374
-0.0309676
1.66011
0.00994864
0.0200984
-0.00558406
0.00288967
-0.0148388
-0.00791696
1.63517
-0.0310345
0.012144
1.61767
-0.0443171
0.00506195
1.61179
-0.0334088
0.00390277
1.60733
-0.0184651
0.00532163
1.60676
-0.00860863
0.00738574
1.60873
-0.000213509
0.0100043
1.6114
0.00641129
0.0129302
1.61368
0.0111388
0.0158705
1.61496
0.0145623
0.0187043
1.61485
0.0172199
0.0214363
1.61298
0.019269
0.0242232
1.60941
0.0207628
0.0264268
1.60375
0.021888
0.0286583
1.59691
0.0225665
0.0304192
1.58649
0.0238767
0.0327614
0.0234297
0.0339191
1.59984
0.000234687
0.000147205
1.59952
0.000703702
0.000306961
1.59898
0.00135753
0.00051966
1.59814
0.00240424
0.000827964
1.59691
0.00417266
0.0012774
1.59519
0.0071673
0.00199517
1.59324
0.0118
0.00310512
1.59174
0.0222918
0.00454788
1.59248
0.0358475
0.0075953
1.60207
0.0560096
0.0108572
1.63081
0.0796185
0.0135447
1.65246
0.0553489
0.014427
1.65291
0.0561789
0.0124233
1.64868
0.00546969
0.0087095
1.6348
-0.02026
0.00307456
1.62216
-0.0307073
-0.000993569
1.61509
-0.0259041
-0.000452111
1.61122
-0.0156344
0.00102718
1.60939
-0.00953889
0.00276588
1.60893
-0.00403843
0.00429117
1.60915
0.000545913
0.00564414
1.60973
0.00390654
0.00665973
1.61057
0.00628828
0.00742899
1.61165
0.00807109
0.00807425
1.61281
0.00941912
0.00868172
1.61405
0.0103868
0.00913601
1.61522
0.0110732
0.00964258
1.61631
0.0114776
0.0100043
1.61775
0.0119704
0.0104612
0.0120274
0.0109538
1.59987
0.000213853
0.000140232
1.59962
0.000646569
0.000292382
1.59923
0.0012453
0.000491375
1.59868
0.00218965
0.000758505
1.59794
0.00374797
0.00114911
1.59708
0.00628884
0.00173138
1.59633
0.00997622
0.00256949
1.59694
0.0181771
0.00350169
1.59967
0.0274642
0.00565725
1.60796
0.0399887
0.00773679
1.62587
0.0523909
0.00932593
1.65412
0.0179452
0.00917533
1.64422
0.0584073
0.00769796
1.6409
0.00396891
0.00482449
1.63223
-0.0130249
0.00141681
1.62309
-0.0206807
-0.00089891
1.6171
-0.0193476
-0.000566787
1.61405
-0.0125785
-9.29151e-06
1.61228
-0.00859412
0.000828726
1.61148
-0.00479697
0.0015555
1.61122
-0.00148081
0.00229511
1.61117
0.00104763
0.00290445
1.61122
0.00282767
0.00340405
1.61134
0.00410575
0.0038479
1.61148
0.0050354
0.00424397
1.61162
0.00567913
0.00457072
1.61174
0.00609625
0.00485331
1.61184
0.00631846
0.00506059
1.61198
0.00653821
0.00528691
0.00672338
0.00553261
1.5999
0.000175735
0.000133546
1.59971
0.000534967
0.000282139
1.59946
0.00102857
0.000459835
1.59914
0.00179698
0.000698371
1.5988
0.00304001
0.00103663
1.59859
0.00499933
0.00150005
1.59879
0.00762852
0.00213429
1.60045
0.0137768
0.0027384
1.60393
0.0197229
0.00426876
1.611
0.0273556
0.00556067
1.62301
0.0338656
0.00652165
1.62636
0.00840229
0.00619899
1.63773
0.0419412
0.00510321
1.63554
0.00311095
0.00304991
1.62985
-0.00816826
0.000830309
1.62339
-0.013477
-0.000740547
1.61836
-0.0136314
-0.000693385
1.61549
-0.00910401
-0.00059686
1.61359
-0.00662098
-7.47511e-05
1.61245
-0.00409372
0.000434409
1.61185
-0.0018519
0.000969369
1.61157
-0.000104808
0.00143238
1.61146
0.00112127
0.00181596
1.61145
0.00198175
0.00213285
1.61149
0.00260163
0.00239295
1.61155
0.00303584
0.00259027
1.61158
0.00331769
0.00275142
1.61157
0.00348066
0.00284076
1.61158
0.00358563
0.00294561
0.00361181
0.00303796
1.59991
0.00012391
0.000130405
1.59979
0.000380222
0.000268024
1.59964
0.000730546
0.000433254
1.59951
0.00127043
0.000652035
1.59946
0.00213098
0.000944553
1.59969
0.00344283
0.00132309
1.6005
0.00501219
0.0018024
1.60272
0.00933353
0.00222099
1.6064
0.0126969
0.00334261
1.61255
0.0170523
0.00415204
1.62138
0.020325
0.00470471
1.6218
0.00340108
0.00458336
1.63323
0.0270847
0.00342563
1.63208
0.00222207
0.00204648
1.62814
-0.00473801
0.00050791
1.62333
-0.00809466
-0.000573659
1.61903
-0.0087613
-0.000567284
1.6163
-0.00575775
-0.000619073
1.61442
-0.00446373
-0.000274228
1.6132
-0.00294868
8.15799e-05
1.61248
-0.00157835
0.000440504
1.61211
-0.00048136
0.000748937
1.61193
0.000304986
0.000995244
1.61185
0.000862202
0.00119299
1.61183
0.00126963
0.00135621
1.61183
0.00156194
0.00147382
1.61182
0.00175638
0.00157397
1.6118
0.00186745
0.00164141
1.61173
0.00194436
0.00170674
0.00197297
0.00176538
1.59993
6.28177e-05
0.000125031
1.59984
0.000196124
0.000256926
1.59977
0.000377916
0.000416237
1.59976
0.000656375
0.000619088
1.5999
0.00109607
0.000879542
1.60041
0.00173163
0.00119408
1.60166
0.00221374
0.00154394
1.60406
0.00499522
0.00194579
1.60776
0.00621206
0.00277762
1.6133
0.00818716
0.00332689
1.62043
0.00955065
0.00364358
1.6193
0.00108302
0.00343883
1.63043
0.0132983
0.00266397
1.62996
0.00116627
0.00152744
1.62702
-0.00216268
0.000367392
1.62318
-0.0037887
-0.000456076
1.6195
-0.00455786
-0.000527588
1.61682
-0.0024912
-0.000586889
1.61497
-0.00219695
-0.000415663
1.6137
-0.0015036
-0.000172125
1.61288
-0.000847124
8.23888e-05
1.6124
-0.00031055
0.000305125
1.61213
8.10672e-05
0.000493826
1.61197
0.000359103
0.000659315
1.61188
0.000560133
0.000803589
1.61183
0.000701155
0.000916132
1.61178
0.00079023
0.0010078
1.61173
0.000835736
0.00108328
1.61168
0.000849749
0.00114425
0.000794992
0.00120272
1.59994
0.000121544
1.59988
0.00025075
1.59984
0.000405971
1.59989
0.000601512
1.60013
0.000848538
1.60073
0.0011361
1.6015
0.00144145
1.60468
0.00181511
1.60837
0.00252194
1.61359
0.00295764
1.61997
0.00317267
1.61812
0.00292955
1.62909
0.00232715
1.62895
0.00131347
1.62646
0.000324685
1.62306
-0.000380257
1.61896
-0.000464696
1.617
-0.000532437
1.61522
-0.000412756
1.61392
-0.000206435
1.61306
1.85296e-05
1.61253
0.000211791
1.61222
0.000386919
1.61204
0.000539536
1.61194
0.000665051
1.61187
0.000764319
1.61184
0.000827277
1.6118
0.000877522
1.61173
0.000913177
0.000946384
1.60003
-4.48545e-05
0.000129523
1.60004
-0.000157734
0.000397665
1.60005
-0.000319228
0.000711821
1.60014
-0.000575428
0.00110878
1.60038
-0.000989476
0.0016194
1.60085
-0.00140918
0.00212204
1.60128
-0.0010339
0.00212338
1.60131
-0.00315996
0.00507949
1.60478
-0.00632054
0.00557793
1.61011
-0.00842059
0.00637056
1.61341
-0.00660858
0.00695127
1.6138
-0.00335759
0.00653784
1.62357
-0.0129129
0.00626315
1.62737
-0.00579961
0.00416331
1.62538
0.00102964
0.0020853
1.62257
0.00284637
0.000211042
1.62188
0.00201077
-0.00137666
1.62027
0.00106601
0.000158157
1.61854
0.0020586
-0.000873209
1.61717
0.00190736
-0.00110705
1.61615
0.00155371
-0.00110507
1.61536
0.00128155
-0.00106412
1.61472
0.00109625
-0.00103016
1.61419
0.000959891
-0.00101052
1.61373
0.000852622
-0.00095432
1.61326
0.000768356
-0.000866843
1.61294
0.000717386
-0.000959419
1.61267
0.000686049
-0.000966288
1.6124
0.000686207
-0.000990441
0.000692242
-0.000920984
1.60002
-8.58114e-05
0.000131582
1.60002
-0.00030112
0.000404937
1.6
-0.00061115
0.000727405
1.60002
-0.00110665
0.00113916
1.60018
-0.00191535
0.00167682
1.60088
-0.00311365
0.00224575
1.60313
-0.00406046
0.00239594
1.60321
-0.00661737
0.00546449
1.60623
-0.0123287
0.00598552
1.61107
-0.0167242
0.00714913
1.61366
-0.0129679
0.00795626
1.61524
-0.00803176
0.0073065
1.62477
-0.0265015
0.00772427
1.62974
-0.0131304
0.00499745
1.62809
0.00152178
0.00258255
1.62533
0.00542423
0.000589347
1.62422
0.00446012
-0.00126117
1.62052
0.00421975
0.000259442
1.61843
0.0044218
-0.000695621
1.61708
0.00370475
-0.000910417
1.6161
0.00299109
-0.000910366
1.61534
0.00246443
-0.000876856
1.61472
0.00211526
-0.000854349
1.61419
0.00186511
-0.000832545
1.61369
0.00165438
-0.000737787
1.61327
0.00150803
-0.000744538
1.61296
0.00141951
-0.000791218
1.61268
0.00137055
-0.000791924
1.61244
0.00134108
-0.000804785
0.0012743
-0.000728812
1.60002
-0.000117534
0.000135481
1.59998
-0.000416046
0.000419644
1.59989
-0.0008492
0.000758348
1.5998
-0.00155017
0.00119963
1.59977
-0.00271236
0.00179772
1.6
-0.0045458
0.00256673
1.60126
-0.00668976
0.00325303
1.60159
-0.0102503
0.00566468
1.60463
-0.0187617
0.00698453
1.60992
-0.0262827
0.00883447
1.61524
-0.0231602
0.0102586
1.61771
-0.0144581
0.00958478
1.62845
-0.0425641
0.010176
1.63176
-0.0193564
0.00658978
1.62925
0.00264387
0.00341384
1.62554
0.00886216
0.000933171
1.62338
0.00765275
-0.000734793
1.62017
0.00738001
-0.000147831
1.61824
0.00677653
-0.000717787
1.61693
0.00551447
-0.000841177
1.61601
0.00440544
-0.0008642
1.61531
0.00363687
-0.000891843
1.61473
0.0031624
-0.000959621
1.61424
0.00280957
-0.00100585
1.61375
0.00255222
-0.0010076
1.6134
0.00238654
-0.00118807
1.61311
0.00230265
-0.00130136
1.61284
0.0022572
-0.00138057
1.61258
0.00225566
-0.00147334
0.00223336
-0.00147535
1.59999
-0.000136617
0.000147
1.59991
-0.000489619
0.000434138
1.59973
-0.00100869
0.000801962
1.59947
-0.00186256
0.00128593
1.59916
-0.00330823
0.00196431
1.59894
-0.00570226
0.00291853
1.59927
-0.00893853
0.00413257
1.59927
-0.0137836
0.00642581
1.60202
-0.0257437
0.00877936
1.60798
-0.0378209
0.011657
1.61584
-0.0375575
0.0139791
1.62283
-0.026444
0.0127424
1.63243
-0.0600256
0.0152407
1.63532
-0.0262478
0.0096698
1.63127
0.00503606
0.00485943
1.62609
0.0139721
0.00123906
1.62296
0.0118638
-0.000455275
1.61986
0.0109424
-0.000398737
1.61789
0.00940114
-0.000645032
1.6166
0.00747331
-0.000657666
1.61573
0.00590727
-0.000579474
1.61506
0.00487168
-0.000518562
1.61449
0.00424014
-0.000475711
1.614
0.00377174
-0.000436212
1.61358
0.00344744
-0.000434806
1.61327
0.00326253
-0.000502412
1.613
0.00317708
-0.000524193
1.61273
0.0031505
-0.000515451
1.61254
0.00308886
-0.000526452
0.00284503
-0.000432964
1.59996
-0.000140006
0.000174733
1.59982
-0.000510927
0.00044238
1.59953
-0.00106996
0.000849967
1.59904
-0.00200275
0.00139248
1.59835
-0.00362572
0.00217458
1.5975
-0.00641679
0.00334414
1.59665
-0.0105249
0.00508109
1.59588
-0.0171201
0.0077741
1.59773
-0.0330791
0.0114739
1.60463
-0.052262
0.015936
1.61905
-0.0618514
0.0205116
1.65119
-0.0661293
0.0192343
1.64022
-0.0600652
0.0228408
1.64109
-0.0327116
0.015055
1.63431
0.00966636
0.00760905
1.62691
0.021774
0.00178879
1.62255
0.0177981
-0.000215006
1.61948
0.0151324
-0.000471697
1.61759
0.0124583
-0.000764077
1.61647
0.00978712
-0.00102788
1.61577
0.00779364
-0.00122756
1.6152
0.00660243
-0.00146974
1.61468
0.00585006
-0.00168242
1.61427
0.00536836
-0.00203401
1.61395
0.00506631
-0.00235323
1.61367
0.00494402
-0.00263315
1.6134
0.00492678
-0.00286204
1.61313
0.00496576
-0.00305648
1.61282
0.00500934
-0.00322137
0.00496403
-0.00317473
1.59992
-0.000126226
0.000202998
1.59972
-0.000476686
0.000464396
1.59929
-0.00101249
0.00089087
1.59855
-0.00194087
0.00151036
1.59739
-0.00358814
0.0024139
1.59573
-0.006552
0.00383113
1.59371
-0.0114274
0.00610397
1.59176
-0.0201825
0.00973322
1.59124
-0.0398593
0.0152767
1.59907
-0.07094
0.0225677
1.63757
-0.116679
0.0318129
1.65206
-0.0933984
0.031558
1.66454
-0.0890369
0.0373713
1.65039
-0.027327
0.0268187
1.63857
0.0185751
0.0135031
1.62837
0.0329281
0.00378916
1.6222
0.0262375
0.00139103
1.61857
0.020696
0.00148191
1.61664
0.0164729
0.00152311
1.61564
0.0129715
0.00154386
1.61502
0.010574
0.00163141
1.61459
0.0090688
0.00163671
1.61413
0.00817488
0.00161035
1.61386
0.00755379
0.00135111
1.61361
0.00713397
0.00124326
1.61336
0.00692146
0.00114512
1.61314
0.00678594
0.00107587
1.61288
0.00680009
0.00100596
1.6128
0.00659544
0.000979992
0.00618616
0.00107368
1.59989
-9.54338e-05
0.000218949
1.5996
-0.000385203
0.000519355
1.59905
-0.00084134
0.000929061
1.59804
-0.00164421
0.00160348
1.59635
-0.0031453
0.002664
1.59372
-0.00596847
0.0043539
1.59021
-0.0113844
0.0072498
1.58523
-0.0211847
0.0121849
1.5798
-0.0444542
0.0203624
1.5832
-0.0907671
0.0325376
1.62293
-0.0403341
0.0494361
-0.0539717
-0.0369284
-0.0524465
1.65518
-0.0387337
0.053151
-0.0379198
-0.0344045
-0.0356002
1.65969
-0.0250434
0.0629406
-0.0377986
-0.0197837
-0.0320371
1.66115
-0.0176783
0.0511752
-0.0124197
-0.00774513
-0.00313433
1.64292
0.0389126
0.0252409
1.62999
0.0522233
0.00994901
1.62266
0.0389639
0.00618495
1.61858
0.0291607
0.004757
1.61697
0.022427
0.00294227
1.61628
0.0182008
0.00127306
1.61598
0.0156921
-0.000211623
1.61568
0.014553
-0.00169649
1.6154
0.0141126
-0.00317703
1.61515
0.0139806
-0.00449423
1.61481
0.0140253
-0.00544911
1.61444
0.0142034
-0.00616384
1.61406
0.0143707
-0.00661717
1.6137
0.0146373
-0.00682933
1.61335
0.0145469
-0.00682985
0.015081
-0.0060082
1.59986
-4.98649e-05
0.000233828
1.59947
-0.000243149
0.00057715
1.59877
-0.00056283
0.000998393
1.59755
-0.00114442
0.00167006
1.59533
-0.00225918
0.00287495
1.59156
-0.00445252
0.00480971
1.58525
-0.00913949
0.00844284
1.57586
-0.0188411
0.0148326
1.56134
-0.0436492
0.0264994
0.389987
-0.109247
0.0474407
0.386088
0.390588
0.386743
-0.00674085
0.393642
-0.0484068
0.0111386
-0.00936879
-0.404261
0.41695
-0.0568466
0.0147599
-0.0195293
-0.419982
0.421128
-0.0311959
0.0244583
-0.024682
-0.421369
0.422864
-0.0253286
0.0308572
1.65005
0.112556
0.0513728
-0.421366
-0.425256
-0.421588
-0.424103
1.63273
0.113453
0.0274768
1.62173
0.0918777
0.0262696
1.61668
0.0729395
0.0268272
1.61498
0.0596946
0.025987
1.61436
0.0508769
0.0254712
1.61425
0.0446524
0.0248964
1.61438
0.0403148
0.0239431
1.61459
0.0371375
0.0227932
1.61466
0.0346103
0.0218205
1.61446
0.0325246
0.0210653
1.61408
0.0307122
0.0204864
1.61332
0.0292592
0.0203305
1.61241
0.0279004
0.0202624
1.61067
0.0270603
0.021091
0.0261334
0.0228291
1.59984
6.31223e-06
0.000243901
1.5994
-6.39753e-05
0.000610764
1.59855
-0.000203292
0.00108236
1.59709
-0.000480467
0.00177974
1.59447
-0.0010432
0.00304865
1.58984
-0.00218626
0.00512235
1.58092
-0.00474329
0.00940414
1.56469
-0.0106435
0.017055
1.532
-0.0288388
0.0328953
0.372538
-0.0982323
0.0665035
0.36319
0.373831
0.365732
-0.0651837
0.0133512
-0.00440824
0.053144
0.0941335
0.0940592
0.0931863
0.0942356
-0.00104586
-0.0993934
0.0207706
0.104908
-0.0268989
0.00166175
-0.10755
-0.0134005
0.00996164
0.106416
-0.0096287
0.0141972
-0.106014
-0.0229537
0.011553
-0.0147321
0.0247528
0.107406
1.5743
0.266315
0.0445952
-0.417596
-0.36155
-0.427787
-0.422231
1.55521
0.231469
-0.0117911
1.55184
0.178578
-0.0218472
1.55284
0.138622
-0.0260332
1.55396
0.111957
-0.0292102
1.55422
0.0941306
-0.0306247
1.55242
0.0822402
-0.0300421
1.54862
0.0741533
-0.0286694
1.54278
0.0684458
-0.0263704
1.535
0.0641097
-0.0233515
1.52557
0.0605217
-0.019961
1.51492
0.0572703
-0.0164919
1.50342
0.0544767
-0.0129912
1.4919
0.051263
-0.00997174
1.47784
0.0509427
-0.00639257
0.0449806
-0.00351068
1.59985
6.72728e-05
0.000245691
1.59939
0.000133435
0.000627151
1.59849
0.000197338
0.00112102
1.59689
0.000269129
0.00187324
1.59402
0.000361794
0.00317163
1.58887
0.000495696
0.00535471
1.57872
0.000711531
0.00988917
1.55855
0.00109636
0.0182998
1.50797
0.0019265
0.0361376
0.336183
0.00408539
0.0805705
0.333589
0.335289
0.333542
-0.0416667
0.0072938
0.0124836
0.0651373
0.0704681
0.0751455
0.0716623
0.0756489
0.00234645
0.0038505
-0.00577735
0.00657948
-0.00237206
-0.00109987
-0.00128799
-0.00110598
-0.001133
-0.0075833
0.00238029
-0.00477741
0.00515014
0.008511
-0.000845553
-0.00100748
-0.00094969
-0.000883455
-0.00232608
0.000764103
0.00180183
-0.00136745
-0.00136553
0.00248336
0.744464
-0.00695116
-0.330971
-0.0501339
-0.03946
-0.200965
-0.0836555
0.961874
0.0197625
-0.310474
1.1067
0.0277649
-0.244095
1.20127
0.0292513
-0.192268
1.26339
0.0298431
-0.155759
1.30569
0.0304853
-0.129927
1.33512
0.0315631
-0.111242
1.35633
0.0327432
-0.0980746
1.37209
0.0340949
-0.0885986
1.38413
0.0353779
-0.0815673
1.39357
0.0363914
-0.076358
1.40118
0.0369873
-0.0724782
1.40761
0.0373283
-0.0696381
1.41324
0.0369616
-0.0673054
1.41859
0.0378783
-0.0660687
0.0350812
-0.063796
1.59988
0.000126279
0.000238926
1.59944
0.000326604
0.000613596
1.59861
0.000591467
0.00107296
1.59705
0.00101003
0.0018524
1.59423
0.00175244
0.00314509
1.58896
0.0031575
0.00541439
1.57886
0.00611987
0.00986088