/*--------------------------------*- C++ -*----------------------------------*\
| =========                 |                                                 |
| \\      /  F ield         | OpenFOAM: The Open Source CFD Toolbox           |
|  \\    /   O peration     | Version:  2512                                  |
|   \\  /    A nd           | Website:  www.openfoam.com                      |
|    \\/     M anipulation  |                                                 |
\*---------------------------------------------------------------------------*/
FoamFile
{
    version     2.0;
    format      ascii;
    arch        "LSB;label=32;scalar=64";
    class       volVectorField;
    location    "260";
    object      U;
}
// * * * * * * * * * * * * * * * * * * * * * * * * * * * * * * * * * * * * * //

dimensions      [0 1 -1 0 0 0 0];

internalField   nonuniform List<vector> 
84826
(
(19.9999 -0.000184621 0.000212323)
(19.9995 -0.000624858 0.00068317)
(19.9988 -0.00125463 0.0012446)
(19.9984 -0.00225349 0.00195559)
(19.9992 -0.00386716 0.00287972)
(20.0029 -0.0064315 0.00407646)
(20.012 -0.0103511 0.00558713)
(20.0307 -0.0159968 0.00738873)
(20.0641 -0.0233273 0.00932689)
(20.1164 -0.0311465 0.0110916)
(20.1885 -0.0369516 0.0122479)
(20.2713 -0.035524 0.012171)
(20.3416 -0.0248097 0.0104603)
(20.3748 -0.00966659 0.00736737)
(20.3653 0.00281946 0.00373352)
(20.3295 0.00952007 0.000596865)
(20.2885 0.0111106 -0.00137985)
(20.2547 0.0101364 -0.00230528)
(20.23 0.0085749 -0.00269883)
(20.2119 0.00708904 -0.00287261)
(20.1986 0.00589069 -0.00289647)
(20.1891 0.00512853 -0.00284199)
(20.1818 0.00464693 -0.00280701)
(20.1753 0.00412413 -0.00280972)
(20.1692 0.00343475 -0.00280441)
(20.1639 0.00267214 -0.00275465)
(20.1597 0.00194531 -0.00267553)
(20.156 0.00120301 -0.00257628)
(20.1533 0.000490645 -0.00256371)
(20.1473 -0.000708428 -0.00239325)
(19.9999 -0.000534553 0.000216009)
(19.9993 -0.00181272 0.000696074)
(19.9984 -0.00364897 0.00127188)
(19.9974 -0.00657664 0.00200869)
(19.9972 -0.0113389 0.00298067)
(19.9995 -0.0189737 0.00426402)
(20.0068 -0.0307901 0.00592525)
(20.0235 -0.0480482 0.00798046)
(20.0554 -0.0709146 0.0102959)
(20.1087 -0.0958657 0.0125186)
(20.1862 -0.115313 0.0141151)
(20.2788 -0.111405 0.0141881)
(20.3574 -0.077302 0.0124186)
(20.3915 -0.0296272 0.00882865)
(20.3769 0.00925956 0.00452984)
(20.3345 0.0296016 0.000841835)
(20.2889 0.0336934 -0.00136156)
(20.2532 0.0300915 -0.00231405)
(20.2283 0.0250653 -0.00271854)
(20.2104 0.0204432 -0.00289732)
(20.1977 0.0168681 -0.00288916)
(20.1886 0.0148966 -0.00278275)
(20.1815 0.0141346 -0.00268464)
(20.1749 0.0136957 -0.00260165)
(20.1687 0.0132599 -0.00247911)
(20.1634 0.0131054 -0.00229456)
(20.1592 0.0134715 -0.00207955)
(20.1556 0.0142221 -0.00183937)
(20.1526 0.0149808 -0.00170092)
(20.148 0.0154971 -0.00132222)
(19.9999 -0.000831766 0.000223469)
(19.999 -0.0028317 0.000722901)
(19.9974 -0.00572842 0.00132938)
(19.9953 -0.0103933 0.00212176)
(19.9933 -0.018081 0.00319673)
(19.9927 -0.0306183 0.00466778)
(19.9961 -0.0504793 0.0066547)
(20.0082 -0.0803354 0.00925551)
(20.0369 -0.121473 0.0124074)
(20.0913 -0.168416 0.0156701)
(20.1803 -0.208252 0.0183262)
(20.295 -0.202561 0.0187394)
(20.3918 -0.138831 0.0169548)
(20.4275 -0.0524386 0.0123875)
(20.4015 0.0174244 0.00651889)
(20.3448 0.0528526 0.00150523)
(20.2895 0.0578461 -0.00119163)
(20.2502 0.0498467 -0.00215544)
(20.2249 0.0403658 -0.00254835)
(20.2077 0.0318121 -0.00277555)
(20.1961 0.0248696 -0.00287397)
(20.1883 0.0202083 -0.0029727)
(20.182 0.0169445 -0.0031549)
(20.1757 0.0137116 -0.00334802)
(20.1698 0.0102615 -0.00345828)
(20.165 0.00725763 -0.00348639)
(20.1614 0.00519329 -0.00349389)
(20.1579 0.00390522 -0.0034928)
(20.1553 0.00308821 -0.003569)
(20.1481 0.00129825 -0.0034178)
(19.9998 -0.00104712 0.00023336)
(19.9986 -0.00358528 0.000759786)
(19.9961 -0.00730424 0.0014093)
(19.9923 -0.0133803 0.00228103)
(19.9874 -0.0235848 0.00350718)
(19.9824 -0.0406511 0.00526243)
(19.9794 -0.0686183 0.00776396)
(19.9834 -0.112534 0.0112637)
(20.005 -0.176619 0.0158699)
(20.0591 -0.254971 0.0210338)
(20.1675 -0.329872 0.0256569)
(20.322 -0.321774 0.0268951)
(20.4493 -0.214586 0.0256652)
(20.4866 -0.0795991 0.0198364)
(20.4412 0.0289977 0.0111133)
(20.3599 0.0820242 0.00351713)
(20.2882 0.0855429 -0.000251607)
(20.2439 0.0712565 -0.00144845)
(20.2186 0.0577115 -0.00178641)
(20.2023 0.0478142 -0.00168919)
(20.1919 0.0420233 -0.00133932)
(20.1851 0.0402417 -0.00108229)
(20.1788 0.0401602 -0.00101241)
(20.1721 0.0396614 -0.000924574)
(20.166 0.0386526 -0.000661158)
(20.1616 0.0381508 -0.00026879)
(20.1585 0.0386926 0.000144797)
(20.1554 0.0401525 0.000558784)
(20.1525 0.0419861 0.000882468)
(20.1489 0.043459 0.00168719)
(19.9998 -0.0011541 0.000244866)
(19.9981 -0.00398296 0.000803493)
(19.9944 -0.00819181 0.00150774)
(19.9884 -0.0151971 0.00248024)
(19.9799 -0.0272498 0.00390163)
(19.9687 -0.048082 0.0060403)
(19.9561 -0.0837802 0.00927162)
(19.9467 -0.143227 0.0141331)
(19.9545 -0.236699 0.0210313)
(20.0026 -0.362018 0.0295374)
(20.1421 -0.500904 0.0372838)
(20.3658 -0.49303 0.0399439)
(20.5401 -0.319071 0.0402029)
(20.5757 -0.116896 0.0330286)
(20.4999 0.0453284 0.0191195)
(20.3799 0.116127 0.00720805)
(20.2843 0.110015 0.00183122)
(20.2348 0.0808085 -0.000412654)
(20.2122 0.0545 -0.00199375)
(20.1998 0.03483 -0.0028616)
(20.1931 0.0225787 -0.00318082)
(20.1888 0.016266 -0.00353736)
(20.1832 0.0116322 -0.0040844)
(20.1763 0.0060506 -0.00451169)
(20.1705 -7.52181e-05 -0.00468171)
(20.1666 -0.00547638 -0.00472553)
(20.1643 -0.00998699 -0.00478779)
(20.1612 -0.0138301 -0.00484932)
(20.1595 -0.0171397 -0.00504033)
(20.1488 -0.0213132 -0.00428957)
(19.9997 -0.00113527 0.000257243)
(19.9975 -0.00396295 0.000850251)
(19.9925 -0.00825004 0.00161845)
(19.9841 -0.0155458 0.00271135)
(19.971 -0.0284578 0.00436476)
(19.9518 -0.051674 0.00697394)
(19.9259 -0.0937157 0.0111676)
(19.8954 -0.169276 0.0179201)
(19.8773 -0.299816 0.0283587)
(19.9042 -0.497138 0.0417495)
(20.0927 -0.749326 0.0545338)
(20.4331 -0.736931 0.0627981)
(20.6749 -0.481587 0.073056)
(20.7012 -0.180712 0.066657)
(20.5755 0.0786594 0.0424614)
(20.3929 0.170922 0.0211558)
(20.2615 0.152865 0.0130372)
(20.2052 0.11615 0.0110179)
(20.1859 0.0904185 0.0100597)
(20.1784 0.077363 0.00983566)
(20.1763 0.0763942 0.0100682)
(20.1743 0.0827048 0.0103053)
(20.1687 0.0893296 0.0105694)
(20.1613 0.0934948 0.0111564)
(20.1556 0.0963637 0.011999)
(20.1523 0.099252 0.0128175)
(20.1502 0.101338 0.0134626)
(20.1479 0.102043 0.0139808)
(20.1452 0.0998322 0.0142959)
(20.1451 0.0976686 0.0151804)
(19.9997 -0.000984936 0.000269198)
(19.9969 -0.00350059 0.000895382)
(19.9906 -0.00740576 0.00172289)
(19.9796 -0.0142158 0.00294846)
(19.9615 -0.0266413 0.00486837)
(19.9329 -0.0499786 0.00801649)
(19.8891 -0.0948993 0.0133749)
(19.8273 -0.183837 0.0225764)
(19.7606 -0.355655 0.0374937)
(19.7417 -0.675577 0.0587132)
(19.9846 -1.12441 0.0728512)
(20.5095 -1.02891 0.0976534)
(20.8611 -0.746635 0.148976)
(20.902 -0.345793 0.149222)
(20.6989 0.113242 0.115225)
(20.41 0.213213 0.078729)
(20.2359 0.125983 0.0568527)
(20.1816 0.025464 0.0439435)
(20.1733 -0.0442931 0.0345027)
(20.1759 -0.0851311 0.0270754)
(20.181 -0.102792 0.0208715)
(20.1812 -0.107783 0.0160685)
(20.1744 -0.109401 0.0133486)
(20.1654 -0.109627 0.0129715)
(20.1589 -0.106861 0.0143463)
(20.1541 -0.100731 0.0166949)
(20.1499 -0.0952245 0.0197083)
(20.1422 -0.0898065 0.0235089)
(20.139 -0.0948305 0.027185)
(20.1317 -0.0944789 0.036266)
(19.9996 -0.000711764 0.000279198)
(19.9964 -0.00261662 0.000935097)
(19.989 -0.00568234 0.00181234)
(19.9754 -0.011174 0.00314914)
(19.9525 -0.0215327 0.00532669)
(19.9139 -0.0417029 0.00910409)
(19.8489 -0.0832808 0.0157253)
(19.7431 -0.173369 0.0283082)
(19.5873 -0.375089 0.0460718)
(19.4511 -0.854283 0.0836894)
(19.7061 -1.22269 0.0219681)
(20.5522 -1.63565 0.00395534)
(21.1679 -1.01173 0.120618)
(21.3251 -0.655329 0.101874)
(21.222 0.00681952 0.34315)
(20.6199 0.305429 0.313499)
(20.2877 0.272725 0.322098)
(20.1437 0.191715 0.33052)
(20.0632 0.144517 0.330598)
(20.0036 0.13216 0.321389)
(19.9575 0.141065 0.304595)
(19.9175 0.154144 0.28387)
(19.8829 0.161235 0.263022)
(19.8583 0.162677 0.243747)
(19.8451 0.162568 0.226237)
(19.8351 0.161762 0.21046)
(19.8272 0.159021 0.19771)
(19.7954 0.150083 0.18692)
(19.7927 0.140418 0.182443)
(19.6819 0.103325 0.177585)
(19.9996 -0.000339313 0.000286393)
(19.996 -0.00138712 0.00096309)
(19.9877 -0.00321375 0.00187995)
(19.9723 -0.00663252 0.00329599)
(19.9456 -0.0133468 0.0056559)
(19.8981 -0.0267468 0.00998321)
(19.8134 -0.0562658 0.0178688)
(19.6521 -0.123711 0.0340236)
(19.371 -0.30498 0.0560079)
(18.8994 -0.805827 0.0976802)
(19.0701 -1.60366 -0.0200555)
(20.7332 -2.45729 0.125685)
(21.1588 -2.26099 0.430513)
(21.597 -2.21632 0.353533)
(14.3407 -1.08517 0.513436)
(13.1823 -0.823905 0.0371389)
(12.7615 -1.01854 -0.158642)
(12.9265 -1.19682 -0.254361)
(13.2983 -1.25465 -0.299202)
(13.7137 -1.22218 -0.315426)
(14.1221 -1.14211 -0.314272)
(14.4987 -1.04832 -0.29995)
(14.8398 -0.958003 -0.274994)
(15.1502 -0.874294 -0.243966)
(15.4269 -0.795663 -0.21151)
(15.6577 -0.723572 -0.18051)
(15.8386 -0.656936 -0.150702)
(15.9501 -0.606461 -0.125274)
(16.0537 -0.545965 -0.0978882)
(16.0118 -0.511454 -0.074851)
(19.9996 9.52818e-05 0.000289731)
(19.9958 5.83445e-05 0.000976277)
(19.9871 -0.000275607 0.00191114)
(19.9707 -0.00115086 0.00336522)
(19.942 -0.00313498 0.00581422)
(19.8896 -0.00742924 0.0103694)
(19.793 -0.0175598 0.0188872)
(19.5935 -0.0418165 0.0379024)
(19.1979 -0.114388 0.0624514)
(18.2911 -0.33256 0.107092)
(17.7803 -1.12789 -0.233532)
(20.7786 -3.13438 -0.441058)
(21.7173 -5.04251 0.618824)
(13.6519 -2.18331 0.3338)
(-1.59639 0.771164 -2.31133)
(1.54355 0.660712 -2.43811)
(4.61458 0.337695 -2.15735)
(7.13087 0.11516 -1.84838)
(8.90631 0.0176642 -1.58376)
(10.1113 -0.0194713 -1.36894)
(10.9526 -0.0288723 -1.19944)
(11.5628 -0.0237077 -1.06439)
(12.0375 -0.0105672 -0.952204)
(12.442 0.00676657 -0.857509)
(12.8057 0.0250173 -0.778387)
(13.1354 0.0403796 -0.712218)
(13.4267 0.0540654 -0.65661)
(13.7044 0.0550051 -0.60639)
(13.9116 0.0781126 -0.570018)
(14.3009 0.0565858 -0.517081)
(19.9996 0.000546087 0.00028887)
(19.9959 0.00157154 0.000973457)
(19.9872 0.00282862 0.00190377)
(19.971 0.00471006 0.00334915)
(19.9424 0.007906 0.00578316)
(19.8903 0.0139375 0.0103256)
(19.7941 0.0268077 0.01883)
(19.5959 0.0558191 0.0377942)
(19.203 0.13776 0.0621063)
(18.3078 0.381182 0.106132)
(17.4946 0.635741 -0.298143)
(20.2088 0.763115 -0.655697)
(5.03339 -3.59155 -1.0282)
(0.761398 -0.480269 -1.21108)
(2.0319 -1.3404 -2.18913)
(4.74849 -1.10118 -2.04105)
(7.11705 -0.708552 -1.73315)
(8.76169 -0.425261 -1.4694)
(9.87303 -0.26295 -1.26125)
(10.6729 -0.169752 -1.10166)
(11.2836 -0.100365 -0.980699)
(11.7827 -0.0318022 -0.885883)
(12.2264 0.0355227 -0.811219)
(12.6401 0.0956707 -0.753874)
(13.0297 0.145892 -0.709422)
(13.3879 0.187494 -0.67457)
(13.7457 0.218924 -0.641615)
(14.0131 0.249083 -0.622495)
(14.5608 0.261293 -0.586744)
(19.9996 0.000962461 0.000283466)
(19.9961 0.00297414 0.000956567)
(19.988 0.00571218 0.00186138)
(19.9729 0.0101276 0.00324103)
(19.9467 0.0181014 0.00557679)
(19.9 0.0331749 0.00988837)
(19.8166 0.0651848 0.0177321)
(19.6587 0.136715 0.0337449)
(19.3847 0.325396 0.0551144)
(18.9413 0.842538 0.0948595)
(18.6744 1.64276 -0.0662791)
(21.1221 3.3263 -0.289545)
(23.244 2.27605 0.262566)
(21.1146 0.671733 -1.05626)
(16.4546 0.33049 0.589554)
(15.397 0.283421 0.355406)
(14.6627 0.598587 0.254333)
(14.2138 0.882429 0.155942)
(13.7874 1.03104 0.0556285)
(13.3505 1.05853 -0.0310027)
(12.9498 1.01549 -0.101207)
(12.6006 0.956498 -0.159887)
(12.3159 0.912038 -0.204101)
(12.1023 0.884115 -0.237978)
(11.9596 0.864025 -0.268066)
(11.9093 0.8447 -0.294319)
(11.952 0.82462 -0.314292)
(12.0994 0.814427 -0.325551)
(12.2368 0.78905 -0.335794)
(12.6715 0.79347 -0.340193)
(19.9997 0.00130052 0.000274753)
(19.9966 0.00411261 0.000923104)
(19.9894 0.00801922 0.0017875)
(19.9764 0.014407 0.00309574)
(19.9542 0.0258274 0.00525029)
(19.9168 0.0473997 0.00899775)
(19.8538 0.0909744 0.0155294)
(19.7528 0.184117 0.0278808)
(19.6053 0.390085 0.0449417)
(19.5005 0.875342 0.0798953)
(19.5241 1.36297 0.0216391)
(20.8701 1.87804 0.0409288)
(21.5031 0.670886 0.153305)
(21.3669 0.328541 0.0651153)
(20.938 -0.494805 0.117033)
(20.3605 -0.64166 0.126731)
(20.0937 -0.474022 0.164127)
(20.0222 -0.28067 0.201304)
(19.9285 -0.12594 0.234813)
(19.741 -0.00535485 0.262232)
(19.4741 0.0841915 0.277743)
(19.1416 0.153547 0.278559)
(18.7549 0.21208 0.269349)
(18.3338 0.261162 0.254435)
(17.8975 0.29803 0.235956)
(17.4605 0.323194 0.214843)
(17.0391 0.338864 0.192844)
(16.6293 0.360934 0.170244)
(16.2961 0.358294 0.152697)
(15.8271 0.4177 0.118227)
(19.9997 0.00152246 0.000263628)
(19.9972 0.00486455 0.000879584)
(19.9913 0.00953309 0.00169495)
(19.9808 0.0171478 0.00290419)
(19.9637 0.030507 0.00479551)
(19.9366 0.0550131 0.00788828)
(19.8953 0.101369 0.0131249)
(19.8384 0.192172 0.0220526)
(19.7809 0.364837 0.0362272)
(19.7825 0.684744 0.0554591)
(20.0635 1.10746 0.0635502)
(20.6225 0.906193 0.0733351)
(20.93 0.475902 0.086562)
(20.891 0.0782048 0.069762)
(20.6435 -0.344173 0.0355643)
(20.3224 -0.377952 0.012887)
(20.1351 -0.219376 0.0111623)
(20.08 -0.0708292 0.0185872)
(20.0755 0.0358879 0.0307217)
(20.0964 0.115403 0.0491925)
(20.1349 0.17074 0.0713768)
(20.175 0.206435 0.0938367)
(20.2003 0.229788 0.11549)
(20.2043 0.245955 0.136496)
(20.1865 0.256344 0.1566)
(20.1477 0.26174 0.174634)
(20.0899 0.264284 0.190717)
(20.0005 0.26646 0.203969)
(19.9239 0.271177 0.217825)
(19.7142 0.274308 0.227366)
(19.9998 0.0016081 0.000250561)
(19.9978 0.00516165 0.000832179)
(19.9933 0.0101138 0.0015869)
(19.9856 0.0180949 0.00265814)
(19.9736 0.0317678 0.00427455)
(19.9561 0.0558578 0.00681865)
(19.9328 0.0988274 0.010884)
(19.9068 0.175173 0.0173693)
(19.8965 0.305001 0.0271666)
(19.9366 0.497456 0.0390948)
(20.1452 0.729592 0.0484578)
(20.5013 0.667274 0.0489528)
(20.7218 0.34257 0.0450448)
(20.7066 0.0373995 0.0304788)
(20.5538 -0.205717 0.0055844)
(20.35 -0.263584 -0.011854)
(20.201 -0.20393 -0.0114985)
(20.1388 -0.134692 -0.00352861)
(20.1203 -0.0810447 0.00431389)
(20.1151 -0.0358587 0.011439)
(20.1191 -0.00104668 0.0177935)
(20.1291 0.0208892 0.0230384)
(20.1392 0.0336425 0.0273478)
(20.1482 0.0423625 0.0315198)
(20.1577 0.0496063 0.0359203)
(20.1693 0.0561929 0.0403352)
(20.1829 0.06321 0.0448003)
(20.1961 0.07005 0.0494468)
(20.2101 0.0820605 0.0537079)
(20.2252 0.0892629 0.0613615)
(19.9998 0.00155105 0.000237194)
(19.9984 0.00498833 0.0007828)
(19.9953 0.00974995 0.00147095)
(19.9901 0.0173138 0.00241966)
(19.9828 0.0299608 0.00380223)
(19.9733 0.0514166 0.00587302)
(19.9633 0.0876499 0.00897795)
(19.9579 0.147208 0.0135887)
(19.9717 0.239199 0.0199759)
(20.0285 0.359304 0.0274398)
(20.1785 0.48404 0.0331206)
(20.4078 0.447014 0.0320745)
(20.5686 0.235721 0.0266035)
(20.5783 0.024559 0.0157469)
(20.4818 -0.131738 0.00133619)
(20.3443 -0.191297 -0.00869454)
(20.2336 -0.165143 -0.00923711)
(20.179 -0.113266 -0.00545367)
(20.1589 -0.0653615 -0.00185715)
(20.1505 -0.024052 0.00158228)
(20.1476 0.00826913 0.0054259)
(20.1483 0.0294777 0.00930258)
(20.1489 0.0424287 0.0128051)
(20.1479 0.0515695 0.0159725)
(20.1466 0.0593631 0.0188535)
(20.146 0.0664168 0.0213552)
(20.1466 0.072607 0.0234963)
(20.1474 0.0775007 0.0253402)
(20.1487 0.082099 0.0267381)
(20.146 0.0831411 0.029014)
(19.9999 0.00135957 0.000224855)
(19.999 0.00437666 0.000736709)
(19.997 0.00852836 0.0013689)
(19.9941 0.0150332 0.00221541)
(19.9905 0.0256744 0.003401)
(19.9872 0.0431566 0.00508718)
(19.9867 0.0713895 0.00746671)
(19.9941 0.115091 0.0107449)
(20.0204 0.177623 0.0149413)
(20.0803 0.25164 0.0193766)
(20.1941 0.316833 0.0226893)
(20.35 0.291821 0.0220553)
(20.468 0.164757 0.0183901)
(20.4885 0.023385 0.0107761)
(20.4275 -0.0814296 0.00167973)
(20.3333 -0.125996 -0.00521839)
(20.2513 -0.113542 -0.00708623)
(20.2026 -0.0802641 -0.00573838)
(20.1784 -0.0504487 -0.00374703)
(20.1645 -0.0274227 -0.00161861)
(20.1561 -0.0105836 0.000787989)
(20.1521 -3.13453e-05 0.00318176)
(20.1502 0.00610071 0.00520189)
(20.1485 0.0105151 0.00679054)
(20.1472 0.0146166 0.00804405)
(20.1464 0.0184263 0.00903308)
(20.1462 0.0214314 0.00983598)
(20.1457 0.0232909 0.0104962)
(20.1451 0.0242393 0.0110126)
(20.1422 0.0246051 0.0119254)
(19.9999 0.00105414 0.00021425)
(19.9994 0.00339566 0.000697869)
(19.9984 0.00659954 0.00128579)
(19.9972 0.0115638 0.00205149)
(19.9965 0.0195452 0.00308444)
(19.9976 0.0323384 0.00448634)
(20.0033 0.0523081 0.00635722)
(20.0184 0.0818717 0.00876067)
(20.0507 0.121742 0.0115807)
(20.1091 0.165553 0.0143046)
(20.201 0.199146 0.0161084)
(20.3153 0.183697 0.0154134)
(20.405 0.109259 0.0123674)
(20.4288 0.0186225 0.00686893)
(20.3907 -0.0493116 0.000822653)
(20.3236 -0.0797766 -0.00378857)
(20.2597 -0.0761897 -0.00544281)
(20.2157 -0.0582354 -0.00482071)
(20.1898 -0.0407476 -0.00348646)
(20.1737 -0.0261924 -0.00206213)
(20.1637 -0.013816 -0.000562936)
(20.1582 -0.00396986 0.000891371)
(20.1554 0.00352551 0.00211507)
(20.1535 0.00958669 0.00308312)
(20.1519 0.0147524 0.0038771)
(20.1507 0.0189523 0.00457495)
(20.1498 0.0219175 0.00521114)
(20.1486 0.0236355 0.00579935)
(20.1476 0.0244311 0.00627931)
(20.1429 0.0248672 0.00706186)
(20 0.000664225 0.000206184)
(19.9998 0.00214337 0.00066955)
(19.9994 0.00416041 0.0012257)
(19.9994 0.00726296 0.00193449)
(20.0005 0.0121931 0.0028632)
(20.0045 0.0199651 0.00407747)
(20.0139 0.0318172 0.0056271)
(20.0333 0.0488543 0.00750274)
(20.0683 0.0709179 0.00953706)
(20.1244 0.0940021 0.0113385)
(20.2035 0.109971 0.012331)
(20.2949 0.100989 0.01167)
(20.3676 0.0615396 0.00914463)
(20.3923 0.0115328 0.00504233)
(20.3677 -0.0263807 0.000683084)
(20.3164 -0.0439988 -0.0026795)
(20.2634 -0.0435678 -0.00417609)
(20.2232 -0.0344104 -0.00407391)
(20.197 -0.0243674 -0.00330827)
(20.1801 -0.0155054 -0.00240699)
(20.169 -0.00785204 -0.00145273)
(20.1622 -0.00192046 -0.000497536)
(20.1581 0.00208393 0.000360447)
(20.1552 0.00462324 0.00108724)
(20.1528 0.00620067 0.00171421)
(20.1509 0.00705416 0.00227481)
(20.1493 0.00728302 0.00277507)
(20.1478 0.00700021 0.00322101)
(20.1463 0.00658466 0.00356517)
(20.1435 0.00603806 0.00409115)
(20 0.000226136 0.000202082)
(19.9999 0.000731544 0.000655432)
(19.9999 0.0014201 0.0011963)
(20.0005 0.00247567 0.0018781)
(20.0025 0.00414323 0.00275778)
(20.0078 0.00675014 0.0038849)
(20.0191 0.0106768 0.00528526)
(20.0403 0.0162435 0.00691588)
(20.0763 0.0233041 0.00859712)
(20.1309 0.0305086 0.00999673)
(20.204 0.0352018 0.0106618)
(20.2852 0.0322142 0.0100116)
(20.3502 0.0198904 0.00776062)
(20.375 0.00404394 0.00434542)
(20.3565 -0.00810382 0.000743139)
(20.3124 -0.0138745 -0.00206066)
(20.2646 -0.0139711 -0.00343204)
(20.2265 -0.0111387 -0.00349928)
(20.2004 -0.00786161 -0.00292791)
(20.183 -0.00497364 -0.0021884)
(20.1712 -0.0025681 -0.00139783)
(20.1637 -0.000807002 -0.000589722)
(20.159 0.000277036 0.000163251)
(20.1557 0.000899991 0.000814641)
(20.1533 0.00130556 0.00135974)
(20.1514 0.00163361 0.00181031)
(20.1499 0.00193 0.00217436)
(20.1484 0.002244 0.00246993)
(20.1472 0.00256582 0.00268907)
(20.1438 0.00312981 0.00303594)
(19.9999 -0.000184506 0.000638928)
(19.9995 -0.000619435 0.0020043)
(19.999 -0.00124012 0.00360571)
(19.9988 -0.00222182 0.00562767)
(19.9998 -0.00380223 0.00826401)
(20.0038 -0.0063036 0.0117085)
(20.0134 -0.0101129 0.0160948)
(20.0324 -0.0155565 0.0214392)
(20.0659 -0.0226083 0.0274113)
(20.1183 -0.0301423 0.0330128)
(20.1901 -0.0355825 0.0366675)
(20.2724 -0.0341135 0.0363652)
(20.3423 -0.023621 0.0310502)
(20.3755 -0.00892968 0.0218815)
(20.3667 0.0030363 0.0117594)
(20.332 0.00933384 0.00370383)
(20.2922 0.0108142 -0.000986484)
(20.2591 0.0098836 -0.0030526)
(20.2346 0.00835389 -0.00388824)
(20.2163 0.00688171 -0.00426606)
(20.2029 0.00571091 -0.00435263)
(20.1931 0.00497888 -0.00433785)
(20.1854 0.00452546 -0.00443925)
(20.1786 0.00404583 -0.00464879)
(20.1724 0.00343092 -0.00479311)
(20.167 0.00277439 -0.00479164)
(20.1628 0.00217598 -0.00474274)
(20.159 0.00159422 -0.0046824)
(20.1563 0.00104474 -0.00481516)
(20.1502 0.000167847 -0.00458039)
(19.9999 -0.000533772 0.000648974)
(19.9994 -0.00179407 0.00204033)
(19.9985 -0.00359922 0.00368286)
(19.9977 -0.00646911 0.00577792)
(19.9978 -0.0111216 0.00854841)
(20.0004 -0.0185537 0.0122337)
(20.0081 -0.0300165 0.0170406)
(20.0252 -0.0466322 0.0230657)
(20.0574 -0.0685925 0.030066)
(20.1106 -0.0925923 0.0370194)
(20.1875 -0.110851 0.042118)
(20.2792 -0.1069 0.0425563)
(20.3571 -0.0734207 0.0369036)
(20.391 -0.0271147 0.0266265)
(20.377 0.00989857 0.0150303)
(20.336 0.0287311 0.00581687)
(20.2919 0.0323887 0.000700569)
(20.2572 0.0289354 -0.00138879)
(20.2326 0.0240533 -0.00226925)
(20.2148 0.019491 -0.00273986)
(20.202 0.0159319 -0.00290174)
(20.1928 0.0138811 -0.00297678)
(20.1855 0.012939 -0.00317419)
(20.1787 0.0123063 -0.00341041)
(20.1724 0.0116899 -0.00350015)
(20.1671 0.0113361 -0.00342543)
(20.1629 0.0114579 -0.00330172)
(20.1592 0.0119151 -0.00315264)
(20.1562 0.0124011 -0.0031896)
(20.1513 0.0124951 -0.0028125)
(19.9999 -0.000830471 0.000669084)
(19.9991 -0.00280202 0.0021132)
(19.9976 -0.0056483 0.00383955)
(19.9957 -0.0102171 0.00608391)
(19.994 -0.017719 0.00912934)
(19.9938 -0.0299051 0.013314)
(19.9978 -0.049147 0.0190094)
(20.0105 -0.0778616 0.0264944)
(20.0396 -0.117273 0.0357235)
(20.094 -0.162355 0.0457275)
(20.1821 -0.199865 0.0540328)
(20.2954 -0.19399 0.0558939)
(20.391 -0.1308 0.0493695)
(20.4262 -0.0463564 0.0367009)
(20.4008 0.0198981 0.02145)
(20.3461 0.0522178 0.00924726)
(20.2929 0.0562606 0.00300744)
(20.2548 0.0484504 0.00079554)
(20.2297 0.0393482 -0.000236565)
(20.2125 0.0312841 -0.000999873)
(20.2007 0.024858 -0.00158747)
(20.1926 0.0205336 -0.00233848)
(20.186 0.0174531 -0.00337139)
(20.1795 0.0144182 -0.00439768)
(20.1735 0.0112791 -0.0051842)
(20.1686 0.00865675 -0.00578646)
(20.1648 0.00697895 -0.0063507)
(20.1612 0.00607442 -0.00689334)
(20.1585 0.00561633 -0.00750717)
(20.1513 0.00457067 -0.00764817)
(19.9998 -0.00104548 0.00069681)
(19.9987 -0.00354729 0.00221454)
(19.9963 -0.00719967 0.00405924)
(19.9927 -0.0131469 0.00651838)
(19.9883 -0.0230969 0.00996881)
(19.9839 -0.039661 0.014909)
(19.9817 -0.066704 0.0219982)
(19.9867 -0.10884 0.0318787)
(20.0092 -0.170075 0.044982)
(20.0634 -0.245188 0.0605417)
(20.1703 -0.315811 0.0743203)
(20.3225 -0.306685 0.0785553)
(20.4484 -0.198158 0.0715598)
(20.4843 -0.0650005 0.0557223)
(20.4392 0.0371668 0.033773)
(20.3608 0.0846508 0.0157183)
(20.2925 0.0863821 0.00725108)
(20.2498 0.071475 0.00452545)
(20.2248 0.0572284 0.0032807)
(20.2085 0.0469403 0.00271837)
(20.1979 0.04097 0.00256382)
(20.1906 0.0388097 0.00206196)
(20.184 0.0380768 0.00117196)
(20.1771 0.0368955 0.00044237)
(20.171 0.0352243 0.000142388)
(20.1665 0.0339974 6.93447e-05)
(20.1633 0.0337014 -2.99891e-05)
(20.1602 0.0342145 -0.000175888)
(20.1573 0.0351404 -0.0003889)
(20.1533 0.0355064 0.000144163)
(19.9998 -0.00115232 0.00073097)
(19.9981 -0.00394227 0.00233315)
(19.9946 -0.00807533 0.00432003)
(19.989 -0.0149236 0.00704973)
(19.981 -0.0266606 0.0110233)
(19.9706 -0.0468438 0.0169773)
(19.9594 -0.0812718 0.0260327)
(19.9517 -0.138128 0.0394785)
(19.9611 -0.227245 0.0587821)
(20.0096 -0.347026 0.0831044)
(20.1466 -0.478585 0.1064)
(20.3684 -0.467243 0.11597)
(20.5401 -0.282468 0.112265)
(20.5721 -0.0808755 0.0929596)
(20.4958 0.068567 0.0581985)
(20.3807 0.128293 0.0292779)
(20.2899 0.119506 0.0169989)
(20.242 0.0906005 0.0120285)
(20.2194 0.0646147 0.0077034)
(20.2068 0.045474 0.00414753)
(20.1997 0.0339242 0.00126799)
(20.1945 0.0283819 -0.00198788)
(20.1882 0.0246192 -0.00548492)
(20.181 0.0201345 -0.00841824)
(20.1748 0.0152008 -0.0105987)
(20.1705 0.0109049 -0.0124439)
(20.1678 0.00739226 -0.0142926)
(20.1645 0.00447487 -0.0161262)
(20.1625 0.00192987 -0.0178336)
(20.1521 -0.000692189 -0.0180086)
(19.9997 -0.00113433 0.000767514)
(19.9976 -0.00391785 0.00246219)
(19.9928 -0.00813062 0.0045899)
(19.9847 -0.0152655 0.0076145)
(19.9724 -0.0278126 0.0122018)
(19.9544 -0.0502583 0.0194057)
(19.9304 -0.0906665 0.0310144)
(19.9028 -0.16279 0.0495598)
(19.8876 -0.286932 0.0777978)
(19.9154 -0.475031 0.116055)
(20.1017 -0.723491 0.157522)
(20.4445 -0.69547 0.180663)
(20.6858 -0.402315 0.193295)
(20.7019 -0.0989263 0.172421)
(20.5726 0.141446 0.111795)
(20.3996 0.212443 0.0607832)
(20.2781 0.18119 0.0427449)
(20.2246 0.135901 0.0382555)
(20.2052 0.103418 0.0346611)
(20.1971 0.0842778 0.0314716)
(20.1941 0.0774496 0.0284892)
(20.1911 0.0785897 0.025055)
(20.1847 0.0815727 0.0220007)
(20.1768 0.0836385 0.0201777)
(20.1705 0.0854011 0.0193001)
(20.1666 0.0876851 0.0185125)
(20.164 0.089638 0.0174577)
(20.1614 0.0905377 0.0161058)
(20.1586 0.0891272 0.0148775)
(20.1579 0.0880626 0.0141795)
(19.9997 -0.000984289 0.000801802)
(19.997 -0.00346408 0.0025905)
(19.991 -0.00728893 0.00486335)
(19.9804 -0.0139583 0.00814487)
(19.9632 -0.0260472 0.013356)
(19.9363 -0.0485191 0.0219538)
(19.8953 -0.0915002 0.0366717)
(19.8379 -0.176091 0.0619534)
(19.7765 -0.339593 0.103038)
(19.7573 -0.647743 0.162563)
(20.0014 -1.11885 0.234711)
(20.549 -0.9521 0.295626)
(20.9002 -0.572193 0.374719)
(20.9113 -0.191268 0.360998)
(20.6989 0.220926 0.252912)
(20.422 0.31615 0.160519)
(20.2616 0.242561 0.116542)
(20.2124 0.155909 0.0927197)
(20.2045 0.0947674 0.0724243)
(20.206 0.05549 0.0531983)
(20.2097 0.0330742 0.0337504)
(20.2091 0.0198664 0.015485)
(20.2021 0.00925482 0.000775621)
(20.193 0.000133527 -0.0093178)
(20.186 -0.00569318 -0.0160363)
(20.1809 -0.00739295 -0.0208848)
(20.1768 -0.00774392 -0.0241302)
(20.1704 -0.00681579 -0.0257113)
(20.168 -0.0120816 -0.0253701)
(20.1545 -0.0119089 -0.0204489)
(19.9996 -0.000712527 0.00083133)
(19.9965 -0.00259002 0.00269926)
(19.9893 -0.00560191 0.00512)
(19.9764 -0.0109535 0.00864335)
(19.9547 -0.0210414 0.0143566)
(19.9182 -0.0406117 0.0240494)
(19.8572 -0.080288 0.0420163)
(19.7573 -0.165995 0.0750135)
(19.6099 -0.355862 0.132519)
(19.459 -0.846618 0.222053)
(19.5771 -1.45528 0.246046)
(20.4926 -1.90887 0.320168)
(21.117 -0.927348 0.64215)
(21.1347 -0.580743 0.821151)
(20.9451 0.371025 0.732596)
(20.4683 0.467234 0.547057)
(20.2373 0.36778 0.489844)
(20.1871 0.275251 0.467518)
(20.19 0.235091 0.447432)
(20.1991 0.231424 0.422859)
(20.2064 0.245388 0.392927)
(20.2062 0.260291 0.361066)
(20.199 0.26802 0.332545)
(20.1912 0.26963 0.308745)
(20.1864 0.269486 0.288195)
(20.1814 0.269602 0.269694)
(20.1762 0.269713 0.255274)
(20.1569 0.267899 0.243002)
(20.1528 0.263685 0.241269)
(20.1025 0.256267 0.240427)
(19.9996 -0.000341148 0.000852563)
(19.9961 -0.001378 0.00277753)
(19.9881 -0.00317547 0.00529933)
(19.9734 -0.0065265 0.00905169)
(19.948 -0.0130591 0.0151944)
(19.9034 -0.0258708 0.0257304)
(19.8238 -0.0540696 0.0461881)
(19.6712 -0.118505 0.0856688)
(19.3941 -0.290912 0.158687)
(18.8414 -0.810948 0.287118)
(18.654 -2.03959 0.244555)
(20.3693 -3.49804 0.094211)
(21.3635 -1.35324 1.52732)
(21.5102 -1.72933 2.66627)
(20.0097 1.32645 1.58646)
(19.4365 1.14398 0.953569)
(19.2924 0.798294 0.676154)
(19.3481 0.506074 0.527986)
(19.4251 0.328985 0.422442)
(19.4678 0.240319 0.337339)
(19.468 0.202493 0.26635)
(19.425 0.185769 0.211517)
(19.3476 0.174448 0.175513)
(19.2489 0.164327 0.154331)
(19.1364 0.156281 0.141526)
(19.0101 0.149892 0.133018)
(18.8705 0.145954 0.128894)
(18.7158 0.13846 0.126148)
(18.5794 0.142009 0.132212)
(18.3453 0.127009 0.132736)
(19.9996 9.21532e-05 0.000862546)
(19.9959 5.00376e-05 0.00281786)
(19.9875 -0.000285507 0.00539021)
(19.9719 -0.00115117 0.00926119)
(19.9445 -0.00307288 0.015699)
(19.8952 -0.00718785 0.027025)
(19.8047 -0.0167109 0.0490057)
(19.6172 -0.0384407 0.092333)
(19.2162 -0.10848 0.174088)
(18.0862 -0.346498 0.318125)
(16.2019 -1.57785 -0.0610032)
(19.4957 -11.2154 -4.26601)
(15.2362 -8.18233 13.3812)
(7.11735 -3.0936 -2.20386)
(7.7629 2.84816 -1.3268)
(10.7227 2.79078 -1.65249)
(12.8673 2.31106 -1.43767)
(14.4197 1.87305 -1.15264)
(15.4573 1.55504 -0.927312)
(16.129 1.33141 -0.772382)
(16.571 1.17229 -0.673483)
(16.8662 1.05411 -0.609279)
(17.0725 0.96319 -0.561625)
(17.2307 0.889936 -0.524384)
(17.3607 0.827854 -0.49734)
(17.4684 0.772429 -0.478533)
(17.5538 0.722921 -0.465065)
(17.6283 0.671429 -0.451166)
(17.6784 0.642869 -0.444372)
(17.7733 0.561747 -0.424655)
(19.9996 0.000541278 0.000860368)
(19.996 0.0015441 0.0028116)
(19.9876 0.00275674 0.0053848)
(19.9721 0.00454851 0.00924883)
(19.9449 0.00762514 0.0156079)
(19.8959 0.0133911 0.0267916)
(19.8058 0.0254794 0.0486905)
(19.6194 0.051584 0.0918811)
(19.2207 0.130357 0.17317)
(18.1007 0.390821 0.31498)
(15.6466 0.881992 -0.181479)
(-0.347669 -0.202105 -0.835807)
(6.06485 -2.53358 -2.14846)
(9.33727 -2.36691 -2.12345)
(11.6005 -1.8258 -1.70334)
(13.2084 -1.36156 -1.32949)
(14.2869 -1.03635 -1.06817)
(15.0043 -0.819443 -0.893615)
(15.5085 -0.666863 -0.784396)
(15.8864 -0.547417 -0.718841)
(16.1946 -0.441589 -0.675845)
(16.4693 -0.346351 -0.646574)
(16.7224 -0.262731 -0.627217)
(16.9566 -0.192607 -0.614564)
(17.169 -0.134077 -0.606411)
(17.3725 -0.0860997 -0.595032)
(17.532 -0.0444135 -0.595907)
(17.8112 -0.00909481 -0.575728)
(19.9996 0.000957513 0.000846754)
(19.9962 0.00292168 0.00275216)
(19.9884 0.00561649 0.00528767)
(19.974 0.00991513 0.00901695)
(19.9491 0.0175785 0.0150622)
(19.9052 0.0318967 0.0254554)
(19.8268 0.0623673 0.0457615)
(19.6773 0.130509 0.0848371)
(19.4064 0.309785 0.15649)
(18.8774 0.844649 0.279358)
(17.9144 2.1546 0.130426)
(19.6432 9.50375 -3.06554)
(17.8968 1.76831 8.82293)
(0.272582 2.77876 3.38532)
(16.7067 -1.12873 1.19111)
(16.4925 -0.932048 0.759049)
(16.387 -0.53162 0.69416)
(16.3762 -0.185852 0.676758)
(16.2807 0.0363759 0.647597)
(16.1023 0.150175 0.612181)
(15.8872 0.19453 0.562773)
(15.6982 0.204387 0.500491)
(15.5397 0.209074 0.434263)
(15.4438 0.212331 0.370436)
(15.4291 0.207497 0.308224)
(15.4755 0.195817 0.246861)
(15.5562 0.181338 0.185225)
(15.6823 0.172726 0.128534)
(15.8033 0.151477 0.0725847)
(16.0681 0.155598 0.00915625)
(19.9997 0.00129576 0.000823245)