/*--------------------------------*- C++ -*----------------------------------*\
| =========                 |                                                 |
| \\      /  F ield         | OpenFOAM: The Open Source CFD Toolbox           |
|  \\    /   O peration     | Version:  2512                                  |
|   \\  /    A nd           | Website:  www.openfoam.com                      |
|    \\/     M anipulation  |                                                 |
\*---------------------------------------------------------------------------*/
FoamFile
{
    version     2.0;
    format      ascii;
    arch        "LSB;label=32;scalar=64";
    class       volVectorField;
    location    "260";
    object      U;
}
// * * * * * * * * * * * * * * * * * * * * * * * * * * * * * * * * * * * * * //

dimensions      [0 1 -1 0 0 0 0];

internalField   nonuniform List<vector> 
90398
(
(20 -0.000163739 0.00022164)
(19.9996 -0.000554253 0.000713965)
(19.9987 -0.00114356 0.00130144)
(19.998 -0.00213136 0.00204928)
(19.9983 -0.0037828 0.00302517)
(20.0015 -0.00644578 0.00428651)
(20.0105 -0.010495 0.00588797)
(20.0293 -0.0161788 0.00780248)
(20.0626 -0.0229474 0.00976913)
(20.1132 -0.0292779 0.0113862)
(20.1778 -0.0312277 0.0118876)
(20.2408 -0.024278 0.010657)
(20.2775 -0.0108202 0.00781094)
(20.2757 0.000843162 0.00451692)
(20.2484 0.00540363 0.00204804)
(20.2201 0.00442865 0.000813847)
(20.2045 0.00233313 0.000376354)
(20.1999 0.00130033 8.68161e-05)
(20.1991 0.000714399 -0.000311834)
(20.2001 -0.000196055 -0.000740902)
(20.2049 -0.00127235 -0.00113571)
(20.2149 -0.0022309 -0.001566)
(20.2303 -0.00314595 -0.00211153)
(20.2517 -0.00418217 -0.00288738)
(20.2789 -0.00542228 -0.00379987)
(20.3176 -0.00692927 -0.00529084)
(20.3602 -0.00866151 -0.00662092)
(20.4357 -0.0112462 -0.0107006)
(20.4799 -0.0129237 -0.0110206)
(20.6653 -0.01871 -0.0227546)
(19.9999 -0.00046941 0.000226061)
(19.9994 -0.00159487 0.000729219)
(19.9982 -0.0033078 0.00133431)
(19.9968 -0.00620306 0.0021157)
(19.9961 -0.0110918 0.00315364)
(19.9979 -0.0190746 0.00452737)
(20.005 -0.0313982 0.00632173)
(20.0222 -0.0490468 0.00856116)
(20.0551 -0.0706621 0.0110235)
(20.1086 -0.0916174 0.013268)
(20.1811 -0.0987956 0.0141335)
(20.2533 -0.0763135 0.0126736)
(20.2928 -0.0328698 0.0091355)
(20.2856 0.00363123 0.00504825)
(20.2507 0.0168253 0.00220005)
(20.2182 0.0128001 0.000957301)
(20.2026 0.00608479 0.000607468)
(20.1988 0.00316877 0.000334438)
(20.198 0.00163579 -8.08515e-05)
(20.1987 -0.00090802 -0.000492084)
(20.2033 -0.00382666 -0.000838832)
(20.2133 -0.00626869 -0.0012205)
(20.2284 -0.00854727 -0.00174295)
(20.2494 -0.0112506 -0.00251255)
(20.2762 -0.0146787 -0.00346292)
(20.3143 -0.0190657 -0.00507649)
(20.3561 -0.0242156 -0.00663137)
(20.4311 -0.0318657 -0.0110038)
(20.4736 -0.0368454 -0.011451)
(20.6609 -0.0533802 -0.025196)
(19.9999 -0.000717484 0.000234844)
(19.9991 -0.00245386 0.000760668)
(19.9972 -0.00513799 0.00140289)
(19.9945 -0.00974833 0.00225523)
(19.9918 -0.017684 0.00342488)
(19.9905 -0.030943 0.0050351)
(19.9938 -0.0520755 0.00724871)
(20.007 -0.0834613 0.010227)
(20.0384 -0.123792 0.0137791)
(20.0978 -0.165794 0.0174869)
(20.1881 -0.182615 0.0192326)
(20.2813 -0.138642 0.01712)
(20.3264 -0.0551823 0.0118967)
(20.3064 0.0106088 0.00604502)
(20.2548 0.0308772 0.00242395)
(20.2144 0.0206149 0.00116759)
(20.1995 0.00800244 0.000909319)
(20.1979 0.00300255 0.000514753)
(20.1973 -0.000283814 -0.000136049)
(20.1975 -0.00562834 -0.000773063)
(20.2022 -0.0111404 -0.00132996)
(20.2125 -0.015212 -0.00190547)
(20.2275 -0.0184718 -0.00254498)
(20.2481 -0.0220188 -0.0033151)
(20.2742 -0.0265699 -0.00423577)
(20.3116 -0.0327383 -0.00588984)
(20.3521 -0.0404171 -0.00754588)
(20.4271 -0.0519739 -0.0123544)
(20.467 -0.0599213 -0.0125702)
(20.6598 -0.0850922 -0.0300509)
(19.9999 -0.000878018 0.000246555)
(19.9986 -0.00303026 0.000803566)
(19.9957 -0.00643358 0.00149779)
(19.9912 -0.0124198 0.00245165)
(19.9853 -0.0230283 0.00382116)
(19.9792 -0.0413742 0.00579367)
(19.9756 -0.0719971 0.0087045)
(19.9813 -0.120094 0.012959)
(20.008 -0.186514 0.0185753)
(20.076 -0.263613 0.0253043)
(20.1992 -0.299517 0.0290613)
(20.3313 -0.219411 0.0254176)
(20.3839 -0.075428 0.0168858)
(20.3389 0.0266761 0.00799249)
(20.2583 0.0497488 0.00327327)
(20.2062 0.0282399 0.00214119)
(20.1939 0.0109525 0.00203056)
(20.1957 0.00764649 0.00153301)
(20.1948 0.00455683 0.000840361)
(20.1942 -0.00349222 0.000244863)
(20.1996 -0.0123974 -0.000445262)
(20.2111 -0.0193542 -0.00144233)
(20.2266 -0.0247023 -0.00267021)
(20.2469 -0.0293051 -0.00401092)
(20.2722 -0.0340013 -0.00546308)
(20.3084 -0.0398773 -0.00757494)
(20.3472 -0.0475854 -0.00960003)
(20.4217 -0.0595691 -0.0150761)
(20.4579 -0.0686662 -0.0150679)
(20.6591 -0.0974401 -0.0369076)
(19.9998 -0.000922721 0.000260276)
(19.998 -0.00322529 0.000854467)
(19.9939 -0.00698991 0.00161327)
(19.987 -0.0138308 0.00269268)
(19.9768 -0.026432 0.00433427)
(19.9636 -0.0492598 0.00685446)
(19.9491 -0.0898677 0.0108195)
(19.9409 -0.158512 0.0172038)
(19.9554 -0.263299 0.0265891)
(20.0338 -0.403636 0.0396429)
(20.2172 -0.479383 0.0477541)
(20.4173 -0.334039 0.0393806)
(20.4763 -0.0930789 0.0229847)
(20.3837 0.0565953 0.00880382)
(20.2579 0.0695027 0.00275886)
(20.1934 0.0195376 0.00174846)
(20.1896 -0.00843442 0.000993967)
(20.1966 -0.00864008 -0.000859329)
(20.1932 -0.0077858 -0.00240074)
(20.19 -0.0138647 -0.00291768)
(20.1955 -0.0225484 -0.00308206)
(20.208 -0.031807 -0.00362366)
(20.2245 -0.0417986 -0.00476075)
(20.2455 -0.0518696 -0.00648573)
(20.271 -0.0614707 -0.00876306)
(20.3066 -0.0709629 -0.0119555)
(20.3438 -0.0811799 -0.0152123)
(20.4175 -0.0935216 -0.0223254)
(20.4501 -0.103505 -0.0229697)
(20.6559 -0.126 -0.04959)
(19.9998 -0.000833208 0.000274554)
(19.9974 -0.00297263 0.000906521)
(19.9918 -0.00664362 0.00173609)
(19.9821 -0.0136133 0.00295767)
(19.9667 -0.027116 0.00493216)
(19.9438 -0.0529731 0.00819707)
(19.9129 -0.103095 0.0137647)
(19.8799 -0.196514 0.0237041)
(19.8649 -0.35944 0.0396939)
(19.9523 -0.616259 0.0671137)
(20.2447 -0.761566 0.0871563)
(20.562 -0.492254 0.06948)
(20.615 -0.10293 0.0401752)
(20.432 0.121582 0.0188251)
(20.2319 0.123112 0.012415)
(20.1556 0.0392745 0.0119711)
(20.1737 -0.0034513 0.0101508)
(20.1933 -0.00949272 0.00541674)
(20.1894 -0.0116996 0.000326053)
(20.1835 -0.0140278 -0.00332402)
(20.1875 -0.0133936 -0.00565114)
(20.1986 -0.0130675 -0.00722293)
(20.214 -0.0162582 -0.00864962)
(20.2348 -0.022408 -0.0104125)
(20.2608 -0.0300334 -0.012827)
(20.2969 -0.0384811 -0.0162776)
(20.3342 -0.04818 -0.0201301)
(20.4085 -0.0590197 -0.0280211)
(20.4407 -0.0691534 -0.0294832)
(20.6552 -0.083736 -0.0589778)
(19.9997 -0.000600668 0.000288087)
(19.9968 -0.00224811 0.000955418)
(19.9898 -0.00532003 0.00184656)
(19.977 -0.0114965 0.00320509)
(19.9557 -0.0241812 0.00554071)
(19.9206 -0.0503125 0.00963038)
(19.866 -0.106065 0.0174166)
(19.7893 -0.224527 0.0325521)
(19.7114 -0.480049 0.0611501)
(19.7846 -0.955397 0.119063)
(20.2624 -1.21391 0.168208)
(20.7904 -0.686364 0.13598)
(20.8264 -0.138448 0.0890983)
(20.5029 0.140623 0.0579723)
(20.1916 0.0782185 0.0540999)
(20.1015 -0.0273987 0.0502003)
(20.1464 -0.0487485 0.0426494)
(20.1786 -0.0482001 0.0337941)
(20.1782 -0.06054 0.0256375)
(20.1774 -0.0704676 0.0185978)
(20.1851 -0.0696267 0.0127315)
(20.1959 -0.064797 0.00840368)
(20.2092 -0.0623403 0.00524209)
(20.2281 -0.0633921 0.00240978)
(20.2528 -0.067281 -0.000933043)
(20.2876 -0.0732124 -0.00559238)
(20.3243 -0.0809982 -0.0114925)
(20.3975 -0.0892584 -0.0216969)
(20.4323 -0.098681 -0.0271665)
(20.6446 -0.0990691 -0.0610733)
(19.9996 -0.000245118 0.000298696)
(19.9962 -0.0010668 0.000998794)
(19.988 -0.00303293 0.00194638)
(19.9726 -0.00748031 0.00338011)
(19.9452 -0.0175928 0.00593484)
(19.897 -0.0385952 0.0108197)
(19.8105 -0.0942446 0.0213579)
(19.6599 -0.208464 0.042192)
(19.4313 -0.604281 0.101381)
(19.5102 -1.0487 0.0916728)
(20.0718 -1.99217 0.147722)
(21.3561 -1.31267 0.114283)
(21.4937 -0.0602195 0.0554057)
(20.9185 0.417286 0.00905321)
(20.2625 0.0355176 0.214913)
(20.1813 -0.144144 0.207925)
(20.2407 -0.112672 0.178567)
(20.2541 -0.0615607 0.143395)
(20.2355 -0.0503522 0.10991)
(20.2303 -0.0494016 0.0779871)
(20.2364 -0.0424216 0.0477817)
(20.242 -0.0332572 0.0211052)
(20.2475 -0.0257375 -0.00167679)
(20.2582 -0.0205525 -0.0214222)
(20.2751 -0.0177581 -0.0393198)
(20.3019 -0.0169287 -0.0565701)
(20.333 -0.0171039 -0.0733099)
(20.3987 -0.0175923 -0.0911442)
(20.4347 -0.0106911 -0.106169)
(20.6376 -0.0153833 -0.13656)
(19.9996 0.000209959 0.000305186)
(19.9959 0.000445368 0.0010251)
(19.9868 3.29634e-05 0.0020214)
(19.9694 -0.00165867 0.00354151)
(19.9379 -0.00694946 0.00611456)
(19.8771 -0.0193273 0.0115975)
(19.7604 -0.0534573 0.0232124)
(19.5108 -0.15631 0.0578013)
(19.3108 -0.351552 0.0605458)
(18.7082 -1.57768 0.190288)
(19.7457 -4.29287 0.536998)
(20.6074 -3.07605 1.32239)
(18.974 -0.849744 1.01672)
(18.3442 0.107219 0.773668)
(16.4365 -0.446294 0.758155)
(16.9008 -0.740579 0.579402)
(17.5157 -0.683649 0.442166)
(17.9697 -0.551045 0.343726)
(18.3683 -0.440094 0.265581)
(18.7612 -0.340679 0.195903)
(19.1168 -0.244128 0.130382)
(19.413 -0.154287 0.0713865)
(19.6519 -0.0741031 0.0208389)
(19.8443 -0.00522778 -0.0214655)
(19.9985 0.0513732 -0.0567464)
(20.1243 0.0949649 -0.086729)
(20.2281 0.128979 -0.111331)
(20.3345 0.151529 -0.132979)
(20.4024 0.189804 -0.146317)
(20.5933 0.16894 -0.167334)
(19.9996 0.000717331 0.000307129)
(19.9957 0.0021392 0.00102997)
(19.9865 0.00354414 0.00204137)
(19.9681 0.00492942 0.00363904)
(19.9353 0.00604696 0.00643577)
(19.8672 0.00657644 0.0121435)
(19.7378 0.000934593 0.0251764)
(19.3917 -0.0173966 0.0663304)
(18.9919 -0.163956 0.0836194)
(17.806 -0.971411 0.117229)
(13.9925 -6.57617 0.33257)
(9.89485 -12.9653 -2.78831)
(10.7536 -5.14675 -0.485845)
(9.00578 -3.30006 0.578337)
(9.6329 -0.23617 -0.178756)
(10.6221 -0.366766 -0.536055)
(11.6122 -0.321246 -0.68244)
(12.2633 -0.185293 -0.71874)
(12.9034 -0.0376718 -0.69722)
(13.6359 0.0972078 -0.65072)
(14.394 0.213238 -0.595729)
(15.1084 0.310572 -0.54089)
(15.7545 0.391055 -0.489813)
(16.3277 0.454373 -0.443987)
(16.8274 0.499778 -0.403813)
(17.2622 0.52573 -0.369932)
(17.6379 0.539026 -0.338058)
(17.9679 0.526813 -0.313819)
(18.2541 0.539661 -0.275208)
(18.5973 0.439419 -0.20731)
(19.9996 0.0012203 0.000303019)
(19.9959 0.00382375 0.00101548)
(19.987 0.0070491 0.00200959)
(19.9694 0.0116338 0.00357942)
(19.9377 0.0192316 0.0063083)
(19.8732 0.0330658 0.0118482)
(19.7509 0.0654201 0.0244688)
(19.433 0.149413 0.0632155)
(19.0082 0.250819 0.0837636)
(17.1164 0.772921 0.140634)
(8.52267 1.36758 -6.15988)
(14.9428 -0.990523 -2.24264)
(13.1187 -2.95539 -0.900087)
(12.8951 -1.16378 0.00726186)
(13.133 -0.630529 -0.274165)
(13.324 -0.438348 -0.383524)
(13.0878 -0.333156 -0.431219)
(12.7394 -0.220014 -0.459258)
(12.5657 -0.106592 -0.475433)
(12.61 0.00476976 -0.4782)
(12.8233 0.11887 -0.4688)
(13.16 0.232595 -0.448634)
(13.576 0.336782 -0.420212)
(14.0273 0.422839 -0.386878)
(14.4902 0.484052 -0.350645)
(14.9232 0.525716 -0.315105)
(15.3678 0.521775 -0.279702)
(15.6722 0.541291 -0.221362)
(16.1688 0.4174 -0.163095)
(19.9997 0.00166047 0.000293172)
(19.9963 0.00530131 0.000981815)
(19.9883 0.0101096 0.00193013)
(19.9728 0.0174246 0.00336524)
(19.945 0.0305076 0.00578919)
(19.893 0.0554457 0.0108409)
(19.7964 0.110185 0.0212736)
(19.6063 0.253487 0.0505339)
(19.3522 0.491426 0.061783)
(18.7862 1.9512 0.189502)
(21.7967 3.67817 0.222483)
(23.1403 -0.79075 -0.110296)
(21.8626 -2.44453 0.0150221)
(20.5709 -2.46057 -0.037978)
(19.1842 -1.44353 0.192289)
(19.1511 -0.869983 0.207109)
(19.2117 -0.620147 0.266158)
(19.0643 -0.472673 0.306531)
(18.7431 -0.339459 0.328832)
(18.3161 -0.230522 0.335182)
(17.8084 -0.145868 0.325858)
(17.2533 -0.0719242 0.302509)
(16.7044 -0.000120169 0.270168)
(16.2109 0.0714965 0.235107)
(15.8037 0.141089 0.201592)
(15.5065 0.205256 0.173291)
(15.2794 0.264316 0.143537)
(15.2465 0.285928 0.129965)
(15.0392 0.331261 0.142059)
(15.3455 0.267718 0.113335)
(19.9997 0.00198874 0.00027934)
(19.997 0.00639908 0.000930083)
(19.9903 0.0123544 0.00180216)
(19.9778 0.0217254 0.0031127)
(19.9561 0.0381457 0.00541124)
(19.9189 0.0686811 0.00965058)
(19.8581 0.134056 0.0183644)
(19.7636 0.267616 0.0342644)
(19.6822 0.622482 0.0744815)
(19.6957 1.07586 0.0872302)
(20.7225 1.35915 0.103553)
(21.5445 0.155986 -0.0421786)
(21.2854 -1.09626 -0.0722692)
(20.6119 -1.41593 -0.0692717)
(19.8934 -0.760039 -0.115503)
(19.8243 -0.45943 -0.0796831)
(19.922 -0.381339 -0.0612325)
(19.9759 -0.358169 -0.0560598)
(19.9823 -0.315141 -0.0480793)
(19.9853 -0.265358 -0.0302713)
(19.9763 -0.222608 -0.00357349)
(19.9255 -0.187004 0.0283643)
(19.8124 -0.157253 0.0625999)
(19.6314 -0.131979 0.0955006)
(19.3858 -0.109922 0.124266)
(19.0948 -0.0897689 0.147872)
(18.7577 -0.0779578 0.161608)
(18.5121 -0.081715 0.173674)
(18.047 -0.0970869 0.185545)
(18.2125 -0.22238 0.12259)
(19.9998 0.00216917 0.000262503)
(19.9977 0.00700934 0.000864247)
(19.9926 0.0135519 0.00166087)
(19.9835 0.0237634 0.00285334)
(19.9685 0.0412666 0.00484379)
(19.9454 0.0727174 0.008203)
(19.9136 0.133035 0.0142205)
(19.8813 0.24382 0.0247051)
(19.8894 0.467401 0.0420844)
(20.0901 0.73781 0.0635695)
(20.513 0.635454 0.0328984)
(20.8107 0.101032 -0.0221731)
(20.7356 -0.364171 -0.0642533)
(20.4166 -0.609928 -0.0837566)
(20.1259 -0.501057 -0.0849671)
(20.0313 -0.31345 -0.0902906)
(20.0674 -0.221854 -0.0985438)
(20.0931 -0.18259 -0.102659)
(20.0831 -0.139874 -0.0996707)
(20.0718 -0.0914929 -0.0916024)
(20.0733 -0.0469478 -0.0810007)
(20.0832 -0.0081475 -0.068416)
(20.0974 0.0248149 -0.0532398)
(20.1132 0.0513357 -0.0350073)
(20.1243 0.070433 -0.0145657)
(20.1306 0.0812419 0.00730087)
(20.1192 0.0773048 0.0251415)
(20.1352 0.0619664 0.0408012)
(20.0584 0.0351702 0.0479015)
(20.3616 -0.118753 -0.0389657)
(19.9999 0.00219008 0.000243623)
(19.9985 0.00706488 0.000798505)
(19.9951 0.0136134 0.00151559)
(19.9892 0.0237193 0.00254736)
(19.9804 0.040479 0.00416448)
(19.9686 0.0690663 0.00670317)
(19.9567 0.118554 0.0107961)
(19.9546 0.201018 0.0172396)
(19.9889 0.326284 0.0261688)
(20.1326 0.469844 0.0363564)
(20.3908 0.422581 0.023462)
(20.5869 0.127042 -0.00763655)
(20.5625 -0.204223 -0.0352142)
(20.3717 -0.374784 -0.0498021)
(20.176 -0.353663 -0.0513018)
(20.0868 -0.252561 -0.0455356)
(20.0879 -0.194597 -0.0365892)
(20.0993 -0.176603 -0.0273281)
(20.0931 -0.160527 -0.0186071)
(20.0846 -0.140713 -0.0107905)
(20.0823 -0.124782 -0.00443845)
(20.0839 -0.113915 0.000416154)
(20.0878 -0.105617 0.00399325)
(20.0957 -0.0980162 0.00659539)
(20.1081 -0.0909677 0.00830439)
(20.1272 -0.0843389 0.00994652)
(20.1424 -0.079991 0.00839546)
(20.1947 -0.0816548 0.00827374)
(20.17 -0.0602578 0.00450448)
(20.4875 -0.111325 -0.0711019)
(19.9999 0.00204694 0.000225406)
(19.9992 0.00658696 0.000732634)
(19.9973 0.0126297 0.00136915)
(19.9944 0.0217887 0.00225)
(19.9906 0.0364787 0.0035404)
(19.9871 0.0602705 0.0054178)
(19.9877 0.0984749 0.00819495)
(20.0011 0.155905 0.0121499)
(20.0441 0.231692 0.0169706)
(20.1483 0.305804 0.0210784)
(20.3106 0.275646 0.0151898)
(20.4388 0.09913 -0.000268865)
(20.4401 -0.112255 -0.0160211)
(20.3306 -0.231523 -0.0262984)
(20.2023 -0.232034 -0.0288493)
(20.1292 -0.169857 -0.0264363)
(20.1147 -0.12097 -0.0233913)
(20.1163 -0.0970428 -0.0219034)
(20.1106 -0.0775074 -0.0213333)
(20.1025 -0.0564622 -0.0206002)
(20.0981 -0.0385375 -0.0193485)
(20.0968 -0.0252351 -0.0175703)
(20.0972 -0.0154078 -0.0154165)
(20.0999 -0.00839648 -0.0131533)
(20.105 -0.00408992 -0.0114439)
(20.1155 -0.00138919 -0.00980076)
(20.1252 0.000693548 -0.0112468)
(20.1727 0.000533011 -0.0104681)
(20.1473 0.0199837 -0.0124715)
(20.4569 -0.0184093 -0.0649147)
(20 0.00175691 0.000208795)
(19.9998 0.00563802 0.000672692)
(19.9992 0.0107497 0.00123912)
(19.9986 0.0183669 0.0019927)
(19.9986 0.0302255 0.00302993)
(20.001 0.0486469 0.00444618)
(20.0093 0.0764322 0.00639067)
(20.0302 0.115223 0.00890789)
(20.0737 0.160847 0.0115369)
(20.1531 0.197774 0.0133071)
(20.2621 0.176834 0.0100895)
(20.3505 0.0741874 0.00219878)
(20.3616 -0.0554372 -0.00677864)
(20.2979 -0.136983 -0.0140518)
(20.2112 -0.148189 -0.0170127)
(20.1519 -0.116745 -0.0165498)
(20.13 -0.0863883 -0.0149069)
(20.1237 -0.0712621 -0.0134133)
(20.1159 -0.0620462 -0.0119441)
(20.1069 -0.0530128 -0.0101437)
(20.1008 -0.0453457 -0.00813116)
(20.0982 -0.0398078 -0.00623022)
(20.0979 -0.0358937 -0.00472683)
(20.0999 -0.0333314 -0.00374665)
(20.1048 -0.032017 -0.0037426)
(20.1155 -0.0307546 -0.00401221)
(20.127 -0.0279444 -0.00732454)
(20.1757 -0.0243917 -0.00752769)
(20.1588 -0.00416785 -0.011011)
(20.4531 -0.00269627 -0.0477471)
(20 0.00134812 0.000195025)
(20.0003 0.00430856 0.000623708)
(20.0007 0.00816964 0.00113499)
(20.0018 0.0138432 0.00178937)
(20.0046 0.0224723 0.00264574)
(20.0108 0.0354511 0.00375448)
(20.0235 0.0541467 0.00517624)
(20.0479 0.0787895 0.00684924)
(20.0895 0.10535 0.00837212)
(20.1536 0.123764 0.00906618)
(20.2327 0.109844 0.00699677)
(20.2967 0.0504073 0.00225168)
(20.3107 -0.0274599 -0.00353712)
(20.2722 -0.0814465 -0.00846687)
(20.2117 -0.0942555 -0.0108102)
(20.1637 -0.0790424 -0.0108402)
(20.1394 -0.0606391 -0.00979537)
(20.1284 -0.0502773 -0.00868344)
(20.1192 -0.0439784 -0.00769834)
(20.1102 -0.0374477 -0.00672091)
(20.1038 -0.0310584 -0.00582485)
(20.1003 -0.0259625 -0.00518375)
(20.0991 -0.022417 -0.00493947)
(20.1003 -0.0202924 -0.00506411)
(20.1048 -0.0193004 -0.00593732)
(20.1157 -0.018365 -0.00687175)
(20.1289 -0.0159947 -0.0106439)
(20.1793 -0.0115439 -0.010686)
(20.1708 0.00261164 -0.0162403)
(20.4485 0.0199823 -0.0368497)
(20.0001 0.000854101 0.000184825)
(20.0006 0.00271438 0.00058811)
(20.0017 0.00511633 0.00106068)
(20.0039 0.00860841 0.00164667)
(20.0084 0.0138338 0.00238413)
(20.0169 0.0215244 0.00329421)
(20.0321 0.0322453 0.00439996)
(20.0579 0.0458534 0.00559554)
(20.0976 0.0597052 0.0065399)
(20.1526 0.0682083 0.00674028)
(20.2154 0.0599747 0.00525826)
(20.2658 0.028834 0.00207963)
(20.2805 -0.0125189 -0.00193854)
(20.2557 -0.0425206 -0.00549501)
(20.2106 -0.0509671 -0.00747201)
(20.1701 -0.0438501 -0.00788423)
(20.1453 -0.0338016 -0.00741718)
(20.1318 -0.0274152 -0.00677389)
(20.1218 -0.0232268 -0.00620785)
(20.1129 -0.0190048 -0.00569647)
(20.106 -0.015065 -0.00528123)
(20.1017 -0.0122434 -0.00507041)
(20.0997 -0.0106312 -0.00517994)
(20.1003 -0.00991434 -0.00562953)
(20.1046 -0.00975548 -0.00680407)
(20.1158 -0.00945348 -0.00802493)
(20.1307 -0.00825243 -0.0121827)
(20.183 -0.00471209 -0.0120856)
(20.1824 0.00356965 -0.0205989)
(20.4454 0.0231532 -0.027925)
(20.0001 0.000295112 0.000180559)
(20.0007 0.000933646 0.00057216)
(20.0022 0.00175115 0.00102673)
(20.005 0.00293163 0.00158085)
(20.0103 0.00468191 0.00226251)
(20.0199 0.00722615 0.00307535)
(20.0362 0.0107176 0.00403219)
(20.0624 0.0150579 0.00500674)
(20.101 0.0193199 0.00567606)
(20.1517 0.021756 0.00564739)
(20.2073 0.0190223 0.00439237)
(20.2515 0.00934282 0.00182739)
(20.2662 -0.00354658 -0.00144463)
(20.2473 -0.0131036 -0.00435923)
(20.2091 -0.0160404 -0.00609547)
(20.1721 -0.0140548 -0.00656707)
(20.1474 -0.0109526 -0.00623338)
(20.1328 -0.00885555 -0.00566322)
(20.1223 -0.00745819 -0.00513675)
(20.1132 -0.006144 -0.00467354)
(20.1059 -0.00504358 -0.00430108)
(20.1011 -0.00440684 -0.00411288)
(20.0987 -0.00419692 -0.00424665)
(20.0991 -0.00424741 -0.00476311)
(20.1034 -0.0044404 -0.00606994)
(20.115 -0.00456798 -0.00739983)
(20.1306 -0.00446806 -0.0119351)
(20.1844 -0.00343437 -0.0115734)
(20.1883 -0.00112103 -0.0228305)
(20.4448 0.00683748 -0.0225359)
(20 -0.000162208 0.000666708)
(19.9996 -0.000544854 0.00209119)
(19.9989 -0.0011212 0.00376381)
(19.9983 -0.00208379 0.00588458)
(19.9989 -0.00369236 0.00865695)
(20.0024 -0.00627743 0.0122565)
(20.0118 -0.0101894 0.016751)
(20.031 -0.0156387 0.0220481)
(20.0644 -0.0221234 0.0274934)
(20.1146 -0.0279576 0.0319658)
(20.1785 -0.0296831 0.033424)
(20.2406 -0.0230138 0.0297351)
(20.2773 -0.0103004 0.021493)
(20.2765 0.000678419 0.0123978)
(20.2509 0.0049374 0.00608569)
(20.2242 0.003986 0.00335462)
(20.2098 0.00199996 0.00252923)
(20.2058 0.00100508 0.00177198)
(20.2057 0.000414375 0.000577208)
(20.2075 -0.000481951 -0.000743021)
(20.2132 -0.00152708 -0.00203766)
(20.2243 -0.00246451 -0.00353054)
(20.2408 -0.00339162 -0.00544951)
(20.2635 -0.00446634 -0.00805589)
(20.2922 -0.00579792 -0.0112667)
(20.3329 -0.00748795 -0.0163479)
(20.3768 -0.0095095 -0.0210312)
(20.4557 -0.0124542 -0.0331932)
(20.5 -0.0143527 -0.034989)
(20.6953 -0.0221239 -0.0694531)
(19.9999 -0.000464819 0.00067895)
(19.9994 -0.00156609 0.00213484)
(19.9984 -0.00323812 0.00385929)
(19.9971 -0.00605348 0.0060746)
(19.9967 -0.010804 0.00903343)
(19.9989 -0.0185298 0.0129739)
(20.0065 -0.0303997 0.0180618)
(20.024 -0.0472381 0.0243119)
(20.0571 -0.0678374 0.0310865)
(20.1101 -0.0870696 0.0371174)
(20.1812 -0.0934477 0.0397286)
(20.2518 -0.0720395 0.0353702)
(20.2909 -0.0311885 0.0251735)
(20.2849 0.00307494 0.01439)
(20.252 0.0153123 0.00749534)
(20.2213 0.0113517 0.00499505)
(20.2066 0.00491488 0.0044861)
(20.2031 0.00202112 0.00378152)
(20.2027 0.000348138 0.00252586)
(20.2039 -0.0023228 0.00121002)
(20.2092 -0.00534647 -3.68652e-05)
(20.2198 -0.00790169 -0.00150895)
(20.2355 -0.0102605 -0.00345184)
(20.2573 -0.0130082 -0.00616048)
(20.2848 -0.0165349 -0.00957851)
(20.3239 -0.0211728 -0.0149241)
(20.3659 -0.0267277 -0.0201414)
(20.4431 -0.0351634 -0.0330913)
(20.4837 -0.0401959 -0.0349651)
(20.6789 -0.0622498 -0.0752564)
(19.9999 -0.000710331 0.000703785)
(19.9991 -0.00240812 0.0022231)
(19.9974 -0.00502549 0.00405178)
(19.9949 -0.00950312 0.0064579)
(19.9926 -0.0172011 0.00979982)
(19.9918 -0.0300059 0.0144622)
(19.9957 -0.0503014 0.0208384)
(20.0096 -0.0801236 0.0292138)
(20.0414 -0.11832 0.0390821)
(20.1002 -0.156706 0.0489442)
(20.188 -0.171276 0.054155)
(20.2783 -0.129951 0.0480424)
(20.3227 -0.0518349 0.032963)
(20.3046 0.00984238 0.0182544)
(20.2559 0.0286329 0.0100097)
(20.2178 0.0186711 0.0078296)
(20.2037 0.0065549 0.00760664)
(20.2023 0.00166488 0.00652245)
(20.2019 -0.00158607 0.00463205)
(20.2025 -0.00682788 0.00276366)
(20.2077 -0.0123972 0.000977933)
(20.2186 -0.0167912 -0.00106118)
(20.2343 -0.0205206 -0.00351092)
(20.2555 -0.0244991 -0.00661946)
(20.2822 -0.0294624 -0.010408)
(20.3204 -0.0361092 -0.016138)
(20.3608 -0.0442509 -0.0219558)
(20.4381 -0.0570111 -0.0364661)
(20.4741 -0.06456 -0.0376702)
(20.6769 -0.0979348 -0.0893213)
(19.9999 -0.000869084 0.000737925)
(19.9987 -0.00297219 0.00234563)
(19.996 -0.00628795 0.00432262)
(19.9917 -0.0120972 0.00700611)
(19.9864 -0.022372 0.0109296)
(19.981 -0.0400306 0.0167358)
(19.9784 -0.069302 0.0252629)
(19.9853 -0.114709 0.0374069)
(20.0132 -0.177097 0.0532532)
(20.0805 -0.246489 0.0710641)
(20.1989 -0.276875 0.081275)
(20.3252 -0.20281 0.0707919)
(20.3769 -0.0687676 0.046459)
(20.3355 0.0266585 0.0251451)
(20.2597 0.047952 0.0151857)
(20.2105 0.0269167 0.0139013)
(20.1989 0.00942469 0.0141385)
(20.2007 0.00501116 0.0125526)
(20.2 0.00126095 0.0102256)
(20.1997 -0.00653517 0.00819363)
(20.2054 -0.0149117 0.00591725)
(20.217 -0.0216537 0.00280806)
(20.2329 -0.0272936 -0.00110003)
(20.2539 -0.032694 -0.00566532)
(20.2797 -0.038574 -0.0108364)
(20.3168 -0.0459944 -0.0177894)
(20.3552 -0.0551334 -0.0249985)
(20.4325 -0.0698313 -0.0417526)
(20.4624 -0.0787995 -0.0426312)
(20.677 -0.118642 -0.109209)
(19.9998 -0.000912211 0.00077818)
(19.9981 -0.00316112 0.00249236)
(19.9942 -0.00682484 0.00465151)
(19.9876 -0.0134516 0.00769568)
(19.9782 -0.0256293 0.0123353)
(19.9661 -0.0475443 0.0196923)
(19.9534 -0.0861367 0.0314889)
(19.9475 -0.150418 0.0498964)
(19.9651 -0.247524 0.0767719)
(20.043 -0.370676 0.110115)
(20.2163 -0.433117 0.129891)
(20.4056 -0.301013 0.109301)
(20.4634 -0.0776883 0.0685208)
(20.3781 0.0622376 0.0364912)
(20.2599 0.0744529 0.0243746)
(20.1985 0.0260909 0.0238442)
(20.1944 -0.00228833 0.0225487)
(20.201 -0.00533826 0.0175424)
(20.1984 -0.00771993 0.0128822)
(20.1961 -0.0159092 0.0103823)
(20.2018 -0.025392 0.00834875)
(20.2142 -0.0344841 0.00511176)
(20.2306 -0.0439242 0.00027513)
(20.2516 -0.0536064 -0.00602325)
(20.2771 -0.0632533 -0.0137129)
(20.3132 -0.0734934 -0.0235245)
(20.3496 -0.0844281 -0.0343251)
(20.4264 -0.100074 -0.0548152)
(20.4504 -0.108917 -0.0584086)
(20.677 -0.145689 -0.141391)
(19.9998 -0.000821323 0.000822015)
(19.9975 -0.00290596 0.0026505)
(19.9922 -0.00647909 0.00501397)
(19.9829 -0.013235 0.00848648)
(19.9685 -0.0261919 0.0139588)
(19.9474 -0.0508583 0.0233597)
(19.9195 -0.0981132 0.0398666)
(19.8912 -0.184452 0.0681185)
(19.8843 -0.332108 0.114007)
(19.9723 -0.552004 0.181284)
(20.2445 -0.671824 0.225068)
(20.5428 -0.433671 0.180683)
(20.5982 -0.0744729 0.109604)
(20.4296 0.135851 0.0627341)
(20.2414 0.139834 0.0520862)
(20.168 0.0540536 0.0559854)
(20.1835 0.0067326 0.0538169)
(20.2007 -0.00380538 0.0432319)
(20.1967 -0.0102363 0.0321134)
(20.1919 -0.0168811 0.0243721)
(20.1967 -0.0201009 0.018875)
(20.2082 -0.0222133 0.0139468)
(20.2236 -0.0264918 0.00848445)
(20.2442 -0.0331221 0.00164938)
(20.2697 -0.0413571 -0.00731199)
(20.3054 -0.0513382 -0.0191548)
(20.3417 -0.0625844 -0.0335765)
(20.4182 -0.0793318 -0.0575483)
(20.4404 -0.0873389 -0.0681983)
(20.6821 -0.127916 -0.165902)
(19.9997 -0.000593219 0.000859812)
(19.9969 -0.00218409 0.00280601)
(19.9902 -0.00515436 0.00537808)
(19.9781 -0.0111723 0.00927585)
(19.9581 -0.0234191 0.0157461)
(19.9256 -0.0482885 0.0275028)
(19.8762 -0.100566 0.0505505)
(19.8096 -0.20794 0.0933924)
(19.7509 -0.433413 0.173589)
(19.8343 -0.822833 0.316477)
(20.2691 -1.0294 0.423954)
(20.7506 -0.570735 0.32935)
(20.7981 -0.080985 0.204774)
(20.5029 0.192289 0.127387)
(20.2087 0.146581 0.112512)
(20.1175 0.0383715 0.112276)
(20.1588 0.000689508 0.10214)
(20.1901 -0.0158553 0.0844614)
(20.1899 -0.0425727 0.0671216)
(20.1895 -0.0660284 0.0514888)
(20.1979 -0.0778419 0.0370317)
(20.2095 -0.0832208 0.0244458)
(20.2229 -0.0878364 0.0132178)
(20.2412 -0.0932739 0.0017473)
(20.2648 -0.0997118 -0.0117432)
(20.298 -0.107444 -0.0286811)
(20.333 -0.115353 -0.0493444)
(20.4057 -0.127623 -0.0786743)
(20.4326 -0.126826 -0.102714)
(20.6728 -0.154773 -0.205013)
(19.9996 -0.000232404 0.000889583)
(19.9963 -0.00103774 0.00291512)
(19.9884 -0.00291088 0.00568147)
(19.9737 -0.00710117 0.0100904)
(19.9481 -0.0167576 0.0175049)
(19.9035 -0.037187 0.031558)
(19.826 -0.0878615 0.0623403)
(19.6965 -0.19184 0.124692)
(19.5192 -0.525998 0.275442)
(19.4762 -1.02896 0.412138)
(19.9573 -1.80177 0.704996)
(21.0393 -1.27707 0.600144)
(21.2024 -0.0953609 0.440468)
(20.7355 0.366946 0.27841)
(20.1556 0.260855 0.22554)
(20.0911 0.00545776 0.207713)
(20.1626 -0.00792718 0.162387)
(20.1853 0.0132748 0.113449)
(20.1751 0.00482942 0.0713903)
(20.1763 -0.0091868 0.031779)
(20.1886 -0.0145932 -0.00700537)
(20.2004 -0.0150247 -0.0411753)
(20.2108 -0.0145174 -0.0699369)
(20.2244 -0.0146825 -0.0950624)
(20.242 -0.0165187 -0.119125)
(20.2681 -0.0209755 -0.144649)
(20.2967 -0.0261296 -0.171717)
(20.357 -0.0375907 -0.205567)
(20.3904 -0.0232755 -0.232501)
(20.582 -0.0925522 -0.297436)
(19.9996 0.000217871 0.000910647)
(19.996 0.000474141 0.00297991)
(19.9873 6.81326e-05 0.00582991)
(19.9706 -0.00166423 0.010603)
(19.9408 -0.00640729 0.0190381)
(19.8849 -0.0180117 0.0353155)
(19.781 -0.0491495 0.0714377)
(19.5696 -0.13996 0.162981)
(19.3014 -0.350689 0.279963)
(18.8271 -1.3667 0.784992)
(19.7447 -2.80137 1.89192)
(21.7567 -2.04809 1.18984)
(21.8472 -0.0115852 0.820086)
(21.055 0.69766 0.452902)
(19.9 1.00474 0.0141145)
(20.0765 0.3469 -0.0826876)
(20.3055 0.142486 -0.185713)
(20.3423 0.0785674 -0.262826)
(20.3006 0.0330798 -0.314841)
(20.2636 0.00066395 -0.355863)
(20.2262 -0.0174782 -0.390075)
(20.1743 -0.0274715 -0.414478)
(20.1105 -0.03304 -0.428432)
(20.0419 -0.0366715 -0.434823)
(19.971 -0.0408592 -0.437278)
(19.9032 -0.0487154 -0.439303)
(19.8354 -0.0556625 -0.440499)
(19.7932 -0.072279 -0.445472)
(19.7382 -0.0424208 -0.432673)
(19.7493 -0.0854628 -0.413313)
(19.9996 0.000724582 0.000914584)
(19.9959 0.00213526 0.0030058)
(19.987 0.00354684 0.00586372)
(19.9695 0.00487593 0.0105415)
(19.9384 0.00565252 0.0193213)
(19.8763 0.00556183 0.0363178)
(19.7607 0.00118046 0.075569)
(19.4756 -0.0165417 0.181648)
(19.0217 -0.14465 0.357756)
(17.6817 -0.966543 1.02785)
(18.2953 -5.17027 4.44304)
(15.2354 -0.554234 -3.31426)
(22.8825 1.68676 -0.787152)
(19.7802 1.59554 -1.77379)
(11.053 2.31617 -0.0216302)
(13.0499 1.49199 -0.384004)
(14.2471 1.08098 -0.556788)
(14.7245 0.864669 -0.619796)
(14.9079 0.723439 -0.61973)
(15.022 0.62086 -0.599673)
(15.1018 0.543392 -0.575649)
(15.15 0.483287 -0.548642)
(15.1821 0.436687 -0.518622)
(15.2135 0.398985 -0.4875)
(15.2499 0.364918 -0.457877)
(15.3049 0.329911 -0.431234)
(15.3572 0.297638 -0.404878)
(15.5068 0.247844 -0.385414)
(15.4924 0.272337 -0.307803)
(16.0225 0.113909 -0.240174)
(19.9996 0.00122335 0.00090243)
(19.996 0.00380348 0.00296353)
(19.9874 0.006951 0.00577154)
(19.9707 0.0114832 0.0103642)
(19.9408 0.0191971 0.0189262)
(19.8819 0.0331915 0.0354352)
(19.7726 0.0627184 0.0732585)
(19.5112 0.140218 0.173246)
(19.0451 0.254576 0.352202)
(17.0222 0.801454 1.15407)
(0.903101 -0.786878 -2.81832)
(10.12 -1.43831 1.14073)
(11.6744 -0.764646 0.837077)
(12.7003 -0.49256 0.702908)
(13.1431 -0.373959 0.623525)
(13.3736 -0.305745 0.571697)
(13.5754 -0.269689 0.52609)
(13.7473 -0.250679 0.478208)
(13.88 -0.234426 0.429025)
(13.9876 -0.214568 0.380306)
(14.0887 -0.191798 0.331148)
(14.1984 -0.170159 0.279275)
(14.3393 -0.151828 0.222781)
(14.5117 -0.142987 0.15744)
(14.8096 -0.153401 0.0951941)
(14.9487 -0.13138 0.0152138)
(16.1471 -0.294285 -0.132172)
(19.9997 0.00166282 0.000875205)
(19.9965 0.00524942 0.00285441)
(19.9887 0.00999203 0.00556413)
(19.974 0.0172447 0.0100567)
(19.9477 0.0296527 0.0179161)
(19.9001 0.0533796 0.0327909)
(19.8138 0.104086 0.0651065)
(19.6528 0.232666 0.141369)
(19.3601 0.484067 0.265046)
(18.9249 1.67875 0.792525)
(21.1301 2.59347 1.21989)
(22.3867 2.9797 -3.1618)
(20.3757 -1.85395 0.957404)
(17.5621 -1.57233 0.981364)
(19.1501 -0.918711 -0.0209315)
(19.256 -0.30467 0.0518594)