/*--------------------------------*- C++ -*----------------------------------*\
| =========                 |                                                 |
| \\      /  F ield         | OpenFOAM: The Open Source CFD Toolbox           |
|  \\    /   O peration     | Version:  2512                                  |
|   \\  /    A nd           | Website:  www.openfoam.com                      |
|    \\/     M anipulation  |                                                 |
\*---------------------------------------------------------------------------*/
FoamFile
{
    version     2.0;
    format      ascii;
    arch        "LSB;label=32;scalar=64";
    class       volScalarField;
    location    "160";
    object      k;
}
// * * * * * * * * * * * * * * * * * * * * * * * * * * * * * * * * * * * * * //

dimensions      [0 2 -2 0 0 0 0];

internalField   nonuniform List<scalar> 
90398
(
0.231945
0.224256
0.217061
0.210335
0.204083
0.198297
0.192954
0.188091
0.183712
0.179765
0.176295
0.173892
0.195962
0.498258
1.92951
6.13808
14.1944
23.4624
31.9094
38.9698
44.7423
49.4888
53.471
56.9154
60.0091
62.9267
65.7965
68.7828
71.9336
75.929
0.231948
0.224265
0.21708
0.210362
0.204117
0.198335
0.192995
0.188134
0.183757
0.179802
0.176346
0.174949
0.229893
0.743946
2.76852
7.60448
15.4287
24.0078
31.8301
38.4415
43.9065
48.4401
52.2712
55.6057
58.624
61.4852
64.3189
67.2744
70.4186
74.3471
0.231952
0.224278
0.217108
0.210402
0.20417
0.198397
0.193057
0.188204
0.183821
0.179845
0.176413
0.176709
0.28137
1.06734
3.69963
9.08711
16.5195
24.1863
31.1386
37.0824
42.0656
46.2547
49.8371
52.9973
55.8952
58.6759
61.4633
64.393
67.5242
71.3803
0.231955
0.224291
0.217136
0.210447
0.204229
0.198467
0.193127
0.188278
0.183869
0.179865
0.176455
0.178943
0.349885
1.45779
4.68394
10.3235
17.0708
23.7402
29.7606
34.955
39.3682
43.1336
46.406
49.3504
52.1025
54.7958
57.5418
60.4605
63.5895
67.3664
0.231959
0.224303
0.21716
0.21049
0.204284
0.198537
0.193203
0.188359
0.183921
0.179926
0.176595
0.181546
0.442796
1.92099
5.60422
10.9689
16.9035
22.5945
27.7001
32.1281
35.9365
39.2435
42.1867
44.9041
47.5169
50.1396
52.8657
55.794
58.9369
62.6292
0.231966
0.224312
0.21718
0.210527
0.204332
0.1986
0.193284
0.188441
0.183968
0.180052
0.17712
0.184777
0.586459
2.50743
6.34022
11.179
16.1919
20.8684
25.0398
28.6852
31.8813
34.7415
37.3811
39.9122
42.4351
45.0395
47.7923
50.7627
53.9328
57.5303
0.231972
0.224329
0.217197
0.210557
0.204366
0.198639
0.19333
0.188431
0.183952
0.180352
0.180398
0.193294
0.848941
3.48395
7.33928
11.4545
15.328
18.7949
21.8756
24.6572
27.2287
29.6834
32.102
34.5574
37.1075
39.7988
42.6586
45.7188
48.9299
52.4117
0.231974
0.224343
0.217226
0.210602
0.2044
0.198646
0.193329
0.188346
0.183895
0.179742
0.183678
0.22619
0.267491
1.12008
11.2085
13.7508
15.6675
17.2917
18.8271
20.4369
22.2491
24.3122
26.6312
29.1849
31.9382
34.8521
37.9149
41.0962
44.3105
47.6076
0.231976
0.224347
0.217246
0.210636
0.204438
0.198643
0.193282
0.188227
0.183248
0.175828
0.455758
1.65315
2.05159
3.43955
17.8476
16.6965
15.5979
14.8996
14.7526
15.3061
16.6248
18.6648
21.3003
24.3481
27.6235
30.9895
34.3496
37.6579
40.8372
43.7869
0.231976
0.224348
0.217241
0.210627
0.204445
0.198631
0.193227
0.188106
0.18312
0.175875
2.07187
16.6895
9.66431
7.22623
11.4816
10.1355
9.52216
9.53237
10.1772
11.5442
13.665
16.4448
19.6787
23.1202
26.5676
29.8959
33.0497
36.0156
38.769
41.2219
0.231976
0.224346
0.217237
0.210618
0.204425
0.198586
0.193129
0.187947
0.182793
0.175773
21.0867
10.4584
5.94603
10.4283
10.2406
10.7542
11.8085
13.3551
15.392
17.8606
20.6023
23.4342
26.2273
28.9668
31.5508
33.9421
36.1337
38.1115
39.7698
0.231975
0.224343
0.217234
0.210609
0.204377
0.198514
0.193021
0.187807
0.182321
0.17403
0.353922
0.503374
0.375559
0.675699
10.8509
12.9517
14.955
17.0301
19.219
21.5169
23.8668
26.1719
28.3562
30.3589
32.2101
33.9327
35.4791
36.8336
37.9861
38.8276
0.231974
0.224337
0.217209
0.210562
0.204305
0.198471
0.192989
0.187698
0.182347
0.177026
0.169354
0.163896
0.178724
0.907191
9.94859
13.6638
16.9577
19.9712
22.7552
25.3383
27.7214
29.8564
31.721
33.2809
34.5931
35.7157
36.6154
37.2851
37.732
37.8565
0.231971
0.224322
0.217176
0.210504
0.204256
0.198425
0.19293
0.187647
0.182573
0.177742
0.174339
0.194756
0.804395
4.23532
8.81545
13.3827
17.5524
21.2698
24.5793
27.5172
30.0926
32.2731
34.0297
35.3455
36.2682
36.9279
37.3033
37.4001
37.2444
36.75
0.231965
0.224305
0.217157
0.210468
0.204206
0.198359
0.192842
0.187658
0.182847
0.178461
0.175857
0.209096
0.80397
3.94314
8.443
13.203
17.7184
21.8232
25.517
28.7951
31.62
33.9271
35.6601
36.8102
37.427
37.6919
37.6152
37.2149
36.5402
35.5169
0.231958
0.224296
0.217136
0.210426
0.204148
0.198279
0.192749
0.187633
0.182959
0.17881
0.176729
0.214558
0.762897
3.66768
8.06659
12.8696
17.5542
21.9231
25.9434
29.5565
32.6583
35.1214
36.8576
37.8644
38.2146
38.1176
37.643
36.8075
35.6871
34.22
0.231955
0.224286
0.217113
0.210382
0.204085
0.198195
0.192666
0.187572
0.182962
0.178917
0.177008
0.213082
0.706302
3.34908
7.6157
12.3816
17.1474
21.7155
26.0289
29.9687
33.3502
35.9786
37.7229
38.5941
38.6973
38.2816
37.4615
36.2594
34.7696
32.9439
0.231952
0.224274
0.217085
0.210334
0.204016
0.198106
0.192569
0.187477
0.182888
0.178866
0.176826
0.207658
0.632192
2.98955
7.07126
11.7326
16.515
21.2349
25.8167
30.0772
33.7404
36.5358
38.2986
39.0465
38.9349
38.2658
37.1615
35.6659
33.8879
31.7898
0.23195
0.224264
0.21706
0.210292
0.203954
0.198025
0.192477
0.187372
0.182787
0.178761
0.17645
0.200501
0.550836
2.62604
6.48414
10.9832
15.7136
20.5228
25.337
29.9097
33.8541
36.8153
38.6067
39.261
38.9802
38.1411
36.8363
35.1319
33.1537
30.8716
0.231947
0.224254
0.217036
0.210252
0.203896
0.197948
0.192377
0.187252
0.182664
0.178626
0.176027
0.193387
0.474587
2.31095
5.96286
10.2736
14.9143
19.7766
24.7664
29.5783
33.7515
36.8438
38.6601
39.2611
38.891
37.987
36.5889
34.7811
32.706
30.3293
0.238841
0.237513
0.23608
0.234596
0.233121
0.231739
0.230548
0.229663
0.229192
0.22905
0.229525
0.249464
0.65899
3.00449
10.5169
26.6843
49.6222
70.9379
88.0171
102.011
113.725
123.739
132.509
140.42
147.831
154.942
162.068
169.301
176.762
183.511
0.238842
0.237514
0.236082
0.234597
0.23312
0.231735
0.230547
0.229677
0.229255
0.229186
0.230459
0.280071
1.03064
4.41432
13.5023
30.3126
52.1568
71.7233
87.8315
101.227
112.534
122.256
130.817
138.605
145.91
153.006
160.156
167.459
175.009
181.869
0.238844
0.237517
0.236087
0.234601
0.23312
0.231733
0.230551
0.229723
0.229397
0.229486
0.232028
0.32779
1.48439
6.06926
16.9007
34.3053
53.9418
71.1518
85.814
98.2507
108.879
118.106
126.329
133.867
141.014
148.08
155.272
162.682
170.362
177.39
0.238846
0.237522
0.236093
0.234605
0.233119
0.231728
0.230558
0.2298
0.229618
0.229981
0.234099
0.387562
2.0038
7.88571
20.213
37.3502
54.0908
69.1055
82.1715
93.4336
103.186
111.761
119.542
126.749
133.752
140.789
148.057
155.636
163.496
170.737
0.238849
0.237527
0.236098
0.234609
0.233121
0.231719
0.230559
0.229911
0.229954
0.230732
0.236417
0.459599
2.65183
9.91121
23.0793
38.2994
52.7263
65.7029
77.1059
87.059
95.81
103.672
110.923
117.846
124.738
131.808
139.211
147
155.079
162.549
0.238851
0.237531
0.236102
0.234611
0.233116
0.231705
0.230564
0.230069
0.230483
0.231962
0.239304
0.552066
3.70686
12.4853
25.335
38.3318
50.4032
61.2283
70.825
79.3539
87.0702
94.207
101.006
107.764
114.675
121.899
129.533
137.579
145.858
153.513
0.238855
0.237535
0.236105
0.23461
0.233103
0.231676
0.230581
0.230297
0.231312
0.234
0.242705
0.683592
5.91721
17.0524
28.5128
38.7913
47.9015
56.0635
63.521
70.4992
77.1855
83.7363
90.368
97.2223
104.397
111.956
119.913
128.219
136.629
144.317
0.238858
0.23754
0.236105
0.234603
0.233074
0.231625
0.230539
0.230523
0.232557
0.233992
0.242336
0.276129
3.64337
16.4347
38.1625
42.5857
46.5568
50.7546
55.4
60.6424
66.478
72.9083
79.8649
87.2605
95.0119
103.054
111.313
119.736
128.073
135.532
0.238859
0.237544
0.236108
0.234593
0.233051
0.231547
0.230435
0.230625
0.231108
0.238111
0.310999
0.461009
6.95006
29.1979
50.7863
46.572
43.9684
43.7372
45.8547
50.107
56.1206
63.3756
71.3747
79.7174
88.1296
96.4958
104.769
112.92
120.726
127.555
0.238859
0.237544
0.23611
0.234592
0.233037
0.231476
0.230287
0.23057
0.231809
0.238782
0.963636
22.3821
51.7762
53.846
28.5166
26.5712
27.6492
30.8625
36.0012
42.9019
51.1035
59.9464
68.9235
77.6572
85.989
93.9123
101.468
108.685
115.401
121.088
0.238859
0.237542
0.236107
0.234582
0.233012
0.231404
0.230042
0.230001
0.231295
0.240632
5.78658
30.7987
31.2626
33.5044
37.5018
43.2112
50.3126
58.2348
66.3673
74.2987
81.8622
88.8833
95.3863
101.431
107.052
112.129
116.209
0.238857
0.237539
0.236097
0.234565
0.232983
0.231355
0.229812
0.229085
0.229316
0.23729
0.266677
7.72353
33.1547
42.8593
38.4915
40.7755
44.2389
49.1725
55.2319
62.0111
68.9966
75.9176
82.3688
88.3344
93.7818
98.6242
102.937
106.754
110.004
112.301
0.238856
0.237534
0.236089
0.234558
0.232971
0.231326
0.22968
0.228387
0.228998
0.23041
0.234871
0.248245
2.16938
14.6972
34.1524
41.4664
48.5953
55.8543
63.1667
70.4121
77.2638
83.6085
89.1735
94.0332
98.2063
101.6
104.342
106.472
107.986
108.569
0.238853
0.237528
0.236085
0.234554
0.23296
0.231315
0.229656
0.228179
0.227835
0.229318
0.243957
0.749799
5.77401
18.608
30.4736
40.9122
50.4378
59.3852
67.8643
75.8116
83.0135
89.2244
94.3603
98.4626
101.614
103.807
105.171
105.765
105.692
104.698
0.23885
0.237524
0.236079
0.234546
0.232954
0.231318
0.229693
0.228205
0.227317
0.228339
0.25584
0.874699
5.3851
16.9967
29.1562
40.5397
51.1689
61.1897
70.6127
79.2807
86.9483
93.3164
98.2237
101.743
104.044
105.186
105.321
104.547
103.051
100.65
0.238848
0.23752
0.236073
0.234538
0.23295
0.231334
0.229756
0.228349
0.227449
0.228531
0.262755
0.89783
5.04565
15.9161
28.1298
39.8529
51.072
61.8402
72.076
81.4911
89.6771
96.278
101.071
104.101
105.661
105.865
104.885
102.907
100.175
96.5593
0.238846
0.237516
0.236068
0.234532
0.232942
0.231351
0.22982
0.228504
0.227716
0.228861
0.263716
0.862537
4.67901
14.8528
26.9422
38.7381
50.2925
61.6356
72.6113
82.7753
91.5392
98.3972
103.134
105.746
106.648
106.024
104.067
101.037
97.2676
92.6495
0.238844
0.237513
0.236063
0.234528
0.232944
0.231368
0.229875
0.228635
0.227957
0.229031
0.259558
0.782507
4.21121
13.692
25.5058
37.201
48.9345
60.7476
72.4173
83.3298
92.692
99.8573
104.543
106.842
107.205
105.861
103.095
99.2091
94.6115
89.2114
0.238843
0.237511
0.236059
0.234523
0.232943
0.231378
0.229912
0.228723
0.22812
0.229032
0.253297
0.681998
3.70322
12.5261
23.9301
35.4017
47.171
59.3259
71.625
83.2879
93.2494
100.724
105.408
107.489
107.495
105.588
102.217
97.7198
92.5443
86.5885
0.238843
0.23751
0.236058
0.234521
0.232945
0.231388
0.229942
0.228789
0.228242
0.228976
0.246714
0.584107
3.24273
11.5628
22.5351
33.6992
45.4238
57.8256
70.5728
82.7639
93.2386
100.98
105.726
107.72
107.584
105.372
101.694
96.8822
91.4264
85.1567
0.239049
0.238093
0.237159
0.23628
0.235509
0.234935
0.234687
0.234784
0.235166
0.235918
0.242214
0.419993
2.11236
8.30085
23.9642
50.7254
80.2696
104.245
124.049
141.142
156.045
169.214
181.075
192.031
202.446
212.683
222.856
233.081
243.184
251.329
0.23905
0.238094
0.237161
0.23628
0.235505
0.234926
0.234679
0.234786
0.2352
0.236177
0.251635
0.62642
3.25168
11.2435
28.6184
54.8136
82.2691
104.851
123.944
140.51
155.014
167.886
179.544
190.382
200.8
211.043
221.33
231.725
242.015
250.362
0.239052
0.238098
0.237165
0.236282
0.235501
0.234919
0.23468
0.234813
0.235293
0.236644
0.26631
0.891397
4.51582
14.5847
33.8596
58.8948
83.0544
103.616
121.532
137.208
151.025
163.38
174.678
185.314
195.674
205.922
216.365
226.998
237.553
246.198
0.239055
0.238103
0.23717
0.236284
0.235496
0.234908
0.234682
0.234856
0.235448
0.237274
0.284184
1.18331
5.88289
18.1039
38.4709
61.3482
82.1608
100.729
117.159
131.668
144.575
156.248
167.077
177.479
187.711
198.038
208.682
219.613
230.486
239.483
0.239058
0.238108
0.237175
0.236285
0.235489
0.234888
0.23468
0.234916
0.235682
0.238034
0.301711
1.48996
7.55633
21.7804
41.8489
61.7059
79.9866
96.4709
111.2
124.343
136.193
147.096
157.469
167.596
177.748
188.212
199.105
210.36
221.552
230.886
0.23906
0.238114
0.237181
0.236284
0.235477
0.234858
0.234672
0.234997
0.236052
0.239091
0.320255
1.95356
10.0051
26.0184
44.3524
61.3662
77.0498
91.2326
104.053
115.697
126.443
136.628
146.605
156.526
166.746
177.415
188.584
200.134
211.563
221.128
0.239064
0.238117
0.237185
0.236281
0.235459
0.23482
0.234651
0.235105
0.236713
0.240503
0.327114
2.80699
15.3887
33.1495
48.3662
61.8001
74.0742
85.4377
96.0843
106.183
115.957
125.629
135.378
145.371
155.803
166.738
178.145
189.862
201.335
210.913
0.239066
0.238121
0.237185
0.236272
0.235433
0.234759
0.234573
0.235217
0.237511
0.242973
0.245737
0.967699
16.2001
37.8569
59.5534
65.1678
71.7876
79.3296
87.57
96.3281
105.562
115.17
125.107
135.451
146.204
157.348
168.803
180.395
191.571
200.829
0.239068
0.238124
0.237185
0.236262
0.235399
0.234682
0.234445
0.235211
0.23644
0.243212
0.258468
1.18846
33.1765
63.2287
71.6162
67.4872
67.9647
72.028
78.8041
87.3199
96.9923
107.215
117.756
128.495
139.378
150.379
161.433
172.399
182.781
191.294
0.239069
0.238125
0.237186
0.236257
0.235369
0.234591
0.234238
0.235043
0.236725
0.243542
0.288593
55.812
73.8953
80.4884
55.2368
54.8599
58.0853
64.3342
73.0739
83.2617
94.1058
105.019
115.767
126.302
136.638
146.803
156.781
166.482
175.492
182.757
0.239069
0.238124
0.237181
0.236245
0.235337
0.234498
0.233946
0.234498
0.236123
0.243544
0.62861
24.5965
54.581
55.9839
61.1319
68.9976
78.6716
89.0759
99.5921
109.75
119.512
128.865
137.817
146.414
154.666
162.517
169.641
175.227
0.239067
0.238119
0.237173
0.236228
0.235307
0.234418
0.233678
0.233786
0.234769
0.241647
0.254727
24.9962
39.2534
59.9144
62.6034
65.2048
71.2962
79.518
88.8944
98.6192
108.207
117.289
125.783
133.702
140.974
147.708
153.943
159.657
164.638
168.317
0.239064
0.238114
0.237165
0.236219
0.235294
0.234381
0.233555
0.233264
0.234439
0.238536
0.242374
0.54965
15.3056
39.5823
56.0951
65.2022
75.1551
85.5939
96.0957
106.258
115.751
124.341
131.881
138.514
144.236
149.183
153.398
156.955
159.77
161.51
0.239061
0.23811
0.237161
0.236214
0.235284
0.234375
0.233541
0.233044
0.2337
0.239612
0.406036
3.15816
16.3897
35.2197
50.3006
63.8111
76.6628
89.0287
100.827
111.794
121.626
130.082
137.006
142.519
146.832
150.087
152.393
153.911
154.661
154.547
0.239059
0.238106
0.237153
0.236207
0.23528
0.234388
0.233599
0.233119
0.233612
0.243242
0.497002
3.41397
14.6463
32.1357
48.0153
62.9197
77.237
90.9412
103.899
115.737
126.03
134.458
140.948
145.52
148.559
150.223
150.774
150.392
149.256
147.445
0.239057
0.2381
0.237146
0.236201
0.23528
0.234415
0.233685
0.233309
0.233861
0.245901
0.535051
3.39915
13.8349
30.5565
46.5011
61.8847
77.0015
91.6907
105.681
118.407
129.247
137.743
143.798
147.559
149.424
149.661
148.63
146.544
143.735
140.424
0.239054
0.238096
0.23714
0.236196
0.235281
0.234443
0.233774
0.233509
0.234109
0.246324
0.531394
3.26714
12.938
28.9915
44.8398
60.361
75.9644
91.4484
106.405
120.039
131.47
140.11
145.789
148.818
149.654
148.616
146.194
142.661
138.429
133.848
0.239052
0.238092
0.237135
0.236192
0.235285
0.234468
0.233848
0.233674
0.234274
0.24488
0.494219
2.95804
11.9291
27.2396
42.8166
58.261
74.1755
90.3711
106.263
120.806
132.861
141.699
147.124
149.506
149.495
147.402
143.842
139.136
133.775
128.185
0.239052
0.238092
0.237135
0.236194
0.235294
0.234495
0.233915
0.233803
0.234377
0.242618
0.441567
2.56567
10.8611
25.3896
40.514
55.777
71.7965
88.5425
105.344
120.897
133.573
142.614
147.89
149.846
149.183
146.352
141.977
136.442
130.278
123.966
0.23905
0.238089
0.237131
0.236191
0.235295
0.234505
0.233949
0.233874
0.234409
0.240292
0.387223
2.19333
9.92001
23.7651
38.4287
53.2918
69.3015
86.4617
103.902
120.154
133.573
142.83
148.091
149.905
148.914
145.733
140.957
135.005
128.437
121.728
0.239058
0.238125
0.237234
0.236419
0.235737
0.235277
0.235176
0.23541
0.235947
0.237684
0.280793
1.03335
5.22217
17.4367
42.3403
75.6178
106.033
130.678
152.371
171.656
188.842
204.316
218.492
231.79
244.59
257.201
269.873
282.449
294.492
303.588
0.239058
0.238126
0.237235
0.236418
0.235731
0.235266
0.235163
0.235406
0.235996
0.239425
0.343294
1.67372
7.43597
21.7026
47.3398
78.829
107.393
131.289
152.415
171.229
188.044
203.248
217.257
230.489
243.324
256.075
268.941
281.751
294.055
303.399
0.23906
0.23813
0.237239
0.23642
0.235727
0.235257
0.235159
0.23542
0.23611
0.242382
0.432743
2.41794
9.90236
26.6321
52.877
81.5599
107.229
129.845
149.981
167.969
184.127
198.844
212.54
225.624
238.475
251.417
264.513
277.673
290.343
300.053
0.239063
0.238134
0.237244
0.236422
0.235722
0.235245
0.235154
0.235446
0.236272
0.246045
0.534278
3.21143
12.4816
31.4912
57.2774
82.5994
105.719
126.704
145.496
162.373
177.651
191.722
205.005
217.899
230.787
243.916
257.302
270.871
283.952
294.079
0.239066
0.23814
0.237249
0.236422
0.235713
0.235224
0.23514
0.235471
0.236464
0.24945
0.632633
4.0222
15.3904
36.0485
60.02
82.3874
103.277
122.307
139.487
155.043
169.295
182.635
195.472
208.212
221.147
234.444
248.153
262.109
275.557
286.056
0.239069
0.238146
0.237255
0.236422
0.2357
0.235194
0.235114
0.235501
0.236686
0.251433
0.718806
5.06634
18.9644
40.7356
62.14
81.9461
100.383
117.222
132.58
146.689
159.871
172.491
184.936
197.557
210.572
224.038
238.017
252.246
265.904
276.618
0.239072
0.23815
0.237259
0.236419
0.235683
0.235151
0.235068
0.235527
0.236994
0.250312
0.758045
6.83745
25.8044
47.8796
66.0914
82.5451
97.85
112.097
125.459
138.114
150.32
162.367
174.575
187.148
200.213
213.803
227.878
242.134
255.715
266.376
0.239074
0.238154
0.237261
0.236412
0.235658
0.235089
0.234982
0.235515
0.237388
0.243913
0.268034
4.15507
29.8512
54.4529
75.8409
85.5478
96.2732
107.471
118.841
130.272
141.818
153.6
165.73
178.271
191.274
204.767
218.611
232.498
245.591
255.837
0.239076
0.238157
0.237263
0.236408
0.235629
0.235015
0.23483
0.235436
0.23777
0.244943
0.256247
4.91859
56.2408
82.488
86.2472
88.6161
94.8647
103.578
113.705
124.585
135.988
147.767
159.805
172.122
184.783
197.738
210.848
223.834
235.932
245.349
0.239078
0.238159
0.237262
0.236403
0.235602
0.234933
0.234619
0.235214
0.237859
0.241665
0.261878
16.2027
104.467
116.251
86.601
87.3653
92.9443
101.656
112.023
123.166
134.666
146.292
157.918
169.612
181.388
193.219
204.997
216.497
227.063
235.207
0.239078
0.238157
0.237258
0.236392
0.235574
0.234855
0.234393
0.234809
0.23721
0.241216
0.260808
28.2408
70.5553
79.8131
85.1133
87.7863
95.0033
104.747
115.588
126.821
138.052
149.091
159.865
170.441
180.777
190.931
200.838
210.338
218.914
225.413
0.239075
0.238153
0.237252
0.236378
0.235548
0.234793
0.234214
0.234365
0.236208
0.244376
0.256154
3.63164
77.4649
99.8186
82.8703
89.3028
98.8364
109.852
121.306
132.703
143.692
154.119
163.876
173.085
181.737
189.928
197.639
204.826
211.134
215.762
0.239073
0.238148
0.237244
0.236365
0.235534
0.234767
0.234145
0.234073
0.235743
0.250572
0.291081
3.57552
34.3244
60.4919
75.3785
87.4939
100.45
113.548
126.329
138.421
149.538
159.526
168.364
176.146
183.036
189.148
194.581
199.362
203.311
205.994
0.23907
0.238143
0.237238
0.236359
0.235529
0.234768
0.23416
0.23406
0.236111
0.281603
1.23401
8.86582
29.6064
51.2994
68.9936
85.3201
101.033
116.069
130.247
143.225
154.667
164.374
172.374
178.822
183.954
187.983
191.162
193.568
195.224
196.011
0.239068
0.238139
0.237231
0.236354
0.235528
0.234788
0.234229
0.234191
0.236842
0.305411
1.49516
8.96592
26.9607
47.5414
66.0904
83.8815
101.128
117.637
133.082
146.973
158.818
168.32
175.496
180.68
184.153
186.211
187.235
187.402
186.912
185.931
0.239065
0.238134
0.237224
0.236349
0.23553
0.234817
0.234321
0.234381
0.237354
0.317172
1.58884
8.83304
25.7667
45.5688
64.1193
82.447
100.586
118.221
134.822
149.642
161.942
171.297
177.74
181.682
183.589
183.847
182.918
181.07
178.648
176.084
0.239063
0.238129
0.237218
0.236345
0.235535
0.234848
0.234413
0.234546
0.237404
0.314744
1.54314
8.45135
24.36
43.6875
62.033
80.5067
99.1846
117.777
135.501
151.311
164.098
173.376
179.181
182.016
182.49
181.167
178.523
174.94
170.873
166.957
0.239062
0.238126
0.237215
0.236343
0.235542
0.234878
0.234495
0.234667
0.237113
0.302011
1.38908
7.75853
22.828
41.4898
59.467
77.7905
96.8626
116.445
135.289
152.021
165.376
174.704
179.988
181.923
181.195
178.552
174.536
169.541
164.155
159.157
0.23906
0.238123
0.237211
0.236341
0.235545
0.234897
0.234551
0.234744
0.23668
0.285068
1.17758
6.92389
21.1167
38.9222
56.3593
74.5736
94.1309
114.693
134.674
152.265
166.006
175.359
180.321
181.615
180.045
176.445
171.47
165.474
159.145
153.368
0.23906
0.238123
0.237211
0.236342
0.235553
0.234917
0.234598
0.234805
0.236295
0.268819
0.96117
6.12359
19.5202
36.4717
53.4258
71.5383
91.5255
112.859
133.68
151.931
166.022
175.383
180.249
181.248
179.29
175.229
169.778
163.287
156.467
150.266
0.239058
0.238126
0.237238
0.236427
0.235751
0.235299
0.235206
0.235449
0.236091
0.24278
0.431683
2.40452
10.3543
29.7226
62.0135
97.8967
128.194
154.123
177.583
198.685
217.721
235.067
251.148
266.398
281.21
295.883
310.579
325.125
338.784
348.625
0.239059
0.238127
0.237239
0.236427
0.235747
0.235289
0.235193
0.235446
0.236327
0.253378
0.659327
3.73983
13.7885
34.9935
66.8176
100.578
129.548
154.889
177.826
198.492
217.19
234.305
250.27
265.519
280.438
295.312
310.286
325.181
339.129
349.246
0.239061
0.238131
0.237243
0.236429
0.235743
0.23528
0.235186
0.23546
0.236769
0.270918
0.951161
5.22974
17.6447
41.0307
71.8792
102.304
129.149
153.511
175.541
195.429
213.514
230.199
245.924
261.12
276.161
291.309
306.679
322.019
336.394
346.922
0.239063
0.238136
0.237248
0.236431
0.235739
0.235268
0.235174
0.235478
0.237352
0.292479
1.26207
6.74617
21.5055
46.5293
75.4753
102.477
127.487
150.459
171.217
190.054
207.316
223.425
238.824
253.936
269.107
284.569
300.396
316.202
331.05
342.027
0.239066
0.238141
0.237254
0.236432
0.23573
0.235247
0.235151
0.23549
0.237969
0.314054
1.56437
8.26748
25.2797
51.0628
77.4102
101.979
125.068
146.257
165.494
183.085
199.39
214.841
229.876
244.889
260.194
275.974
292.189
308.404
323.641
334.991
0.239069
0.238147
0.237259
0.236432
0.235718
0.235217
0.235112
0.235489
0.238464
0.330284
1.83282
9.86504
29.3317
55.1428
79.1214
101.535
122.455
141.612
159.165
175.406
190.708
205.493
220.17
235.081
250.486
266.507
282.932
299.378
314.776
326.3
0.239073
0.238151
0.237262
0.23643
0.235702
0.235176
0.235049
0.235465
0.238686
0.335611
2.04382
12.029
35.103
60.4201
82.1613
102.004
120.384
137.324
153.111
168.01
182.369
196.549
210.9
225.686
241.093
257.118
273.482
289.825
305.029
316.421
0.239076
0.238157
0.237264
0.236426
0.235681
0.235122
0.234953
0.2354
0.238648
0.325115
2.20323
16.3766
45.3681
70.1715
88.0248
104.089
119.421
134.082
148.21
161.948
175.575
189.22
203.253
217.827
232.982
248.62
264.525
280.296
294.849
305.731
0.239077
0.238162
0.237268
0.236422
0.235658
0.235058
0.23482
0.235264
0.238329
0.282658
0.523617
12.8686
52.2742
78.8469
95.8224
107.057
119.464
132.321
145.296
158.325
171.402
184.585
198.227
212.298
226.767
241.551
256.471
271.123
284.517
294.49
0.239079
0.238162
0.23727
0.236418
0.235637
0.234989
0.234657
0.235073
0.238338
0.279941
0.448026
15.8058
62.2345
89.1753
99.0047
108.686
120.154
132.475
145.146
157.876
170.563
183.269
196.253
209.381
222.673
236.097
249.473
262.458
274.2
282.88
0.239078
0.238161
0.237267
0.23641
0.235616
0.234932
0.234504
0.234845
0.238461
0.286439
0.436991
13.6698
60.6285
88.7226
99.3889
109.86
121.983
134.745
147.63
160.29
172.708
184.838
196.843
208.679
220.447
232.033
243.375
254.225
263.902
270.969
0.239076
0.238158
0.237259
0.236398
0.235594
0.234891
0.234403
0.234678
0.239428
0.314493
0.571492
12.2652
56.6565
83.9984
97.0666
110.008
123.846
137.756
151.312
164.287
176.57
188.13
199.029
209.372
219.266
228.691
237.707
246.108
253.452
258.707
0.239074
0.238152
0.237251
0.236388
0.235585
0.234879
0.234382
0.234701
0.242072
0.415627
3.00806
18.1127
47.6921
72.9092
91.3985
108.381
124.772
140.394
155.122
168.734
181.067
192.07
201.828
210.543
218.357
225.456
231.953
237.765
242.686
246.052
0.239072
0.238146
0.237246
0.236383
0.235582
0.234889
0.234428
0.234833
0.245403
0.502646
3.56475
17.2719
42.3703
66.3288
87.2364
106.695
125.168
142.486
158.498
172.875
185.343
195.806
204.392
211.422
217.15
221.877
225.818
229.062
231.573
233.088
0.239068
0.238142
0.23724
0.236378
0.235584
0.234915
0.234512
0.235009
0.248218
0.565788
3.92743
17.2054
40.2122
63.2135
84.6969
105.281
125.115
143.881
161.13
176.311
188.959
198.893
206.309
211.653
215.318
217.762
219.268
220.06
220.295
220.081
0.239066
0.238137
0.237234
0.236374
0.23559
0.234947
0.234611
0.235158
0.249127
0.588615
4.02829
16.9299
38.7184
61.092
82.5637
103.612
124.286
144.294
162.74
178.773
191.686
201.143
207.447
211.177
212.898
213.19
212.492
211.05
209.239
207.471
0.239064
0.238133
0.237229
0.236371
0.235596
0.234981
0.234708
0.235251
0.247833
0.565419
3.85249
16.1762
37.0253
58.8928
80.0839
101.272
122.74
143.994
163.642
180.428
193.469
202.548
207.883
210.146
210.128
208.518
205.889
202.528
198.958
195.861
0.239062
0.238129
0.237224
0.236368
0.235602
0.23501
0.234787
0.235294
0.245206
0.509318
3.45736
15.009
34.9388
56.2005
76.9318
98.3351
120.755
143.357
164.215
181.655
194.739
203.319
207.816
208.847
207.386
204.248
200.032
195.126
190.138
185.981
0.239062
0.238128
0.237224
0.236371
0.235614
0.235042
0.23486
0.235326
0.242332
0.439221
2.93526
13.5973
32.5161
52.9146
73.301
95.1124
118.721
142.793
164.733
182.567
195.538
203.651
207.455
207.607
205.122
200.907
195.576
189.564
183.57
178.647
0.23906
0.238126
0.237221
0.236369
0.235616
0.235056
0.234899
0.235324
0.239874
0.373031
2.41171
12.2261
30.1556
49.7074
69.8829
92.3336
117.037
142.19
164.881
182.963
195.681
203.525
207.008
206.695
203.721
198.981
193.106
186.516
180.005
174.667
0.239058
0.238126
0.237238
0.236426
0.235749
0.235292
0.235187
0.235428
0.236564
0.264592
0.833221
4.75642
17.4263
43.3583
80.125
117.092
148.22
175.929
201.049
223.76
244.387
263.334
281.051
297.994
314.565
331.048
347.548
363.774
378.763
389.258
0.239059
0.238127
0.237239
0.236425
0.235744
0.235281
0.235173
0.235443
0.237731
0.308289
1.38283
6.96075
21.9924
49.1601
84.7466
119.71
149.813
176.915
201.523
223.819
244.139
262.901
280.561
297.575
314.333
331.101
347.952
364.569
379.919
390.704
0.239061
0.238131
0.237243
0.236427
0.235741
0.235273
0.235164
0.235491
0.23988
0.37464
2.03505
9.39957
27.1265
55.7017
89.2877
121.095
149.599
175.74
199.467
221.021
240.78
259.183
276.696
293.767
310.767
327.925
345.267
362.425
378.287
389.497
0.239063
0.238136
0.237248
0.23643
0.235737
0.235261
0.23515
0.235558
0.242877
0.453256
2.70134
11.8096
32.0077
61.3115
92.2565
121.157
148.089
172.877
195.413
215.976
234.985
252.902
270.202
287.315
304.578
322.169
340.05
357.795
374.171
385.84
0.239066
0.238142
0.237254
0.236432
0.23573
0.235242
0.235124
0.235632
0.246351
0.533537
3.33954
14.0835
36.3378
65.4797
93.8324
120.69
145.852
168.99
190.076
209.479
227.621
244.981
262.026
279.156
296.654
314.63
332.974
351.206
367.948
379.974
0.239069
0.238147
0.23726
0.236433
0.235721
0.235214
0.235084
0.235699
0.249779
0.604293
3.91239
16.2147
40.3725
68.9082
95.3396
120.276
143.522
164.806
184.338
202.503
219.737
236.515
253.276
270.366
287.995
306.2
324.798
343.218
360.05
372.199
0.239073
0.238151
0.237263
0.236432
0.235708
0.235178
0.235024
0.235745
0.252527
0.659004
4.43001
18.6138
44.9565
72.7368
97.6212
120.561
141.729
161.15
179.137
196.09
212.449
228.649
245.079
262.005
279.555
297.696
316.187
334.353
350.877
362.809
0.239077
0.238158
0.237266
0.23643
0.235691
0.235133
0.234942
0.235746
0.254112
0.69224
4.95585
21.7061
50.7822
78.0681
101.197
121.998
141.087
158.738
175.325
191.209
206.798
222.485
238.446
254.944
272.08
289.733
307.586
324.986
340.713
352.04
0.239079
0.238163
0.237271
0.236427
0.235674
0.235084
0.234837
0.23572
0.254967
0.698815
5.43741
25.4871
57.3853
84.3666
105.522
124.277
141.625
157.942
173.495
188.583
203.58
218.646
233.941
249.684
265.983
282.604
299.218
315.307
329.73
340.066
0.239079
0.238164
0.237274
0.236426
0.235658
0.235034
0.23473
0.235689
0.2566
0.708956
5.77446
27.6719
60.8819
87.8921
108.413
126.41
143.06
158.804
173.865
188.518
202.944
217.246
231.648
246.301
261.252
276.263
291.1
305.354
318.014
327.02
0.239079
0.238163
0.237272
0.23642
0.235644
0.234997
0.234648
0.235722
0.260201
0.755123
6.06909
28.3781
61.913
89.1139
109.878
128.155
145.055
160.951
176.024
190.478
204.372
217.936
231.227
244.387
257.518
270.485
283.132
295.114
305.637
313.043
0.239078
0.238161
0.237265
0.23641
0.235631
0.234977
0.234614
0.235888
0.266521
0.863288
6.56731
28.169
60.632
88.0078
109.663
129.036
146.929
163.599
179.152
193.657
207.201
219.93
231.924
243.328
254.309
264.893
275.008
284.437
292.593
298.236
0.239076
0.238155
0.237257
0.236405
0.235627
0.23498
0.234645
0.23616
0.275463
1.01916
7.17576
27.4252
57.3732
84.3489
107.668
128.811
148.31
166.215
182.611
197.453
210.729
222.525
233.061
242.526
251.16
259.133
266.519
273.235
278.925
282.762
0.239072
0.238148
0.237252
0.2364
0.235629
0.235002
0.234722
0.236461
0.284567
1.15811
7.62044
27.1292
55.1284
81.444
105.706
128.213
149.205
168.494
185.89
201.175
214.205
225.045
233.987
241.378
247.592
252.912
257.558
261.559
264.814
266.886
0.239069
0.238144
0.237247
0.236397
0.235635
0.235036
0.234824
0.236671
0.290069
1.2512
7.96256
26.9602
53.6069
79.4195
103.966
127.281
149.464
170.065
188.525
204.337
217.15
227.018
234.319
239.62
243.432
246.183
248.199
249.639
250.596
251.025
0.239066
0.23814
0.237242
0.236394
0.235643
0.235076
0.234932
0.236705
0.28923
1.26063
7.98556
26.4934
52.0884
77.4529
101.924
125.735
148.97
170.945
190.449
206.686
219.248
228.205
233.981
237.264
238.797
239.172
238.782
237.885
236.786
235.747
0.239064
0.238135
0.237237
0.236392
0.235652
0.235116
0.235031
0.23657
0.281803
1.17123
7.5712
25.3818
50.1445
75.0027
99.3273
123.779
148.366
171.851
192.352
208.747
220.774
228.685
233.055
234.501
234.019
232.3
229.832
226.911
224.052
221.768
0.239063
0.238132
0.237234
0.236392
0.235663
0.235153
0.235116
0.236356
0.270666
1.00944
6.8041
23.6898
47.609
71.8892