/*--------------------------------*- C++ -*----------------------------------*\
| =========                 |                                                 |
| \\      /  F ield         | OpenFOAM: The Open Source CFD Toolbox           |
|  \\    /   O peration     | Version:  2512                                  |
|   \\  /    A nd           | Website:  www.openfoam.com                      |
|    \\/     M anipulation  |                                                 |
\*---------------------------------------------------------------------------*/
FoamFile
{
    version     2.0;
    format      ascii;
    arch        "LSB;label=32;scalar=64";
    class       volScalarField;
    location    "160";
    object      k;
}
// * * * * * * * * * * * * * * * * * * * * * * * * * * * * * * * * * * * * * //

dimensions      [0 2 -2 0 0 0 0];

internalField   nonuniform List<scalar> 
84826
(
0.231932
0.224216
0.216973
0.210158
0.203732
0.197662
0.191925
0.186488
0.181386
0.17659
0.172098
0.167902
0.163941
0.160187
0.156578
0.15308
0.149672
0.146384
0.143213
0.140157
0.137212
0.134377
0.131648
0.12902
0.126487
0.124046
0.121692
0.11942
0.117228
0.115113
0.231932
0.224218
0.216978
0.210166
0.203747
0.197686
0.19196
0.186536
0.181449
0.17667
0.172199
0.168022
0.16408
0.160339
0.156733
0.153232
0.149814
0.146517
0.143337
0.140272
0.13732
0.134477
0.131741
0.129106
0.126567
0.124119
0.121759
0.119481
0.117283
0.115161
0.231933
0.22422
0.216982
0.210174
0.203761
0.197711
0.191999
0.186594
0.181533
0.17679
0.172363
0.168232
0.164335
0.160622
0.157029
0.153522
0.150087
0.146772
0.143576
0.140497
0.137531
0.134676
0.131929
0.129283
0.126734
0.124277
0.121908
0.119621
0.117414
0.115284
0.231933
0.224221
0.216985
0.210181
0.203774
0.197734
0.192038
0.186655
0.181631
0.176942
0.172594
0.168545
0.164724
0.161062
0.157493
0.153981
0.150518
0.147175
0.143956
0.140856
0.137872
0.135002
0.132241
0.129583
0.127021
0.124551
0.122169
0.119871
0.117653
0.115511
0.231933
0.224222
0.216988
0.210187
0.203785
0.197755
0.192076
0.186719
0.181744
0.177134
0.17282
0.168822
0.165147
0.161578
0.158057
0.15454
0.151039
0.147664
0.144424
0.141318
0.138354
0.135536
0.132857
0.130307
0.127878
0.125558
0.123338
0.121207
0.119155
0.117166
0.231934
0.224223
0.216989
0.210191
0.203794
0.197773
0.192111
0.186788
0.181876
0.177261
0.173034
0.169208
0.165661
0.162223
0.158796
0.155278
0.15175
0.148573
0.145831
0.143638
0.142065
0.141065
0.1405
0.140245
0.14019
0.140232
0.140272
0.14023
0.140057
0.139648
0.231934
0.224223
0.21699
0.210193
0.2038
0.197789
0.192145
0.186877
0.181964
0.177407
0.173612
0.170338
0.168102
0.166935
0.164138
0.161188
0.162847
0.169788
0.180593
0.194405
0.209904
0.225571
0.240234
0.253323
0.264578
0.273883
0.281181
0.286558
0.289927
0.291873
0.231933
0.224222
0.21699
0.210194
0.203806
0.197802
0.192178
0.186964
0.182018
0.177609
0.173469
0.166912
0.16204
0.169564
0.383492
0.421976
0.487765
0.550467
0.601926
0.641893
0.670696
0.689197
0.698923
0.701682
0.698955
0.691828
0.681126
0.667592
0.651772
0.634401
0.231933
0.224222
0.216989
0.210195
0.203809
0.197812
0.192206
0.187025
0.182129
0.177895
0.174299
0.174988
0.221498
0.916288
2.41384
2.18918
1.98389
1.80093
1.6421
1.50638
1.38994
1.28925
1.20201
1.12804
1.06392
1.00704
0.955672
0.908491
0.865422
0.825033
0.231934
0.224224
0.216993
0.2102
0.203816
0.197824
0.192228
0.187029
0.182188
0.178229
0.175764
0.180357
0.895937
2.5862
2.65452
2.21789
1.9781
1.77717
1.61056
1.47164
1.35334
1.25112
1.16207
1.08401
1.01517
0.954106
0.899717
0.851033
0.807634
0.767953
0.231936
0.224227
0.216997
0.210205
0.203823
0.197824
0.192229
0.187031
0.182191
0.178242
0.176224
0.180521
3.17006
2.91625
2.40586
2.12544
1.89942
1.71579
1.56549
1.43975
1.33304
1.24181
1.16335
1.09545
1.03627
0.9844
0.938582
0.89818
0.861457
0.231936
0.224225
0.216993
0.210201
0.203817
0.197815
0.19221
0.187031
0.182139
0.177923
0.174792
0.175028
0.5857
2.3313
2.27418
2.03036
1.84385
1.68243
1.54313
1.4236
1.32013
1.22996
1.15114
1.08225
1.02181
0.9687
0.921878
0.880506
0.843878
0.811427
0.231935
0.224223
0.21699
0.210196
0.203809
0.197807
0.192186
0.186977
0.182036
0.177643
0.173775
0.169349
0.226856
0.510861
0.383765
0.352259
0.360738
0.377163
0.394045
0.409826
0.423282
0.433824
0.441684
0.447301
0.451208
0.453829
0.455395
0.456327
0.456202
0.456605
0.231934
0.224223
0.216991
0.210195
0.203804
0.197794
0.192154
0.186893
0.181984
0.177439
0.173702
0.170688
0.170743
0.169566
0.165665
0.161719
0.157853
0.154247
0.151333
0.149579
0.148856
0.148905
0.149552
0.150733
0.152442
0.15463
0.157242
0.160226
0.163563
0.1672
0.231934
0.224223
0.21699
0.210193
0.203798
0.19778
0.192121
0.186804
0.181903
0.177296
0.173097
0.169331
0.166006
0.162611
0.159236
0.155786
0.152311
0.148936
0.145672
0.142517
0.139484
0.136592
0.133841
0.131229
0.12876
0.126441
0.124277
0.122275
0.120452
0.118809
0.231934
0.224223
0.216989
0.210189
0.203789
0.197761
0.192086
0.186735
0.18177
0.177178
0.172873
0.168894
0.165251
0.161771
0.158331
0.154895
0.151471
0.14815
0.144937
0.141832
0.138834
0.135945
0.133164
0.130485
0.127901
0.125408
0.123002
0.120679
0.118437
0.116273
0.231933
0.224222
0.216986
0.210183
0.203778
0.19774
0.192048
0.18667
0.181656
0.176982
0.172657
0.168646
0.164877
0.161274
0.157762
0.154304
0.150895
0.147599
0.144405
0.141319
0.13834
0.135467
0.132697
0.130028
0.127452
0.124965
0.122565
0.120246
0.118006
0.115844
0.231933
0.22422
0.216983
0.210176
0.203764
0.197716
0.192008
0.186608
0.181556
0.176826
0.172421
0.168322
0.164469
0.160804
0.157257
0.153799
0.150412
0.147145
0.143983
0.140927
0.137972
0.135119
0.132364
0.129705
0.127141
0.124668
0.122281
0.119977
0.117752
0.115605
0.231932
0.224218
0.216978
0.210167
0.203749
0.19769
0.191967
0.186549
0.181471
0.176707
0.172256
0.168108
0.164205
0.160506
0.156942
0.153484
0.150112
0.14686
0.143715
0.140677
0.13774
0.134903
0.132164
0.129519
0.126963
0.124495
0.122114
0.119816
0.117597
0.115457
0.231932
0.224216
0.216973
0.210158
0.203733
0.197665
0.191932
0.186501
0.181408
0.176627
0.172156
0.167989
0.164065
0.160352
0.156782
0.153327
0.149964
0.146721
0.143585
0.140556
0.137628
0.1348
0.13207
0.129434
0.126886
0.124425
0.122047
0.11975
0.117533
0.115394
0.238838
0.237492
0.236012
0.234424
0.232748
0.231004
0.229213
0.227401
0.225602
0.223854
0.222158
0.220423
0.21855
0.216603
0.214685
0.212806
0.210914
0.209018
0.207122
0.205231
0.203349
0.20148
0.199627
0.19779
0.195968
0.194171
0.192397
0.190646
0.188918
0.187222
0.238838
0.237492
0.236012
0.234424
0.232749
0.231005
0.229215
0.22741
0.225629
0.22392
0.222293
0.22063
0.218821
0.216911
0.215008
0.213134
0.211236
0.209331
0.207421
0.205515
0.203618
0.201732
0.19986
0.198001
0.196161
0.194345
0.19255
0.190778
0.18903
0.187315
0.238838
0.237492
0.236012
0.234424
0.232749
0.231006
0.22922
0.227433
0.225696
0.224091
0.222657
0.221188
0.219545
0.217732
0.215868
0.214001
0.212086
0.210154
0.208211
0.206271
0.204338
0.202416
0.200504
0.198606
0.196728
0.19487
0.193035
0.191223
0.189437
0.187686
0.238839
0.237492
0.236012
0.234424
0.232749
0.23101
0.229234
0.22748
0.225841
0.224481
0.223487
0.222465
0.221169
0.21955
0.217759
0.215886
0.213919
0.211921
0.209903
0.207884
0.20587
0.203864
0.201862
0.199878
0.19791
0.19596
0.194031
0.192127
0.190249
0.188409
0.238839
0.237494
0.236012
0.234424
0.232751
0.231016
0.22926
0.227574
0.226139
0.225302
0.225102
0.224849
0.224262
0.223026
0.221392
0.219474
0.21737
0.21522
0.213063
0.210919
0.208786
0.206659
0.204538
0.202429
0.200332
0.198247
0.196181
0.194137
0.19212
0.190142
0.238839
0.237495
0.236014
0.234425
0.232754
0.231028
0.229306
0.227749
0.226714
0.22669
0.227731
0.228215
0.228616
0.228237
0.227067
0.2253
0.22316
0.22085
0.218537
0.216332
0.214248
0.212258
0.210332
0.208442
0.206567
0.20469
0.202801
0.200896
0.198988
0.197066
0.238839
0.237495
0.236017
0.234429
0.232758
0.231046
0.229381
0.228053
0.227717
0.228878
0.232138
0.235181
0.237077
0.23827
0.238781
0.238933
0.23931
0.23978
0.240634
0.242253
0.244283
0.246485
0.248756
0.251044
0.25335
0.255654
0.257934
0.26024
0.262378
0.264412
0.238839
0.237495
0.236017
0.234433
0.232767
0.231074
0.229486
0.228515
0.228977
0.232298
0.234116
0.242472
0.247029
0.27761
0.407543
0.428853
0.451574
0.476095
0.501227
0.525798
0.548791
0.569048
0.586048
0.599857
0.610748
0.618667
0.623436
0.624994
0.623124
0.619403
0.238839
0.237495
0.236017
0.234434
0.232775
0.2311
0.229606
0.229064
0.230412
0.237668
0.246255
0.277537
0.340378
1.50215
2.71163
2.31557
2.06369
1.89023
1.77405
1.69526
1.63743
1.59167
1.55108
1.50589
1.45222
1.39241
1.32953
1.26579
1.20351
1.14333
0.238839
0.237495
0.236017
0.234434
0.232778
0.231113
0.229689
0.229361
0.231644
0.242751
0.266069
0.780408
4.49901
4.35079
2.80036
2.34226
2.02228
1.77004
1.57696
1.42962
1.31237
1.21518
1.13269
1.06163
0.999719
0.945366
0.897528
0.855136
0.818317
0.784065
0.238839
0.237495
0.236017
0.234435
0.232779
0.231115
0.229693
0.22937
0.23167
0.242791
0.267973
6.3337
3.12391
2.51418
2.12539
1.83658
1.62316
1.46411
1.34166
1.24514
1.16826
1.1067
1.05706
1.01669
0.983557
0.95584
0.93309
0.912171
0.238839
0.237495
0.236015
0.234434
0.232776
0.231103
0.229615
0.229084
0.230466
0.237779
0.254867
0.606225
5.74236
4.64481
1.99933
1.68556
1.49031
1.34778
1.24269
1.1657
1.10823
1.06407
1.03142
1.00849
0.993954
0.986274
0.982377
0.981567
0.982955
0.98688
0.238838
0.237495
0.236014
0.234433
0.232768
0.231077
0.229495
0.228545
0.229042
0.232454
0.237512
0.2602
0.3077
0.432418
0.343042
0.337791
0.33403
0.330571
0.328394
0.327856
0.328787
0.331055
0.33457
0.339304
0.345318
0.352312
0.359936
0.368233
0.377188
0.387113
0.238838
0.237495
0.236017
0.234429
0.232759
0.231049
0.229391
0.228084
0.227782
0.229036
0.232544
0.236346
0.239896
0.241377
0.2414
0.240435
0.239114
0.237642
0.236151
0.234704
0.233244
0.231742
0.230187
0.228624
0.227095
0.225626
0.224271
0.223123
0.222228
0.221878
0.238839
0.237495
0.236015
0.234426
0.232755
0.231032
0.229316
0.227775
0.226789
0.226832
0.228039
0.228952
0.229964
0.229979
0.22924
0.227567
0.2254
0.223
0.220544
0.218097
0.215668
0.213269
0.210904
0.208572
0.206277
0.204022
0.201798
0.199618
0.197486
0.195414
0.238839
0.237494
0.236013
0.234425
0.232753
0.23102
0.229268
0.227596
0.226196
0.225443
0.225353
0.225316
0.22503
0.224126
0.222733
0.22105
0.219116
0.217098
0.215071
0.213052
0.211035
0.209017
0.207006
0.205005
0.203007
0.201013
0.199017
0.19702
0.195027
0.193046
0.238839
0.237493
0.236012
0.234425
0.232751
0.231013
0.229242
0.227499
0.225884
0.22458
0.223689
0.222839
0.221707
0.220213
0.218544
0.216803
0.214966
0.213082
0.211187
0.209286
0.207377
0.205466
0.203555
0.201657
0.199769
0.197891
0.196024
0.194167
0.192322
0.190499
0.238838
0.237492
0.236012
0.234425
0.232751
0.23101
0.229228
0.227449
0.225731
0.224164
0.222793
0.221412
0.219845
0.218085
0.216294
0.214523
0.212718
0.210881
0.209038
0.207197
0.20536
0.203531
0.201709
0.199898
0.198096
0.196305
0.194525
0.192755
0.190999
0.189262
0.238838
0.237492
0.236012
0.234425
0.23275
0.231008
0.229222
0.227425
0.225659
0.223979
0.222396
0.220782
0.219006
0.217119
0.215266
0.213467
0.211664
0.209835
0.208007
0.206182
0.204364
0.202554
0.200755
0.198967
0.197191
0.195431
0.193684
0.191949
0.190229
0.18853
0.238838
0.237492
0.236012
0.234424
0.23275
0.231007
0.22922
0.227415
0.22563
0.223907
0.222247
0.220549
0.218694
0.21676
0.214882
0.213071
0.211266
0.20944
0.207616
0.205798
0.203985
0.202181
0.200388
0.198607
0.196837
0.195084
0.193349
0.191629
0.189923
0.18824
0.239048
0.238076
0.237092
0.236093
0.235081
0.234058
0.233038
0.23204
0.231113
0.230292
0.229557
0.228759
0.227749
0.226603
0.225463
0.224344
0.223202
0.222012
0.220811
0.2196
0.218381
0.217158
0.215933
0.214706
0.213475
0.212246
0.211023
0.209803
0.208587
0.207385
0.239048
0.238077
0.237092
0.236094
0.235082
0.234061
0.233046
0.232061
0.231168
0.230415
0.229793
0.229121
0.228212
0.227135
0.226028
0.224924
0.223788
0.222596
0.22139
0.220174
0.21895
0.217721
0.21649
0.215253
0.214014
0.212778
0.211546
0.210316
0.209089
0.207875
0.239049
0.238077
0.237093
0.236095
0.235084
0.234068
0.233065
0.232115
0.231303
0.230724
0.230398
0.230037
0.229378
0.228463
0.227437
0.226363
0.225223
0.22403
0.222812
0.221581
0.220343
0.2191
0.217851
0.216598
0.21534
0.214087
0.212834
0.211582
0.210332
0.209094
0.239049
0.238077
0.237093
0.236096
0.235088
0.23408
0.233099
0.232215
0.231568
0.231356
0.231469
0.2316
0.231428
0.230863
0.230029
0.229013
0.22787
0.226664
0.225428
0.224179
0.222923
0.221662
0.220387
0.219107
0.217818
0.216527
0.215231
0.213933
0.212632
0.211341
0.23905
0.238078
0.237094
0.236098
0.235094
0.234098
0.233156
0.232389
0.232057
0.232289
0.233095
0.233908
0.234427
0.234485
0.23416
0.233332
0.232213
0.230992
0.229741
0.228491
0.227251
0.22601
0.224752
0.223476
0.222178
0.220856
0.219512
0.21815
0.216773
0.215391
0.23905
0.238079
0.237096
0.236101
0.235102
0.234125
0.233245
0.232681
0.23277
0.233734
0.235872
0.237686
0.239192
0.239986
0.240197
0.239915
0.239169
0.238144
0.23699
0.235801
0.234603
0.233414
0.232206
0.230968
0.229684
0.228346
0.226953
0.225506
0.224019
0.222502
0.23905
0.23808
0.237098
0.236105
0.235113
0.234161
0.233374
0.233143
0.233766
0.235985
0.240509
0.245168
0.248247
0.250581
0.252014
0.252558
0.253074
0.253607
0.25416
0.254747
0.255295
0.255694
0.255775
0.25551
0.254898
0.253964
0.252757
0.251333
0.249766
0.248069
0.23905
0.238082
0.237101
0.23611
0.235126
0.234205
0.233535
0.233642
0.235054
0.239546
0.242871
0.255199
0.262781
0.271043
0.317497
0.330688
0.340146
0.347673
0.353878
0.359358
0.364125
0.36797
0.370918
0.372967
0.374183
0.374588
0.37417
0.372929
0.370853
0.368222
0.23905
0.238082
0.237103
0.236115
0.235141
0.234245
0.23371
0.234116
0.236479
0.244939
0.254517
0.296206
0.378986
0.519226
2.16082
1.81667
1.57767
1.40183
1.2659
1.15743
1.06436
0.980209
0.900284
0.824724
0.75663
0.695764
0.641498
0.593248
0.550628
0.512848
0.23905
0.238082
0.237104
0.236119
0.23515
0.234272
0.233828
0.234445
0.237788
0.250364
0.272076
0.779654
12.2111
4.99072
2.35786
1.81982
1.49825
1.27696
1.11215
0.986424
0.886606
0.805274
0.737727
0.680884
0.632631
0.5914
0.556009
0.525492
0.499257
0.476386
0.239051
0.238082
0.237104
0.236117
0.235148
0.234272
0.233831
0.234451
0.237809
0.250421
0.273778
5.39226
2.31273
1.73579
1.39699
1.1732
1.01296
0.894297
0.80292
0.731658
0.67465
0.628463
0.59069
0.559581
0.533829
0.5124
0.494653
0.479729
0.23905
0.238081
0.2371
0.236113
0.235139
0.234247
0.233718
0.234136
0.236533
0.245077
0.259878
0.68167
8.01066
5.73669
1.00682
0.859377
0.755628
0.679549
0.62222
0.578827
0.54543
0.519737
0.499861
0.484512
0.473103
0.464711
0.458663
0.454479
0.451857
0.450473
0.239049
0.238081
0.237097
0.236111
0.235127
0.234209
0.233547
0.233668
0.235116
0.239719
0.246348
0.277971
0.304233
0.322024
0.304243
0.306396
0.307232
0.306692
0.305045
0.302858
0.300365
0.297775
0.295258
0.292868
0.290779
0.289072
0.287848
0.287152
0.287099
0.287765
0.239049
0.23808
0.237098
0.236106
0.235114
0.234165
0.233386
0.233184
0.233838
0.236157
0.240952
0.246454
0.250555
0.253659
0.255356
0.255535
0.254969
0.253815
0.252479
0.251122
0.249781
0.248453
0.247124
0.245806
0.244505
0.243199
0.241899
0.240601
0.239341
0.238086
0.23905
0.238079
0.237096
0.236101
0.235104
0.23413
0.233257
0.232715
0.23284
0.233871
0.236192
0.238419
0.240413
0.241606
0.242065
0.241947
0.241271
0.240102
0.238718
0.237232
0.235692
0.234129
0.232556
0.230987
0.229417
0.227844
0.226259
0.224679
0.22311
0.221564
0.23905
0.238078
0.237094
0.236099
0.235096
0.234103
0.233167
0.232417
0.232131
0.232418
0.233332
0.23435
0.235135
0.235422
0.235351
0.234805
0.233776
0.232534
0.231218
0.229877
0.228523
0.227162
0.225792
0.224422
0.223052
0.221681
0.220304
0.218913
0.217521
0.216132
0.239049
0.238077
0.237094
0.236097
0.23509
0.234084
0.233109
0.232238
0.231625
0.231484
0.231668
0.23192
0.231894
0.231519
0.23084
0.229946
0.228864
0.227681
0.22645
0.225192
0.223914
0.222623
0.221315
0.220004
0.218688
0.217373
0.21606
0.214743
0.213427
0.212121
0.239049
0.238077
0.237093
0.236096
0.235086
0.234072
0.233074
0.232135
0.231349
0.230819
0.230575
0.230318
0.229736
0.228871
0.227907
0.226903
0.225816
0.224662
0.223469
0.222255
0.221026
0.219787
0.218542
0.217293
0.216039
0.214788
0.213536
0.212283
0.211033
0.209789
0.239048
0.238077
0.237093
0.236095
0.235084
0.234065
0.233055
0.23208
0.231207
0.230492
0.229926
0.22931
0.228429
0.227359
0.226283
0.22523
0.224141
0.223001
0.221833
0.220646
0.219446
0.218237
0.217022
0.215801
0.214576
0.213353
0.212129
0.210906
0.209683
0.20847
0.239048
0.238077
0.237092
0.236094
0.235082
0.234061
0.233045
0.232057
0.231148
0.230359
0.229668
0.22891
0.227907
0.226754
0.225632
0.224558
0.223464
0.222329
0.221168
0.21999
0.218799
0.217598
0.216392
0.215182
0.213967
0.212751
0.211538
0.210326
0.209114
0.207914
0.239057
0.238109
0.237168
0.236231
0.235302
0.234384
0.233486
0.232633
0.231862
0.2312
0.230621
0.229997
0.229207
0.228314
0.227433
0.226572
0.225694
0.224783
0.223859
0.222927
0.221989
0.221047
0.220102
0.219156
0.218208
0.217257
0.216307
0.215359
0.214411
0.213474
0.239057
0.23811
0.237168
0.236232
0.235303
0.234387
0.233495
0.232655
0.231915
0.231315
0.230841
0.230333
0.229641
0.228814
0.227974
0.227137
0.226271
0.225366
0.224447
0.223519
0.222584
0.221644
0.220702
0.219756
0.218807
0.217857
0.216905
0.215954
0.215003
0.214061
0.239057
0.23811
0.237168
0.236233
0.235306
0.234394
0.233515
0.232707
0.232042
0.2316
0.231391
0.231168
0.230715
0.230044
0.229298
0.228509
0.227664
0.226772
0.225861
0.224939
0.224008
0.223073
0.222132
0.221188
0.220236
0.219283
0.218328
0.217372
0.216412
0.21546
0.239057
0.23811
0.237169
0.236234
0.23531
0.234406
0.23355
0.232801
0.232286
0.232166
0.232381
0.232615
0.232618
0.232265
0.231717
0.231013
0.230196
0.229322
0.228429
0.227524
0.226613
0.225693
0.224765
0.223824
0.222872
0.221912
0.220948
0.219976
0.218998
0.218021
0.239058
0.23811
0.237169
0.236236
0.235316
0.234424
0.233603
0.23296
0.232721
0.23302
0.233807
0.234609
0.235189
0.235383
0.235298
0.234819
0.234099
0.233295
0.232458
0.231619
0.230789
0.229961
0.229119
0.228256
0.227368
0.226452
0.225513
0.224547
0.223558
0.222551
0.239058
0.23811
0.23717
0.236238
0.235324
0.234449
0.233685
0.23322
0.233381
0.234269
0.236079
0.237854
0.23921
0.240075
0.240498
0.240556
0.24031
0.239862
0.239279
0.238628
0.237941
0.23722
0.236454
0.235642
0.234775
0.233858
0.23289
0.231872
0.230811
0.229714
0.239058
0.238112
0.237171
0.236241
0.235333
0.234482
0.233798
0.233613
0.234219
0.236094
0.239761
0.243557
0.246269
0.248313
0.249516
0.249968
0.250253
0.250528
0.250803
0.2511
0.251384
0.25159
0.251645
0.251518
0.251167
0.250585
0.249773
0.248745
0.247546
0.246157
0.239059
0.238113
0.237173
0.236244
0.235343
0.234518
0.233936
0.234084
0.23529
0.238931
0.24203
0.252318
0.259055
0.263343
0.276226
0.27858
0.281098
0.283748
0.28622
0.28823
0.289702
0.290535
0.290689
0.290141
0.288951
0.287163
0.284864
0.282132
0.279098
0.275728
0.23906
0.238114
0.237176
0.236249
0.235357
0.234551
0.234077
0.234472
0.23642
0.242818
0.250207
0.27788
0.306933
0.342404
0.518092
0.473324
0.447296
0.428014
0.408426
0.388908
0.369498
0.350911
0.33474
0.321172
0.309593
0.299584
0.29082
0.283061
0.276155
0.269906
0.23906
0.238116
0.237178
0.236255
0.235368
0.234579
0.234181
0.234741
0.237384
0.246857
0.260818
0.679893
9.28228
3.49081
1.1772
0.952275
0.803055
0.696555
0.616667
0.556094
0.508057
0.469267
0.437808
0.411808
0.390082
0.371743
0.356122
0.34269
0.331068
0.32086
0.239059
0.238115
0.237178
0.236253
0.235363
0.234579
0.234182
0.234746
0.237399
0.24691
0.262355
0.763397
6.86765
8.32045
1.38908
1.09185
0.903453
0.772001
0.675499
0.601892
0.544047
0.497803
0.460108
0.428871
0.402927
0.381117
0.362686
0.347037
0.333742
0.322331
0.239058
0.238112
0.237174
0.236247
0.235353
0.234553
0.234083
0.234488
0.236462
0.242939
0.252835
0.521669
7.40758
1.49645
0.368044
0.3563
0.344147
0.332695
0.322473
0.313439
0.305443
0.298376
0.292112
0.286516
0.281564
0.277146
0.273235
0.269767
0.266722
0.264026
0.239057
0.238112
0.237172
0.236245
0.235345
0.234522
0.233946
0.234107
0.235341
0.239074
0.244474
0.264174
0.27852
0.286753
0.278484
0.278994
0.278544
0.277586
0.276259
0.274743
0.273237
0.271764
0.270334
0.268898
0.267458
0.266003
0.264551
0.263079
0.261642
0.26017
0.239058
0.238112
0.237171
0.236242
0.235335
0.234485
0.233809
0.233647
0.234281
0.236228
0.240101
0.244423
0.247742
0.250215
0.251683
0.252216
0.252216
0.251738
0.250901
0.249877
0.248759
0.247592
0.246408
0.245224
0.24405
0.242881
0.241727
0.240583
0.239458
0.238356
0.239058
0.23811
0.23717
0.236239
0.235325
0.234453
0.233695
0.233249
0.23344
0.234383
0.236327
0.238375
0.240026
0.241154
0.241755
0.241897
0.241617
0.240958
0.240098
0.23913
0.2381
0.237033
0.235938
0.23483
0.233706
0.232575
0.231433
0.230286
0.229139
0.228002
0.239058
0.23811
0.23717
0.236237
0.235317
0.234428
0.233613
0.232986
0.232785
0.233129
0.233999
0.23495
0.235711
0.236071
0.236151
0.235833
0.235132
0.234269
0.23333
0.232358
0.231366
0.230363
0.22935
0.228331
0.227307
0.226281
0.225251
0.224214
0.223174
0.22214
0.239057
0.23811
0.237169
0.236235
0.235312
0.23441
0.233559
0.232823
0.232337
0.232276
0.232549
0.232875
0.232984
0.232788
0.232363
0.231746
0.23096
0.230083
0.22916
0.228208
0.227234
0.226245
0.225247
0.224241
0.22323
0.222216
0.221205
0.220191
0.219177
0.218173
0.239057
0.23811
0.237168
0.236233
0.235308
0.234398
0.233524
0.232726
0.232084
0.231685
0.231545
0.231405
0.231015
0.230391
0.229698
0.228959
0.228142
0.227265
0.226354
0.22542
0.224471
0.223511
0.222545
0.221575
0.220599
0.219623
0.218646
0.217669
0.216694
0.215725
0.239057
0.23811
0.237168
0.236233
0.235305
0.234391
0.233503
0.232673
0.231952
0.231385
0.23096
0.2305
0.229834
0.229017
0.228204
0.227404
0.22657
0.22569
0.224788
0.223867
0.222933
0.22199
0.221041
0.220088
0.21913
0.218171
0.217209
0.21625
0.21529
0.214338
0.239057
0.23811
0.237168
0.236232
0.235304
0.234388
0.233493
0.232649
0.231895
0.231262
0.230724
0.230134
0.229353
0.228458
0.227593
0.226765
0.22592
0.225039
0.224136
0.223218
0.222287
0.221347
0.220402
0.219454
0.218503
0.217548
0.216593
0.215639
0.214685
0.213741
0.239057
0.238111
0.237172
0.236242
0.235321
0.234414
0.233527
0.232686
0.231913
0.231226
0.230603
0.229949
0.229184
0.228355
0.227541
0.226746
0.22594
0.225115
0.224283
0.223448
0.22261
0.221772
0.220935
0.2201
0.219266
0.218433
0.217602
0.216772
0.215944
0.215128
0.239057
0.238111
0.237173
0.236242
0.235322
0.234417
0.233534
0.232705
0.231956
0.231317
0.230773
0.23021
0.229521
0.228746
0.227968
0.227195
0.226403
0.225587
0.224763
0.223934
0.223103
0.222271
0.22144
0.22061
0.21978
0.21895
0.21812
0.217292
0.216466
0.21565
0.239058
0.238112
0.237173
0.236243
0.235324
0.234423
0.233551
0.232747
0.232058
0.231539
0.231195
0.230856
0.230351
0.229705
0.229011
0.228286
0.227522
0.226723
0.225915
0.225099
0.22428
0.223458
0.222636
0.221813
0.220989
0.220164
0.219339
0.218513
0.217688
0.216871
0.239058
0.238112
0.237173
0.236244
0.235327
0.234433
0.233581
0.232823
0.232249
0.231974
0.232041
0.232127
0.231959
0.231555
0.231012
0.230366
0.229638
0.228859
0.228068
0.227269
0.226466
0.22566
0.224851
0.224038
0.223221
0.222398
0.221573
0.220746
0.219916
0.219092
0.239058
0.238112
0.237174
0.236246
0.235332
0.234448
0.233626
0.232948
0.232585
0.23272
0.233216
0.233764
0.234087
0.234177
0.233958
0.233484
0.232836
0.232118
0.231373
0.230621
0.229873
0.229127
0.228379
0.227624
0.226858
0.22608
0.225289
0.224486
0.223671
0.222848
0.239058
0.238112
0.237175
0.236248
0.235339
0.234468
0.23369
0.233147
0.233142
0.233707
0.234939
0.236234
0.237175
0.237779
0.238073
0.238082
0.237745
0.237275
0.23672
0.236121
0.235504
0.23487
0.234214
0.233532
0.232818
0.232074
0.231299
0.230495
0.229663
0.228805
0.239058
0.238112
0.237175
0.23625
0.235347
0.234494
0.233777
0.233443
0.233796
0.23508
0.237629
0.239928
0.241842
0.243274
0.244144
0.244622
0.244858
0.244982
0.244956
0.24482
0.244626
0.244382
0.244077
0.243696
0.243225
0.242656
0.241988
0.241217
0.240355
0.239396
0.239058
0.238112
0.237177
0.236253
0.235355
0.234523
0.233884
0.233829
0.234629
0.237006
0.241909
0.247383
0.251018
0.253775
0.255518
0.256419
0.257109
0.25775
0.258465
0.259199
0.259895
0.26047
0.260872
0.261045
0.260969
0.260622
0.259967
0.258996
0.257776
0.256259
0.239059
0.238114
0.23718
0.236257
0.235365
0.234549
0.233984
0.234165
0.235454
0.239429
0.243741
0.257935
0.267566
0.27261
0.280286
0.282311
0.283376
0.283708
0.283465
0.282413
0.28086
0.279008
0.27688
0.274557
0.272107
0.269571
0.266974
0.264334
0.261683
0.258987
0.23906
0.238115
0.237182
0.236262
0.235374
0.234569
0.234054
0.234356
0.23608
0.241653
0.249293
0.283491
0.318692
0.329264
0.341566
0.341786
0.336939
0.330461
0.323382
0.316299
0.309435
0.302881
0.296569
0.290575
0.284922
0.279579
0.274536
0.269778
0.265291
0.261051
0.239059
0.238114
0.23718
0.23626
0.235372
0.23457
0.234055
0.23436
0.236092
0.241687
0.249737
0.290059
0.449287
0.497105
0.353651
0.349974
0.342717
0.334298
0.325889
0.317898
0.310369
0.303358
0.296761
0.290611
0.284855
0.279486
0.274459
0.269749
0.265337
0.261197
0.239058
0.238113
0.237177
0.236255
0.235363
0.23455
0.233989
0.234177
0.235483
0.239517
0.24555
0.268548
0.285268
0.291059
0.281635
0.282736
0.282716
0.281895
0.280392
0.278398
0.276169
0.273851
0.271512
0.269176
0.266852
0.264556
0.262288
0.26006
0.257878
0.255722
0.239058
0.238113
0.237176
0.236253
0.235356
0.234526
0.233892
0.233854
0.234672
0.237115
0.242193
0.248214
0.252328
0.255374
0.257147
0.257823
0.258043
0.258013
0.257697
0.25711
0.256358
0.255498
0.254562
0.253561
0.252506
0.251414
0.250295
0.249158
0.248018
0.246877
0.239058
0.238112
0.237176
0.236251
0.235348
0.234497
0.233786
0.233468
0.233845
0.235172
0.237865
0.240464
0.242691
0.244357
0.245372
0.24592
0.246121
0.246098
0.245755
0.245132
0.244332
0.243424
0.24245
0.241433
0.240391
0.239336
0.238281
0.237229
0.236187
0.235165
0.239058
0.238112
0.237175
0.236248
0.23534
0.234472
0.233698
0.233171
0.233202
0.233806
0.235122
0.236581
0.237706
0.238494
0.238919
0.239
0.2387
0.238144
0.237443
0.236659
0.235826
0.234964
0.234083
0.233188
0.232278
0.231362
0.230438
0.229509
0.228579
0.227654
0.239058
0.238112
0.237174
0.236246
0.235334
0.234451
0.233634
0.232969
0.232635
0.232807
0.233364
0.234016
0.234456
0.234664
0.23464
0.234268
0.233648
0.232904
0.232101
0.231261
0.230399
0.229524
0.228641
0.227755
0.226865
0.225976
0.22509
0.224205
0.223322
0.222451
0.239058
0.238112
0.237174
0.236245
0.235329
0.234436
0.233588
0.232841
0.23229
0.23206
0.232177
0.232331
0.232281
0.231976
0.231519
0.230931
0.230226
0.229441
0.228626
0.227785
0.226928
0.22606
0.225188
0.224314
0.223438
0.222561
0.22169
0.220818
0.219951
0.219095
0.239058
0.238112
0.237173
0.236244
0.235326
0.234426
0.233558
0.232763
0.232093
0.231608
0.231315
0.231038
0.230585
0.229982
0.22933
0.228641
0.227897
0.227103
0.226288
0.225457
0.224614
0.223764
0.222912
0.222058
0.221205
0.220351
0.219499
0.218648
0.217803
0.216967
0.239058
0.238112
0.237173
0.236243
0.235323
0.23442
0.233542
0.23272
0.231988
0.231376
0.23087
0.230347
0.229684
0.228925
0.228169
0.227421
0.226649
0.225844
0.225025
0.224194
0.223355
0.222512
0.221666
0.22082
0.219975
0.21913
0.218284
0.217442
0.216603
0.215775
0.239058
0.238111
0.237173
0.236242
0.235322
0.234417
0.233534
0.2327
0.231941
0.231279
0.230688
0.230065
0.229314
0.228491
0.227693
0.22692
0.226135
0.225325
0.224502
0.223669
0.222829
0.221985
0.22114
0.220295
0.21945
0.218607
0.217764
0.216923
0.216085
0.21526
0.239058
0.238111
0.237173
0.236242
0.235322
0.234415
0.233525
0.232675
0.231877
0.231143
0.230452
0.229741
0.22896
0.228141
0.227335
0.226544
0.225749
0.224941
0.224131
0.22332
0.22251
0.221701
0.220896
0.220094
0.219295
0.2185
0.217709
0.21692
0.216135
0.215363
0.239058
0.238112
0.237173
0.236243
0.235323
0.234417
0.233531
0.232689
0.231911
0.231211
0.230574
0.229926
0.229201
0.228422
0.227643
0.22687
0.226086
0.225285
0.224483
0.223679
0.222875
0.222073
0.221273
0.220477
0.219683
0.218893
0.218105
0.21732
0.216537
0.215767
0.239058
0.238112
0.237173
0.236243
0.235325
0.234422
0.233544
0.232722
0.231987
0.23137
0.23087
0.230379
0.229786
0.229103
0.228388
0.227654
0.226893
0.226109
0.225322
0.224532
0.223741
0.22295
0.222162
0.221375
0.220591
0.219809
0.219028
0.218248
0.217471
0.216704
0.239058
0.238112
0.237174
0.236244
0.235327
0.23443
0.233566
0.232779
0.232125
0.231675
0.231452
0.231269
0.230929
0.230427
0.229827
0.229159
0.228435
0.227673
0.226907
0.226135
0.225363
0.22459
0.223818
0.223044
0.222271
0.221497
0.220722
0.219947
0.219172
0.218406
0.239058
0.238112
0.237174
0.236246
0.235331
0.234442
0.233602
0.232871
0.232361
0.232214
0.232417
0.23266
0.232749
0.232558
0.232155
0.231594
0.23092
0.230189
0.229444
0.228694
0.227947
0.227202
0.22646
0.225717
0.224972
0.224224
0.22347
0.222713
0.221952
0.221193
0.239058
0.238112
0.237175
0.236247
0.235336
0.234457
0.233649
0.233009
0.232742
0.232992
0.233675
0.234437
0.234955
0.235228
0.235251
0.234933
0.234401
0.2338
0.233151
0.232487
0.231821
0.231152
0.230478
0.229796
0.229102
0.228394
0.227672
0.226934
0.226185
0.225426
0.239058
0.238112
0.237175
0.236249
0.235342
0.234477
0.233711
0.23321
0.233303
0.233997
0.235477
0.237008
0.238153
0.238963
0.239424
0.239579
0.239456
0.239121
0.238671
0.238171
0.237644
0.237099
0.236533
0.235942
0.235321
0.234664
0.233973
0.233244
0.232482
0.231687
0.239058
0.238114
0.237177
0.236251
0.235349
0.234497
0.233784
0.233464
0.23385
0.235222
0.238011
0.240508
0.242562
0.244008
0.244934
0.245421
0.245586
0.245566
0.245393
0.24517
0.24492
0.244657
0.244361
0.244006
0.243575
0.243056
0.242439
0.241721
0.240912
0.240003
0.239059
0.238115
0.237181
0.236255
0.235354
0.234516
0.233854
0.233719
0.234423
0.236611
0.241091
0.24599
0.249279
0.251579
0.253391
0.254566
0.255256
0.255562
0.255674
0.255578
0.255214
0.254668
0.253999
0.253219
0.252307
0.251279
0.250156
0.24895
0.247675
0.246308
0.23906
0.238115
0.237183
0.23626
0.23536
0.234528
0.233899
0.233904
0.234827
0.237815
0.244307
0.251446
0.256623
0.25993
0.262589
0.264369
0.265371
0.265704
0.26559
0.264846
0.263677
0.262251
0.260641
0.258915