/*--------------------------------*- C++ -*----------------------------------*\
| =========                 |                                                 |
| \\      /  F ield         | OpenFOAM: The Open Source CFD Toolbox           |
|  \\    /   O peration     | Version:  2512                                  |
|   \\  /    A nd           | Website:  www.openfoam.com                      |
|    \\/     M anipulation  |                                                 |
\*---------------------------------------------------------------------------*/
FoamFile
{
    version     2.0;
    format      ascii;
    arch        "LSB;label=32;scalar=64";
    class       volScalarField;
    location    "160";
    object      nut;
}
// * * * * * * * * * * * * * * * * * * * * * * * * * * * * * * * * * * * * * //

dimensions      [0 2 -1 0 0 0 0];

internalField   nonuniform List<scalar> 
84826
(
0.0144196
0.0141771
0.0139458
0.0137245
0.0135126
0.0133096
0.0131154
0.0129293
0.0127522
0.0125826
0.0124216
0.0122646
0.0121191
0.0119841
0.0118483
0.0117151
0.011583
0.0114541
0.0113289
0.0112071
0.0110886
0.0109734
0.0108615
0.0107526
0.0106467
0.0105436
0.0104432
0.0103455
0.0102503
0.0101577
0.0144196
0.0141772
0.0139458
0.0137247
0.013513
0.0133103
0.0131164
0.012931
0.0127544
0.0125854
0.0124252
0.0122688
0.0121241
0.0119897
0.0118541
0.0117209
0.0115885
0.0114592
0.0113336
0.0112116
0.0110928
0.0109774
0.0108652
0.0107561
0.01065
0.0105466
0.0104461
0.0103481
0.0102526
0.0101597
0.0144195
0.0141772
0.013946
0.0137249
0.0135134
0.013311
0.0131172
0.0129325
0.0127573
0.0125896
0.012431
0.012276
0.012133
0.0120002
0.0118652
0.0117319
0.0115985
0.0114685
0.0113428
0.0112204
0.0111011
0.0109853
0.0108727
0.0107633
0.0106568
0.0105532
0.0104523
0.010354
0.0102582
0.0101649
0.0144195
0.0141772
0.013946
0.0137251
0.0135138
0.0133116
0.0131184
0.0129346
0.0127607
0.012595
0.0124393
0.0122881
0.012148
0.0120165
0.0118826
0.0117493
0.011615
0.011484
0.0113575
0.0112344
0.0111146
0.0109984
0.0108853
0.0107755
0.0106687
0.0105647
0.0104634
0.0103648
0.0102687
0.0101751
0.0144196
0.0141773
0.0139461
0.0137252
0.0135141
0.0133122
0.0131194
0.0129367
0.0127647
0.0126018
0.0124474
0.0123222
0.0121875
0.0120359
0.0119039
0.0117707
0.0116351
0.0115028
0.0113756
0.0112525
0.0111337
0.0110198
0.0109107
0.0108062
0.0107059
0.0106097
0.0105172
0.0104279
0.0103415
0.0102572
0.0144195
0.0141773
0.0139461
0.0137253
0.0135144
0.0133127
0.0131204
0.012939
0.0127693
0.0126063
0.0124551
0.0123159
0.0121855
0.0120583
0.0119301
0.0117971
0.0116605
0.0115344
0.0114252
0.0113373
0.011275
0.0112379
0.0112214
0.0112206
0.0112308
0.0112475
0.0112659
0.0112821
0.0112939
0.0112959
0.0144195
0.0141772
0.0139461
0.0137254
0.0135145
0.0133132
0.0131216
0.0129414
0.0127718
0.0126115
0.0107429
0.0103776
0.01089
0.0121903
0.0120985
0.011987
0.0120074
0.0122287
0.0126003
0.0130816
0.0136177
0.014154
0.0129979
0.0121307
0.0115555
0.0111848
0.0109467
0.0108025
0.0106861
0.0106418
0.0144196
0.0141772
0.013946
0.0137254
0.0135146
0.0133136
0.0131227
0.0129433
0.0127728
0.0117843
0.00467627
0.00351524
0.00418686
0.004424
0.0107486
0.0096855
0.0103264
0.0113257
0.0119901
0.0124409
0.0128172
0.0130585
0.0131692
0.0131978
0.0131736
0.0131175
0.0130303
0.0129377
0.0127606
0.0127488
0.0144195
0.0141772
0.013946
0.0137254
0.0135147
0.0133139
0.0131236
0.0129455
0.0127757
0.00805836
0.0030445
0.00216836
0.00262177
0.00919843
0.0178024
0.0175938
0.0175685
0.0172671
0.0164676
0.015649
0.0150606
0.0146757
0.0144421
0.0143564
0.0143876
0.0145044
0.014668
0.0148694
0.0149679
0.0155075
0.0144195
0.014177
0.0139458
0.013725
0.0135143
0.0133135
0.0131236
0.0129448
0.0127747
0.00606632
0.0020497
0.000832099
0.00224655
0.00308641
0.0115578
0.0127967
0.0150958
0.0172534
0.0186384
0.019397
0.0198947
0.0202278
0.0204072
0.0204903
0.0205379
0.0205835
0.0206104
0.0206492
0.0204849
0.0210225
0.0144195
0.0141769
0.0139456
0.0137248
0.0135139
0.0133132
0.0131236
0.0129448
0.0127748
0.00604134
0.00193173
0.0012817
0.00252037
0.0133916
0.0150722
0.018088
0.0210609
0.023021
0.0241149
0.0248156
0.0252303
0.0253528
0.025253
0.0250554
0.024842
0.0246184
0.024412
0.0240646
0.0242192
0.0144195
0.014177
0.0139459
0.0137252
0.0135144
0.0133137
0.0131238
0.0129456
0.012776
0.00795911
0.00246484
0.000915298
0.00143723
0.00246858
0.0172815
0.0179731
0.0193196
0.0204059
0.0206637
0.0204722
0.0202045
0.0198832
0.0194572
0.0189579
0.0184503
0.0179825
0.0175475
0.0171607
0.0167421
0.0164576
0.0144195
0.0141771
0.0139461
0.0137256
0.0135147
0.0133137
0.013123
0.0129437
0.0127734
0.0115354
0.00385083
0.00289189
0.00288079
0.00644612
0.00878655
0.00747645
0.00794105
0.00883844
0.00966224
0.0104269
0.0111934
0.0118824
0.0124156
0.0128138
0.0130943
0.0132881
0.013407
0.0134656
0.013408
0.0132489
0.0144195
0.0141772
0.0139461
0.0137255
0.0135146
0.0133133
0.0131219
0.0129419
0.0127724
0.0126125
0.0102892
0.00929626
0.0089475
0.0100642
0.0122298
0.0120797
0.0119305
0.0117907
0.0116858
0.0116242
0.0115985
0.011597
0.0116129
0.0116439
0.0116905
0.0117516
0.0118263
0.0119137
0.0120142
0.0121279
0.0144195
0.0141773
0.0139461
0.0137253
0.0135144
0.0133128
0.0131207
0.0129395
0.0127702
0.0126074
0.0124572
0.0123201
0.0122002
0.0120767
0.0119506
0.0118204
0.0116862
0.0115545
0.0114272
0.0113029
0.0111822
0.0110659
0.010954
0.0108464
0.0107432
0.0106448
0.0105512
0.0104632
0.0103817
0.0103072
0.0144196
0.0141773
0.0139461
0.0137253
0.0135142
0.0133124
0.0131197
0.0129372
0.0127655
0.0126032
0.0124491
0.0123245
0.0121909
0.0120429
0.0119144
0.0117845
0.0116523
0.0115226
0.0113971
0.0112746
0.011155
0.0110388
0.0109256
0.0108157
0.0107084
0.010604
0.0105021
0.0104028
0.010306
0.0102116
0.0144195
0.0141772
0.013946
0.0137252
0.0135138
0.0133118
0.0131186
0.012935
0.0127615
0.0125962
0.0124414
0.0122916
0.0121535
0.0120244
0.0118929
0.0117619
0.0116299
0.011501
0.011376
0.0112541
0.011135
0.0110192
0.0109063
0.0107965
0.0106894
0.010585
0.0104832
0.0103839
0.0102871
0.0101928
0.0144195
0.0141772
0.013946
0.013725
0.0135135
0.0133111
0.0131174
0.0129329
0.012758
0.0125907
0.0124328
0.0122789
0.0121376
0.0120067
0.0118737
0.0117424
0.0116113
0.0114835
0.0113595
0.0112385
0.0111202
0.011005
0.0108927
0.0107831
0.0106764
0.0105724
0.0104711
0.0103723
0.010276
0.0101821
0.0144196
0.0141772
0.0139459
0.0137248
0.013513
0.0133104
0.0131166
0.0129313
0.012755
0.0125864
0.0124268
0.0122714
0.0121282
0.0119955
0.0118617
0.0117303
0.0116
0.0114728
0.011349
0.0112285
0.0111108
0.0109961
0.0108843
0.0107753
0.010669
0.0105651
0.0104639
0.0103652
0.0102691
0.0101755
0.0144196
0.0141771
0.0139458
0.0137246
0.0135126
0.0133097
0.0131155
0.0129295
0.0127527
0.0125835
0.0124231
0.0122671
0.012123
0.0119897
0.0118556
0.0117243
0.0115943
0.0114674
0.011344
0.0112238
0.0111064
0.0109921
0.0108806
0.0107719
0.0106658
0.0105623
0.0104612
0.0103626
0.0102664
0.0101728
0.12312
0.114076
0.106854
0.1009
0.0958589
0.091499
0.08767
0.0842459
0.0810876
0.0782068
0.0755961
0.0732651
0.0711921
0.0694132
0.067897
0.0665697
0.0653201
0.0641474
0.0630329
0.0619716
0.0609605
0.0600001
0.0590886
0.0582242
0.0574054
0.056633
0.055905
0.0552176
0.0545689
0.0539608
0.12312
0.114072
0.106848
0.100888
0.0958397
0.0914661
0.0876133
0.084165
0.080962
0.0780234
0.0753477
0.0729498
0.070829
0.0690222
0.0675063
0.0661876
0.0649343
0.0637527
0.0626228
0.0615438
0.0605128
0.05953
0.0585953
0.057708
0.0568683
0.0560769
0.055331
0.054628
0.0539654
0.0533462
0.123123
0.114066
0.106836
0.100868
0.0958028
0.0913994
0.0874901
0.0839909
0.0806907
0.0776261
0.0748067
0.0722659
0.0700379
0.068172
0.0666572
0.0653562
0.0640871
0.0628818
0.0617154
0.0605976
0.0595266
0.0585037
0.05753
0.0566089
0.0557399
0.0549238
0.0541581
0.0534407
0.0527687
0.0521466
0.123127
0.114061
0.106821
0.10084
0.0957512
0.0913074
0.0873285
0.0837329
0.0802773
0.0770043
0.0738958
0.0711185
0.0686605
0.0666907
0.0651796
0.0639028
0.0626086
0.0613479
0.0601136
0.0589198
0.0577649
0.0566556
0.0555981
0.0545994
0.05366
0.0527797
0.0519574
0.0511922
0.0504805
0.0498287
0.123125
0.114061
0.106804
0.100805
0.0956877
0.0911912
0.0871224
0.0833863
0.0797057
0.0760663
0.0595642
0.0579063
0.0652669
0.0644797
0.0629629
0.0616746
0.0602723
0.0588673
0.0574932
0.056163
0.0548686
0.0536227
0.0524391
0.0513254
0.0502825
0.0493092
0.0484043
0.0475683
0.0467981
0.0461035
0.123122
0.11406
0.106794
0.100767
0.0956164
0.0910598
0.0868814
0.0829564
0.0789402
0.0567341
0.0382958
0.0420342
0.0418863
0.0506195
0.0586255
0.0572716
0.0556634
0.0539759
0.0522858
0.0506042
0.0489489
0.0473641
0.0458812
0.0445152
0.0432644
0.0421246
0.0410902
0.0401567
0.0393143
0.0385756
0.12312
0.114052
0.106784
0.100739
0.0955454
0.0909258
0.0866244
0.0824419
0.0675483
0.0370686
0.0234401
0.0227574
0.0273902
0.0289369
0.0372532
0.044014
0.0401971
0.038661
0.0385273
0.0379668
0.0366572
0.0349298
0.0324689
0.0297332
0.0271876
0.0250493
0.0233484
0.0219874
0.0210581
0.0198632
0.123119
0.114045
0.106769
0.100716
0.0954903
0.0908112
0.0863829
0.0818924
0.0473235
0.0231518
0.0165812
0.0124962
0.0136746
0.0113039
0.0151954
0.0147463
0.0152007
0.0158546
0.0162057
0.0164797
0.0168275
0.0172801
0.0176619
0.01796
0.0182479
0.0185525
0.0188592
0.019178
0.0194002
0.0198282
0.123117
0.114038
0.106756
0.10069
0.0954481
0.0907196
0.0861917
0.0787217
0.0354335
0.0141027
0.0079525
0.00475147
0.00672512
0.0151377
0.0241039
0.0258595
0.0274782
0.028891
0.0302173
0.0314233
0.032495
0.033431
0.0342121
0.0345162
0.034476
0.0344096
0.0342512
0.034099
0.0335908
0.0340015
0.12311
0.114025
0.106735
0.100661
0.095405
0.0906482
0.0860665
0.0695849
0.0276928
0.0103704
0.00389286
0.0015143
0.0033012
0.00411383
0.0205272
0.0221423
0.0230628
0.0235365
0.0238552
0.0241761
0.0244953
0.0247945
0.0250722
0.0253315
0.0255756
0.0258086
0.0260367
0.0262613
0.0265007
0.0267135
0.123104
0.114015
0.106723
0.100648
0.0953916
0.0906546
0.0860737
0.0694237
0.0275835
0.010348
0.00363147
0.0163116
0.0233916
0.0241291
0.0246645
0.0249832
0.0252819
0.0256284
0.026019
0.0264465
0.026914
0.0274238
0.0279724
0.0285531
0.0291582
0.0297754
0.0304116
0.0310185
0.123104
0.11403
0.106737
0.10068
0.0954356
0.0907255
0.0861945
0.0782034
0.0350692
0.0139835
0.00499663
0.00190882
0.00476639
0.0101119
0.0178045
0.019003
0.0201977
0.0212437
0.0222075
0.0231508
0.0240848
0.0250208
0.0259742
0.0269627
0.0279997
0.0285934
0.0290666
0.0296515
0.0302173
0.0310406
0.123102
0.114044
0.106762
0.100718
0.0954897
0.0908082
0.0863739
0.0818682
0.0466784
0.0226965
0.0110387
0.00842255
0.00692924
0.00845334
0.0161189
0.0172128
0.0174993
0.0177772
0.0180759
0.0184006
0.018747
0.0191161
0.0195092
0.0199257
0.0203551
0.0207803
0.0207942
0.0205669
0.0204485
0.0198478
0.123109
0.11405
0.106783
0.100737
0.0955425
0.0909207
0.0866144
0.08242
0.0664049
0.0359649
0.0223668
0.0202648
0.0205439
0.0231657
0.0318858
0.0443162
0.043768
0.0432322
0.0427248
0.0422097
0.0416614
0.0410733
0.040447
0.0397818
0.0390618
0.0383035
0.0375087
0.0366962
0.0358691
0.0350616
0.12312
0.114058
0.106793
0.100765
0.0956133
0.0910553
0.086873
0.0829376
0.0788933
0.055048
0.0364104
0.0368325
0.0343292
0.0412804
0.0572224
0.0571396
0.0563893
0.0555583
0.0547102
0.0538575
0.0529905
0.0521207
0.0512602
0.0504153
0.0495833
0.0487665
0.0479564
0.0471592
0.0463685
0.0455841
0.123124
0.114059
0.106802
0.100802
0.0956846
0.0911871
0.0871155
0.0833725
0.0796773
0.0760004
0.0566542
0.0527352
0.0563029
0.0641885
0.0629829
0.0622269
0.0614551
0.0607027
0.059976
0.0592667
0.058545
0.0578103
0.0570724
0.0563354
0.0555964
0.0548539
0.0541049
0.0533529
0.0525988
0.0518441
0.123126
0.114059
0.106819
0.100837
0.0957482
0.0913039
0.0873236
0.0837245
0.0802621
0.0769757
0.0738396
0.0710284
0.0685444
0.0667014
0.0654541
0.064544
0.0636813
0.0628398
0.062029
0.061229
0.0604271
0.0596259
0.0588347
0.0580591
0.0572974
0.0565492
0.0558127
0.0550899
0.054381
0.0536887
0.123122
0.114064
0.106834
0.100865
0.0957999
0.0913965
0.087487
0.0839869
0.0806855
0.0776194
0.0748017
0.072272
0.07008
0.068325
0.0670077
0.0659533
0.0649713
0.0640212
0.0631226
0.0622653
0.0614432
0.0606526
0.0598895
0.0591497
0.0584232
0.057713
0.0570167
0.0563348
0.055668
0.0550172
0.123118
0.11407
0.106845
0.100885
0.0958368
0.0914634
0.0876112
0.084164
0.0809634
0.0780305
0.0753677
0.0729961
0.0709271
0.0692225
0.0678675
0.0667328
0.0656899
0.0646732
0.0637219
0.0628198
0.0619591
0.0611359
0.0603467
0.0595885
0.0588579
0.058154
0.0574681
0.0567993
0.0561485
0.0555161
0.123119
0.114074
0.106852
0.100897
0.0958561
0.0914968
0.0876688
0.0842469
0.0810933
0.0782221
0.0756301
0.0733332
0.071319
0.0696398
0.0682709
0.0671017
0.0660261
0.0649807
0.0640056
0.0630828
0.0622038
0.0613644
0.0605614
0.0597916
0.0590509
0.0583399
0.0576576
0.0569986
0.0563581
0.055736
0.134469
0.133881
0.133114
0.1322
0.131161
0.13002
0.128813
0.127452
0.126048
0.124608
0.123148
0.121683
0.120183
0.118754
0.11743
0.116197
0.115023
0.113756
0.112542
0.11135
0.110175
0.109021
0.10789
0.106787
0.105709
0.104663
0.103659
0.10269
0.101754
0.10086
0.134469
0.133881
0.133114
0.132198
0.131157
0.130011
0.128794
0.127418
0.126003
0.124541
0.123056
0.12158
0.12002
0.118564
0.117225
0.115976
0.114788
0.1135
0.11226
0.111039
0.109834
0.108646
0.107482
0.106343
0.105232
0.10416
0.103128
0.102133
0.101174
0.100258
0.134469
0.133881
0.133112
0.132195
0.13115
0.129993
0.128746
0.127368
0.125921
0.124412
0.122873
0.121344
0.119699
0.118184
0.116814
0.115535
0.114285
0.112968
0.111668
0.110382
0.109108
0.107852
0.106618
0.105413
0.104242
0.103119
0.102039
0.101002
0.100007
0.0990633
0.13447
0.13388
0.13311
0.13219
0.13114
0.12997
0.128692
0.127291
0.125793
0.124221
0.098206
0.0961323
0.115439
0.117511
0.116084
0.114756
0.113402
0.111982
0.110557
0.109139
0.107729
0.106334
0.104955
0.103617
0.102322
0.101078
0.0998863
0.0987467
0.0976595
0.0966365
0.13447
0.13388
0.133109
0.132185
0.131127
0.129944
0.128634
0.127194
0.125635
0.0932202
0.0663949
0.0650404
0.0753666
0.09433
0.11419
0.112801
0.111276
0.10964
0.107976
0.106313
0.104652
0.102999
0.101377
0.0998155
0.0983157
0.0968809
0.0955135
0.0942172
0.092992
0.0918527
0.13447
0.13388
0.133108
0.132179
0.131114
0.129914
0.128573
0.127087
0.105223
0.0630093
0.042185
0.0464571
0.0492694
0.0592174
0.0787416
0.106791
0.104913
0.102775
0.100535
0.0982533
0.0959564
0.0936544
0.0914226
0.089311
0.0873247
0.0854699
0.0837477
0.0821592
0.0806945
0.0793735
0.13447
0.13388
0.133107
0.132176
0.1311
0.129885
0.128514
0.126985
0.0745374
0.0407137
0.0254348
0.0256195
0.0320152
0.0343311
0.0473255
0.0713489
0.077221
0.0727637
0.0686943
0.0648894
0.0624512
0.0612831
0.0617077
0.0606889
0.0588609
0.0572463
0.0558157
0.0545439
0.0534059
0.0524118
0.13447
0.13388
0.133106
0.132174
0.131092
0.129864
0.128465
0.10564
0.0520745
0.0250536
0.0178784
0.0132382
0.0231539
0.0176721
0.0204631
0.0252511
0.0240632
0.0232948
0.0228211
0.0225438
0.0224107
0.0223922
0.0224576
0.022585
0.0227566
0.0229584
0.0231794
0.023411
0.0236451
0.0238881
0.134469
0.133879
0.133105
0.13217
0.131087
0.12985
0.128439
0.0857365
0.0383661
0.0150767
0.00774095
0.00406203
0.0120102
0.011591
0.0220236
0.0223792
0.0227125
0.0230315
0.0233184
0.0235582
0.023704
0.0237168
0.0235893
0.0233523
0.0230848
0.0228063
0.0225267
0.0222541
0.022003
0.0217611
0.134469
0.133878
0.133103
0.132167
0.131082
0.129839
0.128429
0.0755188
0.0298812
0.0106712
0.00361026
0.00143074
0.0172792
0.0139059
0.0160924
0.0170346
0.0176216
0.0179819
0.0182322
0.0184166
0.0185597
0.0186756
0.0187756
0.0188693
0.0189651
0.0190694
0.0191878
0.019323
0.0194834
0.019657
0.134469
0.133878
0.133103
0.132166
0.131079
0.129836
0.128427
0.0753536
0.029785
0.0106458
0.00336558
0.0224533
0.0174039
0.0178461
0.018054
0.0181597
0.0182431
0.0183373
0.0184522
0.0185955
0.0187712
0.0189821
0.0192286
0.0195103
0.0198267
0.0201754
0.0205599
0.0209653
0.134469
0.133878
0.133102
0.132169
0.131084
0.129845
0.128435
0.0851811
0.0380017
0.0149449
0.00477782
0.00180858
0.0171144
0.0191114
0.0144186
0.0149685
0.0154275
0.0158541
0.0162854
0.0167355
0.0172061
0.0177052
0.018229
0.0187818
0.0193608
0.0199644
0.020588
0.021228
0.021884
0.022545
0.134469
0.133879
0.133104
0.132173
0.131091
0.129862
0.128462
0.104536
0.0514122
0.0245787
0.0112256
0.00780085
0.0107907
0.0097699
0.016352
0.0225985
0.0293329
0.0316777
0.0310494
0.0303869
0.0297505
0.0291447
0.0286019
0.0281138
0.0276743
0.0272859
0.0269452
0.0266547
0.0264101
0.0262354
0.134469
0.13388
0.133108
0.132175
0.1311
0.129884
0.128514
0.126986
0.0733112
0.0395803
0.0244095
0.0229758
0.0259304
0.0283693
0.0377982
0.0600119
0.0854486
0.0841205
0.0827955
0.0814647
0.0801193
0.0787564
0.077404
0.0760384
0.0746396
0.0732055
0.0717254
0.0702151
0.0686732
0.0670924
0.13447
0.13388
0.133108
0.132179
0.131114
0.129914
0.128574
0.127088
0.102645
0.0612605
0.0401656
0.0416157
0.0421907
0.0502524
0.0659537
0.0893613
0.106126
0.105143
0.104065
0.102912
0.10168
0.100398
0.0990831
0.0977681
0.0964438
0.0951095
0.0937506
0.0923933
0.0910386
0.0896925
0.13447
0.13388
0.133108
0.132185
0.131127
0.129944
0.128635
0.127196
0.12564
0.0899871
0.0633375
0.0596649
0.066262
0.0799959
0.0962204
0.113583
0.112605
0.111581
0.110556
0.109534
0.108514
0.107489
0.106451
0.105409
0.10436
0.10331
0.102245
0.101159
0.100064
0.0989584
0.13447
0.13388
0.13311
0.13219
0.13114
0.129971
0.128694
0.127294
0.125801
0.124236
0.0934315
0.0887701
0.102745
0.117702
0.116533
0.115505
0.114473
0.11342
0.112381
0.111354
0.110335
0.109325
0.108298
0.107271
0.106244
0.105221
0.104206
0.103189
0.102177
0.101171
0.134469
0.13388
0.133112
0.132195
0.13115
0.129993
0.128748
0.127372
0.125931
0.124431
0.122911
0.121412
0.119816
0.118404
0.117208
0.116138
0.115094
0.114028
0.112982
0.111952
0.110935
0.109933
0.108943
0.107966
0.106998
0.106037
0.105084
0.104138
0.103204
0.102277
0.134469
0.133881
0.133113
0.132198
0.131157
0.130012
0.128796
0.127424
0.126014
0.124563
0.123099
0.121653
0.120139
0.118766
0.117562
0.116467
0.115401
0.114332
0.113278
0.112242
0.111222
0.110217
0.109228
0.108253
0.107294
0.106348
0.105416
0.104492
0.103581
0.102684
0.134469
0.133881
0.133114
0.132199
0.131161
0.130021
0.128815
0.127458
0.126061
0.124634
0.123194
0.121762
0.120307
0.118955
0.117752
0.116644
0.11557
0.114494
0.113434
0.112393
0.111368
0.110359
0.109367
0.108391
0.107428
0.106484
0.105556
0.104642
0.10374
0.102856
0.134739
0.134632
0.134511
0.134371
0.13421
0.134027
0.133821
0.133587
0.133341
0.133085
0.132814
0.132501
0.132127
0.131721
0.131318
0.130917
0.130513
0.130066
0.129598
0.129118
0.128622
0.128114
0.127594
0.127066
0.126533
0.125995
0.125456
0.124918
0.124383
0.123857
0.134739
0.134632
0.134511
0.13437
0.134209
0.134027
0.133821
0.133587
0.133346
0.133098
0.132841
0.132555
0.132177
0.131776
0.131375
0.130972
0.130563
0.130106
0.129627
0.129133
0.128622
0.128097
0.127559
0.127012
0.12646
0.125902
0.125343
0.124787
0.124234
0.123691
0.134739
0.134632
0.134511
0.13437
0.134209
0.134026
0.133823
0.13359
0.133358
0.133132
0.132914
0.132682
0.132303
0.131913
0.131515
0.131108
0.13069
0.130198
0.129693
0.129167
0.128622
0.128059
0.127483
0.126896
0.126303
0.125705
0.125109
0.124517
0.12393
0.123355
0.134739
0.134632
0.134511
0.13437
0.134209
0.134026
0.133824
0.1336
0.133389
0.133212
0.113198
0.111156
0.132456
0.132084
0.131691
0.131268
0.130803
0.130263
0.129697
0.129103
0.128485
0.127845
0.127187
0.126518
0.125838
0.125156
0.124479
0.123805
0.123139
0.12249
0.134739
0.134632
0.134511
0.13437
0.134209
0.134027
0.133827
0.133621
0.133453
0.106717
0.0779787
0.0758584
0.0889328
0.110155
0.131132
0.130702
0.130168
0.129535
0.128849
0.128122
0.127361
0.126571
0.125759
0.124931
0.124095
0.123259
0.122429
0.121607
0.120798
0.120014
0.134739
0.134632
0.134511
0.134371
0.13421
0.134029
0.133836
0.133661
0.119577
0.0736866
0.0510558
0.0525521
0.0582442
0.0708708
0.0897415
0.116859
0.126704
0.125824
0.12481
0.123691
0.122486
0.121217
0.119907
0.118588
0.117273
0.115985
0.114731
0.113519
0.112355
0.111258
0.134739
0.134632
0.134511
0.134371
0.134211
0.134033
0.133854
0.133729
0.0862029
0.0493048
0.0314902
0.0321167
0.0378923
0.0439365
0.058407
0.0867631
0.107694
0.110095
0.107352
0.104583
0.101868
0.0992556
0.0968208
0.0945896
0.0925709
0.0907513
0.0891119
0.0876317
0.0862812
0.085063
0.134739
0.134633
0.134511
0.134371
0.134212
0.134039
0.133877
0.120561
0.0624559
0.0310924
0.0208487
0.0152336
0.0258044
0.027069
0.0267147
0.0370877
0.0440746
0.0473478
0.0488732
0.0471867
0.0448777
0.0430353
0.0416033
0.0405175
0.0397147
0.039149
0.0387765
0.0385601
0.0384609
0.0384741
0.134739
0.134633
0.134511
0.134372
0.134214
0.134044
0.133904
0.0989456
0.0468489
0.0199949
0.00972062
0.00503638
0.017494
0.0146377
0.0164198
0.016821
0.017273
0.0177479
0.0182003
0.0186329
0.019064
0.0195125
0.0200072
0.0205378
0.0210892
0.0216444
0.0222051
0.0227666
0.0233266
0.0238549
0.134739
0.134633
0.134511
0.134373
0.134216
0.134049
0.133924
0.0882309
0.038093
0.0144618
0.00491902
0.00253094
0.0161875
0.014269
0.015719
0.0158404
0.0159488
0.0160372
0.0161452
0.0162762
0.0164367
0.0166284
0.0168477
0.0170948
0.0173653
0.0176544
0.0179583
0.0182732
0.0185987
0.0189217
0.134739
0.134633
0.134512
0.134372
0.134215
0.134049
0.133925
0.088044
0.0379933
0.0144171
0.00447756
0.00172818
0.0178457
0.0263582
0.0179829
0.017802
0.0176742
0.0175486
0.0174569
0.0174056
0.0173957
0.0174284
0.0175039
0.0176219
0.0177762
0.0179658
0.0181879
0.0184396
0.0187211
0.0190193
0.134739
0.134633
0.134511
0.134371
0.134213
0.134044
0.133905
0.0983375
0.0464475
0.0198043
0.0066296
0.00221206
0.0149385
0.00925101
0.0168547
0.0181148
0.0190889
0.0199533
0.0207444
0.0214671
0.0221269
0.0227359
0.0233002
0.0238257
0.0243055
0.0247582
0.0251803
0.0255788
0.0259582
0.0263072
0.134739
0.134633
0.134511
0.134371
0.134212
0.134039
0.133879
0.119304
0.0617356
0.0305183
0.0139355
0.00943062
0.0142276
0.014282
0.0241622
0.0366529
0.0513641
0.0634877
0.0651348
0.0644031
0.063563
0.0626014
0.0615096
0.0603041
0.0589804
0.0575746
0.0561197
0.0546575
0.053202
0.0518123
0.134739
0.134633
0.134511
0.134371
0.134211
0.134034
0.133856
0.133736
0.0847625
0.0481398
0.0302762
0.0293226
0.0328313
0.0381234
0.0478639
0.0691413
0.0987003
0.112577
0.111578
0.110563
0.10955
0.108535
0.107511
0.106447
0.10533
0.104142
0.102889
0.101558
0.100156
0.0986873
0.134739
0.134632
0.134511
0.134371
0.13421
0.13403
0.133839
0.133667
0.116819
0.0717175
0.0488936
0.0482343
0.0518387
0.061458
0.0758144
0.0993842
0.126949
0.126529
0.126035
0.125484
0.124879
0.124213
0.123495
0.122732
0.121927
0.121088
0.120211
0.119301
0.118361
0.117401
0.134739
0.134632
0.134511
0.134371
0.13421
0.134028
0.133829
0.133627
0.133468
0.103207
0.0746177
0.0703141
0.0796487
0.0950918
0.11411
0.130976
0.130613
0.130186
0.129731
0.129256
0.128762
0.128251
0.127721
0.127172
0.126602
0.126009
0.125393
0.124753
0.124092
0.123415
0.134739
0.134632
0.134511
0.134371
0.13421
0.134027
0.133826
0.133605
0.133402
0.133238
0.107916
0.10335
0.120018
0.132215
0.131927
0.131601
0.131225
0.130812
0.130377
0.129926
0.129459
0.128979
0.128486
0.127979
0.127455
0.126914
0.126358
0.12579
0.125208
0.124618
0.134739
0.134632
0.134511
0.134371
0.13421
0.134027
0.133826
0.133595
0.133369
0.133155
0.132953
0.132745
0.132392
0.132043
0.131708
0.131367
0.130998
0.130604
0.130188
0.129757
0.129313
0.128857
0.12839
0.127914
0.127425
0.126928
0.126419
0.1259
0.125372
0.124839
0.134739
0.134632
0.134511
0.134371
0.13421
0.134028
0.133823
0.133592
0.133356
0.133117
0.132875
0.132607
0.132247
0.131873
0.131517
0.131168
0.1308
0.130412
0.130004
0.129582
0.129148
0.128702
0.128246
0.127781
0.127307
0.126825
0.126334
0.125835
0.125328
0.124817
0.134739
0.134632
0.134511
0.134371
0.13421
0.134028
0.133823
0.133591
0.133351
0.133104
0.132845
0.132547
0.132189
0.131805
0.131442
0.131088
0.130719
0.130332
0.129926
0.129507
0.129076
0.128633
0.12818
0.127719
0.127249
0.12677
0.126285
0.125793
0.125293
0.124791
0.134745
0.134656
0.134566
0.134476
0.134385
0.134295
0.134205
0.134121
0.134048
0.133989
0.133939
0.133873
0.133772
0.133649
0.133527
0.133404
0.133274
0.133134
0.13298
0.132818
0.132648
0.13247
0.132285
0.132092
0.131893
0.131689
0.131479
0.131263
0.131044
0.130825
0.134745
0.134656
0.134566
0.134476
0.134385
0.134295
0.134206
0.134125
0.134058
0.134011
0.13398
0.133936
0.133852
0.133742
0.133628
0.133511
0.133383
0.133244
0.133089
0.132927
0.132755
0.132574
0.132385
0.132189
0.131985
0.131776
0.13156
0.131338
0.131113
0.130888
0.134745
0.134656
0.134566
0.134476
0.134386
0.134297
0.13421
0.134135
0.134082
0.134064
0.134081
0.13409
0.134048
0.133967
0.133871
0.133764
0.133639
0.133499
0.133341
0.133174
0.132995
0.132807
0.132609
0.132402
0.132187
0.131965
0.131736
0.131501
0.131262
0.131023
0.134745
0.134656
0.134566
0.134477
0.134387
0.134299
0.134218
0.134153
0.134129
0.134169
0.134277
0.133282
0.134385
0.134347
0.134275
0.134173
0.134045
0.133888
0.133715
0.133529
0.13333
0.133119
0.132896
0.132662
0.132418
0.132165
0.131904
0.131637
0.131365
0.131092
0.134745
0.134656
0.134566
0.134477
0.134388
0.134303
0.134228
0.134184
0.13421
0.127204
0.0956703
0.0928986
0.1081
0.130024
0.13436
0.134277
0.134142
0.13396
0.133756
0.133533
0.133292
0.133035
0.132762
0.132475
0.132173
0.131858
0.131533
0.1312
0.130859
0.130516
0.134745
0.134656
0.134567
0.134477
0.13439
0.134308
0.134244
0.134233
0.134341
0.0911522
0.0645975
0.0633995
0.0726012
0.085521
0.103189
0.13205
0.132854
0.132634
0.132354
0.132025
0.13165
0.131234
0.130781
0.130298
0.129787
0.129257
0.128716
0.128166
0.127613
0.127066
0.134745
0.134656
0.134567
0.134478
0.134392
0.134314
0.134266
0.134306
0.105545
0.0624559
0.0417358
0.0472938
0.049127
0.0565883
0.0697026
0.086679
0.105333
0.124068
0.1262
0.125353
0.124379
0.12332
0.122212
0.121087
0.119964
0.118859
0.117792
0.116768
0.115788
0.114859
0.134745
0.134656
0.134567
0.134479
0.134394
0.134321
0.134292
0.134398
0.078145
0.0425757
0.0255387
0.0245127
0.0313246
0.0347148
0.0447185
0.0615811
0.0732644
0.079634
0.0827488
0.0834815
0.082881
0.0819854
0.0815009
0.0819946
0.0831642
0.0850173
0.0851617
0.084182
0.0833753
0.0827287
0.134745
0.134656
0.134567
0.134479
0.134396
0.134328
0.134317
0.12027
0.0610878
0.0296292
0.0169031
0.0130112
0.0193808
0.0201882
0.024656
0.0337955
0.043034
0.051245
0.0567033
0.0562183
0.0559395
0.0558085
0.0558313
0.0559888
0.0562894
0.0567104
0.0571111
0.0574473
0.0577282
0.0579279
0.134745
0.134656
0.134568
0.13448
0.134397
0.134332
0.134334
0.108782
0.0513844
0.0231547
0.0101899
0.00716632
0.0121573
0.0119291
0.0190895
0.0291288
0.0298737
0.0305193
0.0311478
0.031725
0.0322417
0.0327082
0.0331482
0.0335442
0.0338791
0.034158
0.0343935
0.0345984
0.0347906
0.0349572
0.134745
0.134656
0.134568
0.13448
0.134397
0.134332
0.134334
0.108593
0.0512413
0.0230958
0.00957511
0.00671325
0.0112148
0.0146776
0.0206747
0.0276656
0.0283982
0.0290465
0.0296623
0.0302267
0.0307593
0.0312608
0.0317476
0.0322016
0.0326245
0.0330113
0.0333658
0.033693
0.0340052
0.034293
0.134745
0.134656
0.134567
0.134479
0.134396
0.134328
0.134318
0.119546
0.0606565
0.0293032
0.0126818
0.00841186
0.0140487
0.0146117
0.0231113
0.032756
0.04483
0.0570054
0.0611996
0.0607063
0.0602969
0.0599839
0.0597839
0.0596907
0.0596767
0.0596304
0.0595486
0.0594287
0.0592788
0.0590877
0.134745
0.134656
0.134567
0.134479
0.134394
0.134322
0.134294
0.134404
0.0773524
0.0417644
0.0248923
0.0228569
0.0279156
0.031101
0.0409776
0.0594775
0.0795909
0.0980003
0.106432
0.105371
0.104329
0.103321
0.102348
0.101404
0.100465
0.0994811
0.0984508
0.0973673
0.0962176
0.0949575
0.134745
0.134656
0.134567
0.134478
0.134392
0.134315
0.134268
0.134312
0.103728
0.061284
0.0401728
0.0435832
0.0441372
0.0500333
0.061375
0.0766299
0.0955904
0.117196
0.126606
0.126271
0.125856
0.125383
0.124867
0.124315
0.12373
0.123113
0.122462
0.121776
0.121055
0.1203
0.134745
0.134656
0.134567
0.134478
0.13439
0.134308
0.134246
0.134239
0.134356
0.0887665
0.0622584
0.0592079
0.0658091
0.0750011
0.0888763
0.113722
0.132758
0.132663
0.132516
0.132332
0.132119
0.13188
0.131619
0.131335
0.131026
0.130689
0.130326
0.129937
0.129522
0.129089
0.134745
0.134656
0.134567
0.134477
0.134388
0.134303
0.134231
0.134189
0.134223
0.123148
0.0917496
0.0868057
0.0979909
0.113723
0.134408
0.134384
0.134292
0.134159
0.134004
0.133832
0.133646
0.133448
0.13324
0.133021
0.132792
0.132553
0.132302
0.132039
0.131764
0.131478
0.134745
0.134656
0.134566
0.134477
0.134387
0.1343
0.13422
0.134158
0.134139
0.13419
0.129221
0.124537
0.134443
0.134438
0.134403
0.13433
0.134223
0.13409
0.133941
0.133781
0.133609
0.133428
0.133239
0.133043
0.132839
0.132626
0.132407
0.132178
0.13194
0.131697
0.134745
0.134656
0.134566
0.134476
0.134386
0.134298
0.134212
0.13414
0.134091
0.134082
0.134112
0.134137
0.13411
0.134045
0.13397
0.133881
0.133773
0.133646
0.133507
0.133358
0.133199
0.133032
0.132858
0.132677
0.132489
0.132294
0.132093
0.131885
0.13167
0.131451
0.134745
0.134656
0.134566
0.134476
0.134386
0.134296
0.134208
0.134129
0.134066
0.134026
0.134005
0.133973
0.133898
0.133797
0.133696
0.133593
0.133479
0.133352
0.133214
0.133067
0.132912
0.132749
0.13258
0.132404
0.132222
0.132033
0.131838
0.131638
0.131431
0.131221
0.134745
0.134656
0.134566
0.134476
0.134386
0.134295
0.134206
0.134124
0.134055
0.134003
0.133962
0.133905
0.133809
0.133693
0.133581
0.133472
0.133355
0.133226
0.133088
0.13294
0.132786
0.132623
0.132455
0.13228
0.132099
0.131912
0.131719
0.13152
0.131316
0.131109
0.134745
0.134656
0.134568
0.13448
0.134394
0.134309
0.134228
0.134155
0.134093
0.134046
0.134007
0.133962
0.133897
0.13382
0.133744
0.133671
0.133594
0.133513
0.133428
0.13334
0.13325
0.133157
0.133062
0.132965
0.132865
0.132764
0.13266
0.132555
0.132447
0.132341
0.134745
0.134657
0.134568
0.134481
0.134394
0.13431
0.13423
0.134158
0.134102
0.134063
0.134039
0.134011
0.13396
0.133894
0.133826
0.133758
0.133685
0.133607
0.133524
0.133439
0.13335
0.133259
0.133165
0.133069
0.13297
0.13287
0.132766
0.13266
0.132552
0.132445
0.134745
0.134657
0.134568
0.134481
0.134394
0.134311
0.134233
0.134167
0.134121
0.134105
0.134116
0.134129
0.134113
0.134072
0.134022
0.133965
0.1339
0.133826
0.133748
0.133666
0.13358