/*--------------------------------*- C++ -*----------------------------------*\
| =========                 |                                                 |
| \\      /  F ield         | OpenFOAM: The Open Source CFD Toolbox           |
|  \\    /   O peration     | Version:  2512                                  |
|   \\  /    A nd           | Website:  www.openfoam.com                      |
|    \\/     M anipulation  |                                                 |
\*---------------------------------------------------------------------------*/
FoamFile
{
    version     2.0;
    format      ascii;
    arch        "LSB;label=32;scalar=64";
    class       volScalarField;
    location    "160";
    object      nut;
}
// * * * * * * * * * * * * * * * * * * * * * * * * * * * * * * * * * * * * * //

dimensions      [0 2 -1 0 0 0 0];

internalField   nonuniform List<scalar> 
90398
(
0.01442
0.0141789
0.0139504
0.0137325
0.0135268
0.0133319
0.0131434
0.012985
0.012829
0.0126902
0.0124151
0.0099318
0.00949111
0.0185665
0.0370068
0.067403
0.106046
0.139438
0.164614
0.183147
0.197012
0.207697
0.216224
0.223305
0.229445
0.235052
0.240406
0.245825
0.251386
0.258253
0.01442
0.014179
0.0139507
0.013733
0.0135274
0.0133329
0.0131457
0.0129869
0.0128314
0.0126934
0.0122051
0.00983812
0.0110215
0.0227926
0.0448332
0.0763549
0.111567
0.141606
0.164697
0.182054
0.195251
0.205542
0.213827
0.220759
0.226819
0.232382
0.237731
0.243156
0.24877
0.255596
0.0144202
0.0141794
0.0139514
0.0137339
0.0135291
0.0133356
0.0131512
0.0129891
0.0128332
0.0126946
0.0117254
0.00958827
0.0131675
0.0274728
0.0524801
0.0844185
0.116363
0.142688
0.163207
0.178983
0.191225
0.200935
0.208861
0.215586
0.221544
0.227079
0.232465
0.237966
0.24368
0.250524
0.0144203
0.0141798
0.0139518
0.0137354
0.0135316
0.0133391
0.0131541
0.0129876
0.0128349
0.0126957
0.010986
0.00919739
0.0158054
0.032343
0.0596912
0.0910697
0.119076
0.141849
0.159841
0.173953
0.18512
0.194143
0.201642
0.208134
0.213995
0.219544
0.225028
0.230688
0.236579
0.243487
0.0144203
0.0141801
0.0139522
0.013737
0.0135345
0.0133444
0.0131593
0.0129906
0.0128383
0.0126993
0.00996943
0.00870006
0.0178193
0.0374486
0.0659715
0.0944685
0.118909
0.138653
0.154388
0.166902
0.176982
0.185292
0.192372
0.198659
0.20449
0.210143
0.215829
0.221743
0.227897
0.234908
0.0144206
0.0141803
0.0139528
0.0137377
0.0135354
0.0133504
0.013178
0.0129979
0.012842
0.0116584
0.00873433
0.0079612
0.0205268
0.043238
0.0708595
0.095819
0.116635
0.133388
0.146871
0.157777
0.166779
0.17444
0.181205
0.187431
0.193398
0.199332
0.20538
0.211681
0.218179
0.225314
0.014421
0.0141811
0.0139539
0.0137395
0.0135364
0.0133521
0.0131824
0.0130024
0.0128452
0.00935373
0.00711573
0.00704775
0.0245399
0.0515192
0.0766807
0.0972325
0.113568
0.126597
0.137223
0.146242
0.154131
0.161289
0.168014
0.174534
0.181008
0.187554
0.194225
0.201086
0.208015
0.215259
0.0144211
0.0141821
0.013958
0.0137485
0.0135428
0.0133496
0.0131809
0.0130083
0.0125469
0.00451666
0.00303348
0.00336323
0.00416057
0.0140365
0.0950502
0.106638
0.114761
0.121284
0.127137
0.132938
0.139149
0.145858
0.152999
0.160445
0.168053
0.175678
0.183287
0.190839
0.198158
0.205374
0.0144211
0.0141823
0.0139597
0.0137543
0.0135526
0.0133527
0.0131736
0.0129973
0.00640345
0.00305675
0.00427221
0.0160125
0.0185289
0.0260213
0.122856
0.119137
0.115326
0.1129
0.112586
0.115011
0.120269
0.127852
0.136941
0.146684
0.156416
0.16579
0.17461
0.182849
0.19041
0.197145
0.0144212
0.014182
0.013957
0.0137493
0.013552
0.0133527
0.0131658
0.0129882
0.00640386
0.00133957
0.00497227
0.0219132
0.0227216
0.0198505
0.099175
0.0933803
0.0906728
0.0909286
0.0941898
0.100563
0.109665
0.12053
0.132044
0.143275
0.15369
0.163096
0.171513
0.179042
0.185734
0.191487
0.0144211
0.014182
0.0139569
0.013749
0.0135513
0.0133512
0.0131625
0.0129828
0.00639796
0.00115423
0.0275605
0.0219437
0.0179213
0.093783
0.0934624
0.096308
0.101393
0.10822
0.116493
0.125738
0.135234
0.144368
0.152769
0.160598
0.167651
0.173916
0.179457
0.184305
0.188262
0.0144211
0.0141822
0.0139593
0.0137535
0.0135505
0.0133483
0.0131644
0.0129828
0.00638847
0.00348776
0.0019663
0.00307575
0.00187484
0.00270196
0.0950638
0.105008
0.113681
0.121958
0.130026
0.137907
0.145468
0.152485
0.158824
0.16441
0.169371
0.173879
0.177836
0.181234
0.184076
0.186123
0.014421
0.0141819
0.0139575
0.0137471
0.0135396
0.0133437
0.0131693
0.012986
0.0127878
0.006297
0.00575603
0.00341402
0.00282033
0.0113108
0.091416
0.108293
0.121435
0.132351
0.141661
0.149742
0.156798
0.162845
0.167941
0.172099
0.175496
0.178376
0.180671
0.182376
0.183521
0.183871
0.014421
0.0141809
0.0139532
0.0137378
0.0135328
0.013345
0.0131688
0.012975
0.0127961
0.0126116
0.0124654
0.0101127
0.0239258
0.0583946
0.0861007
0.107287
0.123664
0.136657
0.147253
0.156028
0.16332
0.169248
0.173895
0.177325
0.179688
0.181394
0.182399
0.182717
0.182416
0.181273
0.0144206
0.0141801
0.013952
0.0137358
0.0135313
0.0133424
0.0131629
0.0129705
0.0128015
0.0126645
0.0125321
0.0130242
0.0237802
0.0560185
0.0840986
0.106514
0.124237
0.1384
0.14999
0.159544
0.167337
0.173462
0.177963
0.180939
0.182573
0.183313
0.18323
0.182355
0.180795
0.178337
0.0144203
0.0141799
0.0139514
0.013735
0.0135301
0.0133358
0.0131438
0.0129653
0.0128035
0.0126569
0.01254
0.013155
0.0231324
0.053523
0.081948
0.105046
0.123599
0.138661
0.151166
0.161555
0.169977
0.176424
0.180892
0.18351
0.184516
0.184404
0.183384
0.181466
0.178803
0.175199
0.0144203
0.0141796
0.0139511
0.0137333
0.0135269
0.0133301
0.0131385
0.0129632
0.0128024
0.0126596
0.0125468
0.0131016
0.0221762
0.0504893
0.0793105
0.102877
0.12206
0.137913
0.151313
0.162571
0.171674
0.1785
0.182979
0.185286
0.185729
0.184879
0.183045
0.180234
0.17663
0.172056
0.0144202
0.0141792
0.0139507
0.0137318
0.0135242
0.013326
0.0131348
0.012964
0.0127997
0.0126573
0.0125439
0.0129911
0.020958
0.0472418
0.0761644
0.0999862
0.119669
0.136263
0.150571
0.162743
0.172576
0.179815
0.184353
0.186395
0.186363
0.184928
0.182419
0.178879
0.174515
0.169165
0.0144201
0.014179
0.0139501
0.0137308
0.0135222
0.0133227
0.0131284
0.0129607
0.0127969
0.0126542
0.0125373
0.0128505
0.0195616
0.0439052
0.0727092
0.0965905
0.116619
0.13385
0.149043
0.162169
0.172769
0.180444
0.18508
0.186934
0.186533
0.184706
0.181715
0.177643
0.172732
0.166828
0.0144201
0.0141788
0.0139497
0.01373
0.0135209
0.0133206
0.0131243
0.0129563
0.0127919
0.0126478
0.0125299
0.0127163
0.0181694
0.040894
0.0695685
0.0933008
0.113491
0.131255
0.147209
0.161136
0.172411
0.180461
0.185194
0.186952
0.186301
0.184357
0.18115
0.176813
0.171629
0.16543
0.123184
0.114252
0.10717
0.101395
0.0965937
0.0925618
0.0891395
0.0861895
0.0836378
0.0750145
0.068317
0.0744235
0.199466
0.593832
1.01117
1.34988
1.76896
1.88722
1.91233
1.91709
1.91887
1.92211
1.92818
1.93777
1.95197
1.97024
1.99424
2.02334
2.05732
2.09122
0.123185
0.114253
0.107172
0.101398
0.096593
0.0925586
0.0891343
0.0861811
0.0836318
0.0729095
0.0662866
0.0816264
0.290322
0.745915
1.18687
1.52564
1.76908
1.85947
1.88284
1.88961
1.89329
1.89796
1.90512
1.91611
1.93101
1.95077
1.97611
2.00658
2.04179
2.07639
0.123186
0.114254
0.107177
0.101404
0.0965918
0.0925549
0.0891249
0.0861675
0.0836682
0.0683068
0.0619839
0.091198
0.385495
0.880347
1.29166
1.58554
1.75784
1.81252
1.83116
1.83896
1.84432
1.85053
1.85946
1.87195
1.88857
1.91088
1.93874
1.97171
2.00912
2.04515
0.123187
0.114256
0.107182
0.10141
0.0965912
0.0925487
0.0891102
0.0861387
0.0778438
0.0610454
0.0552553
0.0999071
0.476656
0.991213
1.374
1.62107
1.71088
1.7453
1.76003
1.76804
1.77468
1.78256
1.794
1.80865
1.82887
1.85483
1.88653
1.92331
1.96384
2.00188
0.123189
0.114259
0.107185
0.101415
0.0966237
0.0925464
0.0890147
0.0859604
0.0689537
0.0510055
0.0463181
0.103633
0.565181
1.07884
1.41621
1.57096
1.62676
1.65131
1.66413
1.67319
1.68223
1.69386
1.70895
1.72888
1.75468
1.78634
1.82362
1.86545
1.90992
1.95022
0.123189
0.11426
0.107188
0.10142
0.0966393
0.0925514
0.0889399
0.0855186
0.0568927
0.0391737
0.0364396
0.0994609
0.650827
1.12807
1.37391
1.45728
1.49188
1.51213
1.52742
1.54213
1.55904
1.57921
1.60341
1.6334
1.66881
1.70942
1.75447
1.80257
1.85123
1.8935
0.123198
0.114259
0.107193
0.10143
0.0966298
0.0925324
0.0890679
0.0777833
0.0435239
0.0268739
0.0238703
0.0744125
0.648757
1.10425
1.20822
1.24112
1.26389
1.28884
1.31757
1.35049
1.38763
1.42847
1.47373
1.52279
1.57476
1.62883
1.68388
1.7387
1.79094
1.83395
0.123208
0.114272
0.107184
0.101416
0.0964636
0.0923976
0.0889504
0.0653108
0.0303097
0.0183676
0.0123765
0.0153983
0.275899
0.722292
0.916551
0.904363
0.917061
0.952986
1.00675
1.07479
1.15229
1.23558
1.32017
1.40227
1.47945
1.55075
1.61518
1.67444
1.72829
1.76998
0.12321
0.114285
0.107202
0.101397
0.0965208
0.0921731
0.0885285
0.0575485
0.0266
0.00916222
0.00808863
0.0113824
0.125219
0.446918
0.493515
0.510369
0.5359
0.584482
0.661929
0.768784
0.898935
1.03936
1.17538
1.29614
1.39693
1.4792
1.54677
1.60361
1.65115
1.68819
0.12321
0.114285
0.107224
0.10144
0.0966376
0.0921581
0.0882738
0.0541281
0.0199317
0.00520693
0.00696423
0.0287242
0.113592
0.119509
0.177984
0.216709
0.272502
0.353079
0.466182
0.615047
0.790487
0.970728
1.13436
1.26786
1.36958
1.44554
1.50322
1.54848
1.58354
1.60637
0.12321
0.114285
0.107224
0.101441
0.0966438
0.0922381
0.0884385
0.0624785
0.0194871
0.00353829
0.00734009
0.185583
0.253613
0.340122
0.455036
0.602088
0.772689
0.946772
1.10307
1.23085
1.32976
1.3989
1.44698
1.48135
1.50672
1.52397
1.52966
0.12321
0.114286
0.107204
0.101402
0.0966238
0.0925026
0.088947
0.0843032
0.0301673
0.00745493
0.00400908
0.0175134
0.0905924
0.161142
0.503789
0.606667
0.723836
0.853389
0.983691
1.10467
1.20776
1.29192
1.35569
1.40405
1.43803
1.45721
1.46756
1.47218
1.47083
1.4589
0.123208
0.114274
0.107188
0.101426
0.0966585
0.0925549
0.08899
0.085202
0.0484078
0.0197962
0.0174765
0.0132778
0.159272
0.658388
1.14916
1.16323
1.20353
1.25472
1.30689
1.35512
1.3945
1.42536
1.44614
1.46002
1.46669
1.4628
1.45311
1.4394
1.42105
1.39264
0.123198
0.114262
0.107199
0.101444
0.0966563
0.0925655
0.0890611
0.0860576
0.0835232
0.0424948
0.0337627
0.0801552
0.486924
1.36922
1.43623
1.43659
1.44234
1.45519
1.47146
1.48717
1.49866
1.50314
1.50141
1.49464
1.48362
1.46304
1.43697
1.40711
1.37353
1.33017
0.123192
0.114265
0.107197
0.101436
0.0966686
0.0925758
0.0891328
0.086216
0.0837695
0.0631352
0.0481381
0.115813
0.492766
1.33824
1.49918
1.52249
1.5314
1.54036
1.54928
1.55557
1.5565
1.54947
1.53431
1.5135
1.4896
1.45635
1.41686
1.37338
1.32647
1.27021
0.123196
0.114267
0.107198
0.101437
0.0966618
0.0926066
0.0892015
0.0863524
0.084001
0.0746056
0.0569384
0.127828
0.463128
1.23785
1.5033
1.54398
1.56256
1.57688
1.58831
1.59425
1.59128
1.57786
1.55383
1.52221
1.48737
1.44385
1.39286
1.338
1.28003
1.21305
0.123196
0.114266
0.107197
0.101435
0.0966366
0.0926301
0.0892569
0.086461
0.0841789
0.0763515
0.0598498
0.125628
0.426002
1.13354
1.49046
1.54225
1.56986
1.5916
1.60873
1.61748
1.61372
1.5957
1.5651
1.52455
1.48051
1.42792
1.36693
1.30223
1.23534
1.15993
0.123196
0.114266
0.107194
0.101433
0.0966437
0.0926502
0.0893007
0.086543
0.0843066
0.0743589
0.058856
0.115479
0.384305
1.03621
1.4711
1.52971
1.56511
1.59471
1.61871
1.63163
1.62827
1.60721
1.57064
1.52332
1.47206
1.41067
1.34129
1.26867
1.1948
1.11316
0.123195
0.114265
0.107191
0.101429
0.0966489
0.0926632
0.089331
0.0865946
0.0843864
0.0724191
0.0570157
0.101825
0.337871
0.942176
1.44902
1.51165
1.55291
1.58937
1.62074
1.6393
1.63737
1.61407
1.57291
1.52044
1.46451
1.3949
1.31871
1.24039
1.16191
1.07596
0.123195
0.114266
0.10719
0.101428
0.096654
0.092675
0.0893538
0.0866322
0.0844438
0.0707044
0.0552936
0.086391
0.282816
0.850913
1.43253
1.49313
1.53755
1.58004
1.61741
1.64031
1.64121
1.61698
1.57337
1.51788
1.45941
1.38384
1.30362
1.22209
1.14169
1.05302
0.134472
0.133898
0.133165
0.13232
0.131407
0.130473
0.129573
0.115619
0.092221
0.0778061
0.0714068
0.12017
0.510776
0.991881
1.40957
2.21552
3.67153
4.90097
4.78473
4.68767
4.6125
4.55793
4.52253
4.50544
4.50542
4.52522
4.55948
4.6082
4.66554
4.71396
0.134472
0.133898
0.133166
0.13232
0.131405
0.13047
0.129569
0.11483
0.0908254
0.0758369
0.0715178
0.172982
0.744451
1.34684
1.86733
2.72281
4.10526
4.78866
4.69235
4.60717
4.53985
4.49116
4.46078
4.44785
4.45391
4.47728
4.51644
4.56964
4.63069
4.68152
0.134473
0.133899
0.133167
0.132321
0.131402
0.130467
0.129567
0.112519
0.0875304
0.0715872
0.0709155
0.232163
0.899482
1.5529
2.28383
3.39396
4.67058
4.61469
4.53518
4.46279
4.40521
4.36471
4.34147
4.3368
4.35191
4.38223
4.42986
4.49065
4.55796
4.61295
0.134474
0.1339
0.133169
0.132322
0.1314
0.130462
0.129563
0.108913
0.0823689
0.0653106
0.0685508
0.28459
0.997342
1.72929
2.71649
4.12401
4.43087
4.37993
4.31474
4.25599
4.21083
4.18225
4.17043
4.17968
4.20612
4.24957
4.30942
4.38105
4.45693
4.51746
0.134474
0.133902
0.13317
0.132323
0.131402
0.130442
0.129545
0.103854
0.074983
0.056555
0.0626986
0.315553
1.0774
1.92767
3.1756
4.07801
4.08814
4.05073
4.0067
3.96977
3.94609
3.93796
3.94887
3.97799
4.02369
4.08651
4.16322
4.2489
4.33512
4.40179
0.134475
0.133904
0.133172
0.132323
0.131402
0.130398
0.129497
0.0968876
0.0650159
0.0448028
0.0534116
0.332272
1.13345
2.14573
3.40218
3.53015
3.55776
3.56004
3.56112
3.56919
3.58805
3.62163
3.67184
3.73426
3.81165
3.90139
3.99989
4.10208
4.19915
4.27136
0.134476
0.133904
0.133175
0.132324
0.1314
0.130426
0.129449
0.0884259
0.0512099
0.034513
0.0370783
0.294927
1.21967
2.35214
2.58047
2.67736
2.75559
2.83689
2.92366
3.01621
3.11667
3.22496
3.33917
3.45779
3.58075
3.70559
3.82931
3.94794
4.05384
4.12918
0.134477
0.133905
0.133174
0.132319
0.13139
0.130402
0.129349
0.0781138
0.0396109
0.0219968
0.0197747
0.0615454
0.8945
1.54847
1.60821
1.65987
1.77699
1.93932
2.13156
2.3411
2.55956
2.77664
2.98342
3.17722
3.35528
3.51708
3.66261
3.7916
3.89993
3.97356
0.134477
0.133907
0.133175
0.132315
0.131377
0.130385
0.129321
0.0719474
0.0362141
0.0147183
0.0120386
0.0236522
0.675461
0.992249
0.749353
0.829452
0.965378
1.16359
1.42581
1.73524
2.07064
2.39937
2.6998
2.95994
3.17817
3.35911
3.50906
3.63307
3.73123
3.79576
0.134478
0.133908
0.133177
0.132322
0.13138
0.130377
0.129333
0.0696644
0.0289533
0.00881444
0.00544516
0.0769394
0.196711
0.179019
0.289828
0.409065
0.569286
0.798852
1.11361
1.49581
1.9052
2.29283
2.62637
2.89593
3.10632
3.26905
3.39566
3.4945
3.56761
3.60979
0.134478
0.133907
0.133176
0.132319
0.131374
0.130368
0.129321
0.0801611
0.0293251
0.00631878
0.00240094
0.0647199
0.297096
0.451751
0.675481
0.986466
1.37624
1.79577
2.19184
2.52411
2.78651
2.98476
3.13
3.23614
3.31441
3.37191
3.40951
3.42303
0.134477
0.133906
0.133172
0.13231
0.131363
0.130345
0.129286
0.109594
0.0403992
0.0136185
0.010404
0.0571176
0.146399
0.234323
0.924346
1.17251
1.48883
1.83438
2.17153
2.4678
2.70823
2.88941
3.02234
3.118
3.18072
3.22047
3.24439
3.25637
3.25558
3.23879
0.134476
0.133904
0.13317
0.132308
0.131368
0.130345
0.129298
0.1283
0.0597831
0.0284899
0.0199811
0.0247527
0.701949
1.62117
2.259
2.41915
2.6046
2.78118
2.93215
3.04866
3.13145
3.18209
3.20831
3.21861
3.21307
3.19674
3.17194
3.14187
3.10492
3.05923
0.134475
0.133903
0.13317
0.132311
0.131367
0.13035
0.129316
0.128346
0.0862101
0.04809
0.0516391
0.263832
1.14669
3.14638
3.33043
3.35103
3.37154
3.3917
3.40516
3.40574
3.39135
3.36288
3.32133
3.27203
3.21814
3.1576
3.09236
3.0265
2.95741
2.88572
0.134474
0.133902
0.133167
0.132309
0.131366
0.130357
0.129347
0.128406
0.108037
0.0627645
0.0806242
0.335592
1.09371
2.96409
3.75063
3.76423
3.73434
3.69465
3.65102
3.59969
3.53631
3.46112
3.3778
3.2878
3.19849
3.10334
3.00579
2.90931
2.81307
2.71908
0.134474
0.133901
0.133165
0.132308
0.131365
0.130372
0.129386
0.128485
0.110045
0.0730034
0.097336
0.354172
1.0319
2.68648
3.85263
3.89942
3.87538
3.8281
3.77017
3.69974
3.61371
3.51133
3.39785
3.27927
3.16128
3.03835
2.91486
2.79299
2.67419
2.56164
0.134474
0.1339
0.133164
0.132307
0.131363
0.130385
0.129419
0.128556
0.105772
0.0747506
0.100727
0.347654
0.958737
2.44247
3.83644
3.9176
3.91443
3.87803
3.82354
3.74936
3.65198
3.53321
3.39749
3.25676
3.1162
2.9697
2.82418
2.68231
2.54525
2.41782
0.134473
0.133899
0.133163
0.132306
0.131367
0.130395
0.129447
0.128612
0.101158
0.0731915
0.0948256
0.319744
0.879402
2.23901
3.77497
3.88434
3.90413
3.88528
3.84155
3.77049
3.66836
3.53861
3.38801
3.22876
3.07062
2.90502
2.74165
2.58379
2.43287
2.29426
0.134473
0.133899
0.133162
0.132306
0.131371
0.130405
0.12947
0.128654
0.0977643
0.0713326
0.0853908
0.278883
0.791896
2.08971
3.69487
3.82891
3.86452
3.86064
3.83337
3.77577
3.67387
3.53697
3.37632
3.20521
3.03218
2.85272
2.67617
2.50691
2.34624
2.19987
0.134473
0.133898
0.133161
0.132306
0.131373
0.13041
0.129483
0.128679
0.0948155
0.0699589
0.0745234
0.226113
0.697357
2.04139
3.6278
3.76412
3.8088
3.82152
3.80896
3.76282
3.67448
3.53558
3.36968
3.19392
3.01097
2.8234
2.63945
2.46392
2.29828
2.14738
0.134739
0.134637
0.13453
0.134424
0.134333
0.13428
0.134297
0.116697
0.0935073
0.0784947
0.0818922
0.270062
0.836873
1.32167
2.08315
3.64358
6.19548
7.44727
7.33694
7.22487
7.12619
7.04811
6.99421
6.96651
6.96585
6.99084
7.04254
7.1112
7.18579
7.23795
0.134739
0.134637
0.13453
0.134424
0.134332
0.134277
0.134295
0.116204
0.0923985
0.0771017
0.0964559
0.417153
1.15779
1.77383
2.65863
4.1946
6.43288
7.29655
7.202
7.10088
7.01113
6.94123
6.8954
6.87591
6.8831
6.9177
6.97746
7.05277
7.1337
7.19006
0.13474
0.134638
0.134531
0.134424
0.134331
0.134275
0.134293
0.114506
0.0896543
0.0742359
0.114932
0.546513
1.33653
2.11219
3.34361
5.18682
7.05254
7.03542
6.95766
6.87069
6.79409
6.73731
6.70507
6.69978
6.72119
6.772
6.84446
6.93248
7.02353
7.08679
0.134741
0.134639
0.134532
0.134425
0.13433
0.134272
0.134292
0.111859
0.0854892
0.0701396
0.131366
0.643382
1.45562
2.44837
4.10166
6.22849
6.67236
6.66188
6.60109
6.53326
6.47686
6.44125
6.43109
6.44778
6.49342
6.56605
6.65773
6.76348
6.86808
6.94037
0.134741
0.134641
0.134533
0.134425
0.134328
0.134266
0.134288
0.108374
0.0798172
0.0641056
0.138586
0.698354
1.58277
2.8253
4.86836
6.03182
6.13283
6.13426
6.10263
6.06935
6.04928
6.05047
6.07613
6.12972
6.20975
6.3115
6.42992
6.5573
6.67767
6.75989
0.134742
0.134642
0.134535
0.134425
0.134324
0.134258
0.134279
0.103563
0.0725083
0.0546639
0.133441
0.723907
1.70492
3.27024
5.00142
5.23953
5.33986
5.38774
5.41947
5.45327
5.49949
5.56394
5.64841
5.7566
5.88377
6.02403
6.17454
6.32564
6.46177
6.55302
0.134743
0.134643
0.134536
0.134424
0.13432
0.134246
0.134264
0.0978317
0.0619266
0.0439187
0.100422
0.677531
1.91794
3.70834
3.93769
4.10432
4.25472
4.39928
4.54236
4.6882
4.84091
5.00203
5.17416
5.35465
5.53967
5.72544
5.90847
6.08076
6.22866
6.32534
0.134743
0.134644
0.134536
0.134422
0.134314
0.134229
0.134236
0.0921023
0.0507589
0.0327366
0.0273956
0.26709
1.85857
2.62888
2.64897
2.80811
3.0376
3.30254
3.5841
3.87159
4.15928
4.44335
4.71765
4.97712
5.2194
5.44483
5.65107
5.83409
5.98405
6.07923
0.134744
0.134645
0.134537
0.134421
0.134306
0.134212
0.134196
0.0875343
0.0424445
0.0222153
0.0159427
0.11538
1.54419
1.63763
1.56725
1.76609
2.05772
2.41678
2.8161
3.23031
3.64249
4.03389
4.38862
4.70153
4.97571
5.21409
5.41968
5.59334
5.72976
5.81358
0.134744
0.134645
0.134536
0.13442
0.1343
0.134193
0.134134
0.0879587
0.0380639
0.0178707
0.00915489
0.0665361
0.464843
0.474291
1.0009
1.2561
1.61251
2.04924
2.53355
3.0278
3.50138
3.92839
4.29324
4.59855
4.85122
5.06001
5.23233
5.37217
5.47687
5.53618
0.134744
0.134645
0.134535
0.134417
0.134293
0.134174
0.134085
0.0997938
0.0410685
0.017607
0.00833443
0.0608272
0.281596
0.256667
1.10711
1.43917
1.87672
2.37444
2.88515
3.3666
3.79016
4.14274
4.42615
4.65109
4.82731
4.96759
5.07935
5.16646
5.22657
5.25349
0.134743
0.134644
0.134534
0.134414
0.134287
0.134159
0.134057
0.12726
0.0520676
0.0248785
0.0124355
0.0197579
0.584317
0.665593
2.10075
2.47111
2.89843
3.3275
3.71448
4.04157
4.30162
4.5012
4.64917
4.75918
4.83872
4.8969
4.93813
4.96567
4.97658
4.96842
0.134743
0.134643
0.134532
0.134411
0.134284
0.134153
0.134042
0.134056
0.0687812
0.0397411
0.026575
0.148419
1.50335
2.80978
3.61351
3.86965
4.13034
4.35951
4.54349
4.67809
4.76674
4.81698
4.84057
4.84446
4.83535
4.81668
4.79211
4.7629
4.72614
4.68407
0.134742
0.134641
0.134531
0.13441
0.134283
0.134155
0.134048
0.134063
0.0881887
0.0560631
0.136758
0.619015
2.10636
4.62046
4.81697
4.94755
5.03953
5.09678
5.1216
5.11528
5.08123
5.02467
4.95534
4.87968
4.7998
4.71682
4.6356
4.55596
4.47678
4.40412
0.134742
0.13464
0.134529
0.134408
0.134283
0.134161
0.134068
0.134103
0.0971806
0.0742674
0.19625
0.702162
2.02498
4.89929
5.32783
5.48362
5.52317
5.50494
5.44989
5.36667
5.26029
5.13642
5.00109
4.86675
4.73269
4.59886
4.47003
4.34751
4.23178
4.13263
0.134741
0.134639
0.134527
0.134407
0.134284
0.134169
0.134093
0.134151
0.0983579
0.0829741
0.225642
0.728359
1.93967
4.5903
5.44696
5.66816
5.72169
5.69014
5.60822
5.49112
5.34603
5.17991
5.00122
4.82151
4.64421
4.4691
4.30162
4.14376
3.99712
3.87575
0.134741
0.134638
0.134526
0.134407
0.134285
0.134177
0.134118
0.134183
0.0957318
0.0834706
0.22711
0.712554
1.81334
4.18336
5.39595
5.6772
5.76362
5.74503
5.6639
5.53823
5.3739
5.18217
4.97379
4.76083
4.54792
4.3395
4.13967
3.95305
3.78159
3.64224
0.13474
0.134637
0.134525
0.134406
0.134287
0.134185
0.13414
0.133077
0.0926334
0.079608
0.208092
0.660635
1.68601
3.85479
5.27026
5.59674
5.72039
5.73091
5.66291
5.53748
5.36757
5.16371
4.93485
4.6986
4.45739
4.22207
3.99735
3.78767
3.59684
3.44369
0.13474
0.134636
0.134524
0.134406
0.134288
0.134191
0.134155
0.12864
0.0900629
0.0748906
0.178218
0.584793
1.55684
3.63862
5.10856
5.48241
5.56529
5.45062
5.4724
5.52666
5.3516
5.14004
4.89994
4.64741
4.38691
4.13134
3.88918
3.66304
3.45833
3.29543
0.13474
0.134636
0.134524
0.134406
0.13429
0.134196
0.134166
0.125027
0.0879992
0.0708585
0.140341
0.485121
1.46115
3.58135
4.92496
4.90631
4.76612
4.77775
4.92482
5.14482
5.34549
5.12892
4.88409
4.62237
4.35167
4.08482
3.83288
3.59824
3.38586
3.21746
0.134745
0.134659
0.134583
0.134524
0.134496
0.134523
0.134637
0.117932
0.0945906
0.0801592
0.124557
0.5143
1.10681
1.77086
3.09019
5.57855
8.82939
9.20965
9.21346
9.16521
9.10377
9.04977
9.01503
9.00631
9.02696
9.07716
9.15352
9.24775
9.34187
9.39769
0.134745
0.13466
0.134583
0.134524
0.134495
0.13452
0.134635
0.117707
0.0936397
0.0815873
0.181862
0.764006
1.52051
2.33938
3.74046
5.99975
8.72209
9.05729
9.06108
9.01689
8.96189
8.91601
8.89069
8.89236
8.92394
8.98516
9.07179
9.17627
9.27727
9.33847
0.134746
0.134661
0.134584
0.134524
0.134494
0.134518
0.134633
0.116499
0.0913104
0.0838639
0.245181
0.934293
1.77472
2.88405
4.72378
7.12674
8.6565
8.76828
8.77243
8.73501
8.69106
8.65939
8.65065
8.67053
8.72112
8.8009
8.90611
9.02595
9.13882
9.2087
0.134747
0.134662
0.134585
0.134525
0.134493
0.134515
0.13463
0.114679
0.0881986
0.0861816
0.299106
1.0407
1.98011
3.44405
5.79729
7.95518
8.24626
8.33999
8.34546
8.32108
8.29675
8.28902
8.30706
8.35521
8.43431
8.54121
8.67215
8.812
8.94108
9.0219
0.134747
0.134663
0.134587
0.134525
0.134491
0.13451
0.134625
0.112443
0.0844054
0.0864651
0.331691
1.10896
2.18762
4.03517
6.75385
7.44775
7.66359
7.74298
7.76324
7.76788
7.77994
7.81249
7.87237
7.962
8.08022
8.22402
8.3854
8.54918
8.69644
8.78902
0.134748
0.134665
0.134588
0.134525
0.134488
0.134503
0.134615
0.109781
0.0797521
0.0819648
0.33503
1.14125
2.41442
4.6826
6.36769
6.69065
6.85682
6.9495
7.01435
7.07688
7.15192
7.248
7.36896
7.51504
7.68321
7.87039
8.06428
8.25318
8.41721
8.52005
0.134749
0.134666
0.134589
0.134525
0.134484
0.134493
0.1346
0.106598
0.073728
0.0701782
0.306792
1.1306
2.74742
5.14448
5.46501
5.66618
5.83362
5.98548
6.13537
6.29113
6.45903
6.64228
6.84148
7.05438
7.27869
7.508
7.73121
7.93998
8.115
8.2236
0.13475
0.134667
0.13459
0.134524
0.134479
0.134479
0.134576
0.104312
0.0645654
0.0567997
0.224705
1.1613
3.24542
4.33216
4.35332
4.51853
4.74464
4.9955
5.25922
5.53013
5.80764
6.0856
6.36467
6.64162
6.91174
7.16949
7.40949
7.62469
7.79933
7.90588
0.13475
0.134668
0.13459
0.134522
0.134473
0.134463
0.134543
0.104482
0.0578264
0.0411692
0.0450667
0.601665
3.08109
3.13303
3.32703
3.56133
3.87869
4.23547
4.60836
4.98509
5.35248
5.70031
6.03272
6.34212
6.62625
6.88466
7.11681
7.31774
7.47603
7.5703
0.13475
0.134668
0.13459
0.134521
0.134467
0.134446
0.134502
0.108197
0.0550898
0.0350455
0.0296405
0.492218
2.59396
2.51492
2.86038
3.13917
3.52772
3.96041
4.40285
4.83007
5.2259
5.58348
5.90763
6.19333
6.44495
6.66731
6.86131
7.02491
7.14975
7.22047
0.13475
0.134668
0.134589
0.134519
0.134462
0.134432
0.134465
0.119493
0.0579021
0.0367096
0.0266599
0.368578
2.61891
2.51195
3.09149
3.42049
3.84302
4.28473
4.71035
5.09426
5.4307
5.7173
5.96281
6.17034
6.34984
6.50347
6.63516
6.74383
6.82277
6.86233
0.13475
0.134667
0.134588
0.134516
0.134458
0.134422
0.13444
0.134293
0.0665174
0.0477285
0.0423091
0.392358
2.77292
3.20222
4.03397
4.35834
4.71442
5.05431
5.35492
5.60658
5.80976
5.97056
6.09861
6.20205
6.28812
6.3588
6.41871
6.46472
6.49252
6.498
0.134749
0.134666
0.134587
0.134514
0.134455
0.134419
0.134436
0.134689
0.0792393
0.069734
0.231148
1.03214
3.20604
5.14102
5.26203
5.47614
5.69217
5.87484
6.01607
6.1146
6.17568
6.20791
6.22094
6.22321
6.21757
6.20794
6.19654
6.18069
6.15855
6.13065
0.134749
0.134665
0.134585
0.134513
0.134455
0.134422
0.134449
0.134732
0.0888604
0.0971985
0.342233
1.16175
3.37397
5.73363
6.09177
6.29614
6.42145
6.48689
6.50524
6.48509
6.43539
6.36567
6.28533
6.20291
6.11955
6.03918
5.96333
5.89184
5.82352
5.76517
0.134748
0.134664
0.134584
0.134512
0.134455
0.134428
0.134471
0.134769
0.0927029
0.121012
0.413728
1.22175
3.26007
5.85208
6.43428
6.71173
6.82582
6.8424
6.79459
6.70282
6.58084
6.43961
6.28974
6.14064
5.99316
5.85365
5.72256
5.6023
5.49332
5.40868
0.134747
0.134662
0.134582
0.134511
0.134457
0.134437
0.134496
0.129541
0.0923158
0.129374
0.449626
1.24373
3.10505
5.7462
6.4749
6.83895
6.98337
6.99728
6.92603
6.7995
6.63688
6.44893
6.24934
6.04869
5.84954
5.65957
5.48293
5.32096
5.17756
5.07063
0.134747
0.134661
0.134581
0.13451
0.134459
0.134446
0.13452
0.123465
0.0896111
0.124851
0.443507
1.21052
2.92205
5.55013
6.36368
6.80245
6.96276
6.80734
6.77062
6.79926
6.6326
6.41677
6.18379
5.94367
5.70332
5.47161
5.25684
5.06076
4.88891
4.76377
0.134746
0.13466
0.13458
0.13451
0.13446
0.134454
0.13454
0.118816
0.0864268
0.112299
0.405878
1.13034
2.72785
5.13541
6.17688
6.33625
6.10701
6.02795
6.08817
6.22744
6.37062
6.36853
6.11302
5.84333
5.57046
5.30696
5.06101
4.83808
4.64369
4.50455
0.134746
0.13466
0.13458
0.13451
0.134463
0.134462
0.134558
0.115489
0.0837514
0.0971995
0.346174
1.01368
2.5532
4.69843
5.4972
5.37332
5.23651
5.29248
5.49057
5.74882
5.99351
6.17418
6.05567
5.76577
5.46981
5.18365
4.91559
4.67318
4.46288
4.31376
0.134746
0.13466
0.134579
0.13451
0.134464
0.134465
0.134566
0.112449
0.0821393
0.0818475
0.267184
0.879424
2.46234
4.26343
4.61965
4.51637
4.53667
4.74099
5.07103
5.45111
5.78323
6.01657
6.03279
5.73006
5.42148
5.12282
4.84333
4.58986
4.37106
4.21639
0.134745
0.13466
0.134585
0.134528
0.134503
0.134533
0.134652
0.119427
0.095388
0.0878787
0.229452
0.777496
1.41919
2.3815
4.29359
7.42137
10.0918
10.4002
10.5276
10.5667
10.5693
10.5654
10.573
10.603
10.6606
10.7469
10.8575
10.9809
11.0947
11.1581
0.134746
0.134661
0.134585
0.134527
0.134502
0.134531
0.134649
0.119357
0.0947484
0.0994441
0.361271
1.11916
1.92957
3.04601
4.94119
7.65174
9.97943
10.257
10.3727
10.4094
10.4153
10.4184
10.4356
10.4768
10.5466
10.645
10.767
10.9004
11.0227
11.0914
0.134746
0.134661
0.134586
0.134528
0.134501
0.134529
0.134648
0.118332
0.0933187
0.116557
0.482533
1.32463
2.30079
3.82113
6.15481
8.72014
9.73225
9.9728
10.0733
10.1082
10.1209
10.1366
10.1707
10.2313
10.3217
10.4405
10.5815
10.7312
10.8665
10.9439
0.134747
0.134663
0.134587
0.134529
0.1345
0.134526
0.134645
0.116906
0.0919541
0.135519
0.572934
1.45212
2.6204
4.61399
7.41958
8.93731
9.35144
9.54782
9.63356
9.6711
9.69769
9.73496
9.79532
9.88488
10.0049
10.152
10.3182
10.4897
10.641
10.7292
0.134748
0.134664
0.134589
0.134529
0.134499
0.134521
0.134639
0.115442
0.0907032
0.15124
0.62801
1.54535
2.92699
5.39281
7.90327
8.50815
8.82005
8.97494
9.0541
9.10638
9.16017
9.23211
9.33107
9.4603
9.61857
9.80051
9.99637
10.1921
10.36
10.4597
0.134748
0.134666
0.13459
0.134529
0.134496
0.134515
0.13463
0.114104
0.0892748
0.159065
0.644681
1.60278
3.22975
6.12065
7.4938
7.9004
8.12547
8.25764
8.35103
8.43846
8.53819
8.66094
8.81146
8.98979
9.19231
9.41162
9.63813
9.85563
10.0378
10.1472
0.134749
0.134667
0.134591
0.134529
0.134493
0.134506
0.134616
0.11318
0.0870666
0.156015
0.6252
1.63919
3.60504
6.42688
6.87621
7.1273
7.30243
7.44602
7.58281
7.72851
7.89227
8.07857
8.28825
8.51844
8.7638
9.01619
9.26675
9.49813
9.68827
9.80224
0.13475
0.134668
0.134592
0.134529
0.134489
0.134495
0.134597
0.112784
0.0837627
0.138855
0.57793
1.69088
4.07673
5.93592
6.13332
6.3009
6.47839
6.6668
6.86853
7.0853
7.31805
7.56906
7.83002
8.10018
8.37437
8.6455
8.90406
9.13566
9.32253
9.43351
0.13475
0.134669
0.134593
0.134528
0.134485
0.134483
0.134572
0.114011
0.0793508
0.120487
0.488544
1.76517
4.49949
5.45271
5.47454
5.6337
5.85177
6.10019
6.3663
6.64257
6.92843
7.21714
7.50153
7.78223
8.05851
8.32177
8.56493
8.77868
8.94766
9.04642
0.13475
0.134669
0.134593
0.134527
0.13448
0.13447
0.134547
0.118745
0.0763718
0.112733
0.425929
1.77544
4.79375
5.21983
5.18997
5.36551
5.62031
5.90824
6.2054
6.50247
6.79236
7.06931
7.33255
7.58458
7.82567
8.04958
8.25281
8.42938
8.56604
8.64349
0.13475
0.134669
0.134593
0.134526
0.134477
0.134461
0.134528
0.125357
0.079214
0.117203
0.411831
1.71881
4.77225
5.38712
5.39702
5.59471
5.85506
6.13106
6.39959
6.65356
6.88612
7.10144
7.29828
7.48222
7.6558
7.8163
7.96167
8.0861
8.17978
8.22954
0.13475
0.134668
0.134591
0.134524
0.134474
0.134457
0.134521
0.128956
0.0873032
0.134033
0.462112
1.75582
4.67312
5.8796
6.00174
6.20755
6.42467
6.63028
6.81359
6.97132
7.10604
7.22345
7.32768
7.42332
7.51358
7.59856
7.67587
7.74142
7.78733
7.80668
0.13475
0.134667
0.13459
0.134523
0.134474
0.134458
0.13453
0.128663
0.0939219
0.165378
0.570051
1.87437
4.83818
6.38137
6.67846
6.88703
7.04801
7.16647
7.24884
7.30097
7.33055
7.3459
7.35494