/*--------------------------------*- C++ -*----------------------------------*\
| =========                 |                                                 |
| \\      /  F ield         | OpenFOAM: The Open Source CFD Toolbox           |
|  \\    /   O peration     | Version:  2512                                  |
|   \\  /    A nd           | Website:  www.openfoam.com                      |
|    \\/     M anipulation  |                                                 |
\*---------------------------------------------------------------------------*/
FoamFile
{
    version     2.0;
    format      ascii;
    arch        "LSB;label=32;scalar=64";
    class       volScalarField;
    location    "160";
    object      omega;
}
// * * * * * * * * * * * * * * * * * * * * * * * * * * * * * * * * * * * * * //

dimensions      [0 0 -1 0 0 0 0];

internalField   nonuniform List<scalar> 
84826
(
16.0845
15.8153
15.5583
15.3126
15.0772
14.8511
14.6336
14.4237
14.2239
14.0345
13.8548
13.69
13.5275
13.3666
13.2152
13.0668
12.9217
12.78
12.6414
12.506
12.3742
12.2457
12.1207
11.9989
11.8804
11.765
11.6527
11.5432
11.4365
11.3326
16.0846
15.8154
15.5586
15.313
15.0778
14.8521
14.6351
14.4255
14.2264
14.0377
13.8589
13.6951
13.5334
13.373
13.2218
13.0734
12.9278
12.786
12.6471
12.5114
12.3792
12.2504
12.1251
12.003
11.8842
11.7686
11.656
11.5462
11.4393
11.3351
16.0846
15.8155
15.5587
15.3133
15.0784
14.8532
14.6372
14.4283
14.2297
14.0425
13.8656
13.7041
13.5444
13.3849
13.2344
13.0859
12.9402
12.7978
12.6579
12.5216
12.389
12.2597
12.1339
12.0115
11.8923
11.7763
11.6633
11.5532
11.4459
11.3413
16.0846
15.8156
15.5589
15.3136
15.079
14.8542
14.6389
14.4307
14.2336
14.0486
13.8749
13.7161
13.5597
13.4034
13.2541
13.1056
12.9589
12.8157
12.675
12.5379
12.4046
12.2747
12.1485
12.0256
11.906
11.7894
11.6759
11.5652
11.4574
11.3523
16.0846
15.8156
15.5591
15.3139
15.0795
14.8552
14.6406
14.4333
14.238
14.0563
13.884
13.7006
13.5505
13.4247
13.2777
13.1292
12.9813
12.8372
12.6959
12.5589
12.4266
12.2993
12.1768
12.0586
11.9446
11.8343
11.7273
11.6234
11.5221
11.4229
16.0847
15.8157
15.5591
15.3141
15.0798
14.856
14.6421
14.436
14.2432
14.0613
13.8926
13.739
13.5949
13.4532
13.3105
13.1624
13.014
12.8809
12.7639
12.6695
12.6001
12.5526
12.5207
12.4989
12.4826
12.4679
12.4511
12.4294
12.4011
12.3628
16.0847
15.8157
15.5592
15.3142
15.0801
14.8566
14.6434
14.4403
14.2473
14.0671
13.9158
13.8067
13.7251
13.6785
13.5668
13.447
13.5622
13.8844
14.3325
14.861
15.414
15.9369
16.3964
16.7834
17.0974
17.3414
17.5186
17.6351
17.6915
17.7053
16.0846
15.8157
15.5592
15.3142
15.0804
14.8572
14.6446
14.4448
14.2505
14.0751
27.8213
27.2872
26.8788
27.7606
21.4781
22.5141
24.0548
25.3843
26.3922
27.1242
27.6167
27.9001
28.0138
27.9966
27.8767
27.6744
27.4049
27.082
26.7157
26.3179
16.0846
15.8157
15.5592
15.3143
15.0806
14.8576
14.6458
14.4472
14.2559
14.0945
27.8879
27.9386
31.3674
66.6105
52.1822
49.5905
47.1359
44.8492
42.7823
40.9474
39.3148
37.851
36.5544
35.4069
34.3713
33.4194
32.5332
31.6981
30.9179
30.1701
16.0848
15.816
15.5597
15.3151
15.0816
14.8589
14.6475
14.4483
14.2616
14.1267
28.0434
57.5353
125.654
211.08
54.4439
49.6242
46.8306
44.3751
42.2369
40.3713
38.7144
37.2252
35.8797
34.6601
33.5509
32.5382
31.6114
30.7603
29.9835
29.2567
16.0849
15.8163
15.5602
15.3157
15.0824
14.8592
14.6475
14.4483
14.2618
14.1272
28.1086
60.0421
239.624
57.4337
52.1399
49.0688
46.424
44.1548
42.206
40.501
38.9937
37.655
36.4633
35.3989
34.4436
33.5827
32.8016
32.0958
31.4377
16.0849
15.8161
15.5597
15.3149
15.0815
14.858
14.646
14.4474
14.2563
14.0957
27.9283
55.9005
111.157
205.036
49.6737
46.9438
44.8216
42.9037
41.1741
39.6251
38.2272
36.9616
35.8152
34.7798
33.8428
32.9948
32.2257
31.5275
30.8934
30.3203
16.0848
15.8158
15.5592
15.3142
15.0805
14.8574
14.645
14.4454
14.2512
14.0766
27.8465
27.4933
31.7095
45.4632
19.4884
18.6722
18.9994
19.5637
20.1432
20.6831
21.1509
21.533
21.8376
22.0761
22.2629
22.4095
22.5211
22.6084
22.6603
22.7182
16.0847
15.8157
15.5592
15.3143
15.0803
14.8569
14.6438
14.4409
14.2482
14.0685
13.9198
13.8218
13.8004
13.7009
13.5461
13.3876
13.231
13.0821
12.9502
12.868
12.8341
12.8399
12.8781
12.9452
13.0398
13.1582
13.2959
13.4489
13.6141
13.7864
16.0847
15.8157
15.5592
15.3142
15.08
14.8563
14.6426
14.4367
14.2444
14.0628
13.8953
13.7442
13.6068
13.4649
13.3245
13.1795
13.0334
12.8899
12.7478
12.6089
12.4737
12.3435
12.2184
12.0988
11.9852
11.8782
11.7784
11.6862
11.6023
11.5268
16.0846
15.8157
15.5591
15.314
15.0797
14.8555
14.6411
14.434
14.2392
14.0581
13.8864
13.7039
13.5554
13.4329
13.2891
13.1439
12.9993
12.8573
12.7169
12.5797
12.4458
12.3153
12.1882
12.0644
11.9439
11.8265
11.7121
11.6006
11.492
11.3864
16.0846
15.8156
15.559
15.3137
15.0792
14.8545
14.6393
14.4314
14.2347
14.0504
13.8777
13.7205
13.5662
13.4123
13.2652
13.119
12.9747
12.8335
12.6938
12.5572
12.4239
12.2937
12.167
12.0435
11.9232
11.8059
11.6916
11.58
11.4712
11.3653
16.0846
15.8155
15.5588
15.3134
15.0786
14.8535
14.6376
14.4289
14.2308
14.0442
13.8682
13.7082
13.5504
13.3928
13.2441
13.0977
12.954
12.8136
12.6751
12.5397
12.4074
12.278
12.1517
12.0285
11.9086
11.7918
11.678
11.5671
11.459
11.3537
16.0846
15.8154
15.5586
15.313
15.0779
14.8523
14.6354
14.4262
14.2275
14.0395
13.8616
13.6991
13.5392
13.3805
13.2309
13.0843
12.9407
12.8007
12.6632
12.5285
12.3969
12.2682
12.1426
12.0199
11.9002
11.7836
11.67
11.5594
11.4516
11.3466
16.0845
15.8153
15.5583
15.3126
15.0772
14.8512
14.634
14.4244
14.225
14.0364
13.8577
13.6943
13.5334
13.3742
13.2243
13.0777
12.9344
12.7945
12.6573
12.523
12.3917
12.2634
12.1382
12.0159
11.8965
11.7801
11.6666
11.556
11.4483
11.3434
1.93987
2.08188
2.20872
2.32333
2.42803
2.52466
2.6145
2.69925
2.7822
2.86234
2.93875
3.00857
3.06986
3.12048
3.16192
3.19673
3.22893
3.2584
3.28593
3.31169
3.33574
3.35799
3.37843
3.39704
3.41376
3.42859
3.44151
3.45262
3.462
3.46959
1.93989
2.08194
2.20886
2.3236
2.42852
2.52558
2.61621
2.70196
2.78685
2.86991
2.95023
3.02441
3.08943
3.14262
3.18501
3.22015
3.25307
3.28348
3.31223
3.33934
3.36487
3.38874
3.41085
3.43109
3.4494
3.46568
3.47996
3.49232
3.50281
3.51132
1.93984
2.08205
2.2091
2.32407
2.42946
2.52744
2.61996
2.70782
2.79704
2.88681
2.97643
3.06076
3.13467
3.19386
3.23848
3.27438
3.30933
3.34205
3.37373
3.40394
3.43272
3.45989
3.4852
3.5084
3.52939
3.54801
3.56428
3.57823
3.58995
3.5992
1.93978
2.08216
2.20941
2.32472
2.43077
2.53002
2.62496
2.71674
2.81326
2.91518
3.02435
3.12809
3.2212
3.29206
3.34091
3.37834
3.41677
3.45441
3.49176
3.52826
3.56393
3.5983
3.63073
3.66082
3.68822
3.71279
3.73442
3.75306
3.76877
3.78114
1.93982
2.08216
2.20976
2.32553
2.4324
2.53332
2.63147
2.72916
2.83718
2.96191
3.09555
3.23194
3.36176
3.45886
3.51623
3.55858
3.60647
3.65602
3.70588
3.75548
3.8052
3.85394
3.90049
3.94403
3.98412
4.0205
4.05296
4.08122
4.10529
4.12425
1.93986
2.0822
2.21
2.3264
2.43424
2.5371
2.6393
2.7454
2.87197
3.01934
3.21069
3.41697
3.63626
3.78716
3.87317
3.93388
4.00911
4.09164
4.17965
4.27498
4.37697
4.48141
4.58428
4.68249
4.77452
4.85916
4.93551
5.00281
5.06146
5.10856
1.93989
2.08233
2.21022
2.32708
2.4361
2.54104
2.648
2.76622
2.91015
3.10919
3.44691
3.9086
4.44744
4.83731
5.06259
5.25511
5.47373
5.71313
5.98565
6.31157
6.66397
7.01555
7.34918
7.65988
7.94769
8.21308
8.4573
8.68544
8.89308
9.07825
1.93991
2.08247
2.21054
2.32767
2.4376
2.54455
2.65661
2.79043
2.95323
3.27331
3.68235
5.18411
7.29492
11.8437
21.9181
22.8195
23.524
24.0961
24.5563
24.9276
25.22
25.4192
25.5359
25.586
25.5787
25.5113
25.3783
25.1736
24.8994
24.5789
1.93993
2.08259
2.21082
2.32826
2.43876
2.5474
2.6639
2.80945
3.00603
3.57588
4.6363
12.7677
32.4221
99.2321
112.498
89.5444
75.1031
65.4263
58.7098
53.949
50.3901
47.6106
45.3371
43.336
41.476
39.7158
38.0475
36.4624
34.9816
33.553
1.94004
2.08282
2.21124
2.32895
2.4399
2.54956
2.66874
2.81667
3.05362
3.9183
7.65599
515.359
1362.84
1057.6
136.422
105.782
87.6856
75.2037
66.1053
59.1336
53.5765
49.0101
45.1771
41.9094
39.0887
36.6299
34.4717
32.5627
30.879
29.3509
1.94015
2.08301
2.2115
2.32925
2.44024
2.5494
2.66857
2.8165
3.05453
3.92486
8.20158
282.79
133.548
104.197
86.1722
73.5124
64.2026
57.1285
51.5648
47.0814
43.4073
40.3555
37.7895
35.6069
33.7318
32.1016
30.6821
29.4073
1.94015
2.08275
2.21117
2.3285
2.43909
2.54728
2.66391
2.80959
3.00852
3.59031
5.83572
295.016
1204.76
459.343
112.294
88.6995
73.7864
63.4437
55.9584
50.3527
46.0136
42.5272
39.7095
37.4031
35.4987
33.9154
32.5905
31.4735
30.5214
29.7199
1.94017
2.08248
2.21066
2.32763
2.43763
2.54467
2.657
2.79161
2.95657
3.28819
3.93976
8.39245
19.3157
34.2676
20.36
19.6245
19.0882
18.5953
18.1675
17.8177
17.5381
17.3181
17.1493
17.0285
16.9647
16.9541
16.9869
17.0582
17.1649
17.3148
1.94005
2.08238
2.21024
2.32713
2.43619
2.54122
2.64841
2.76734
2.9126
3.11929
3.48808
4.07376
4.88378
5.25459
5.37616
5.42543
5.46323
5.49689
5.52726
5.56042
5.59856
5.64215
5.69108
5.74696
5.81372
5.89048
5.97917
6.08026
6.19552
6.32823
1.93989
2.08223
2.21002
2.32647
2.43434
2.53727
2.63966
2.74635
2.87463
3.0255
3.22967
3.47078
3.75326
3.90815
3.96845
3.98265
3.99722
4.0138
4.03113
4.04951
4.06994
4.09183
4.11437
4.13707
4.16022
4.18365
4.20796
4.23286
4.25906
4.28689
1.93983
2.0822
2.20981
2.3256
2.4325
2.53347
2.63177
2.72987
2.83891
2.96634
3.10393
3.24972
3.39209
3.49168
3.5364
3.55231
3.56546
3.57642
3.58595
3.59481
3.60466
3.61557
3.62707
3.639
3.65144
3.66451
3.67836
3.69276
3.70783
3.72358
1.9398
2.08219
2.20947
2.32479
2.43087
2.53016
2.6252
2.71724
2.81433
2.91754
3.02939
3.13733
3.2345
3.30148
3.3389
3.35899
3.37566
3.39088
3.40464
3.41808
3.43186
3.44592
3.45977
3.47331
3.48652
3.49944
3.51218
3.52455
3.53657
3.54821
1.93986
2.08209
2.20915
2.32414
2.42955
2.52756
2.62014
2.70815
2.79766
2.88799
2.97845
3.06359
3.13706
3.19188
3.22789
3.25265
3.27403
3.29393
3.31162
3.32764
3.34227
3.35568
3.36802
3.37952
3.39071
3.4014
3.41171
3.4216
3.43104
3.44006
1.9399
2.08198
2.20892
2.32367
2.42861
2.52569
2.61636
2.70217
2.78718
2.87041
2.95081
3.02458
3.08777
3.13654
3.17185
3.19883
3.22217
3.24454
3.26429
3.28213
3.29837
3.31318
3.3267
3.33901
3.35029
3.36058
3.37028
3.37942
3.38796
3.39594
1.93989
2.08192
2.20878
2.32341
2.42812
2.52476
2.61461
2.69938
2.78235
2.86245
2.93861
3.00749
3.06642
3.11258
3.14749
3.17535
3.19974
3.22311
3.24372
3.26234
3.2793
3.29475
3.30884
3.32166
3.33334
3.34392
3.35339
3.36198
3.36994
3.37735
1.77771
1.77827
1.78112
1.78589
1.79231
1.80017
1.80912
1.82061
1.83353
1.84813
1.86408
1.87995
1.89502
1.90817
1.91997
1.93071
1.9405
1.95166
1.96203
1.97216
1.98212
1.99189
2.00141
2.01059
2.01946
2.02789
2.03574
2.04308
2.04991
2.05617
1.77772
1.77827
1.78113
1.78591
1.79237
1.80031
1.80944
1.82126
1.83462
1.85012
1.86739
1.88452
1.90145
1.91572
1.92815
1.9394
1.94958
1.96119
1.97212
1.98285
1.99347
2.00395
2.01419
2.02414
2.03373
2.0428
2.0513
2.05924
2.06664
2.0734
1.77772
1.77828
1.78115
1.78596
1.79249
1.80062
1.81027
1.8224
1.8369
1.85453
1.87509
1.89574
1.91629
1.93312
1.94701
1.95925
1.97072
1.98313
1.9953
2.00741
2.01949
2.03149
2.04329
2.05476
2.06576
2.07612
2.08582
2.09484
2.10318
2.11071
1.77772
1.77829
1.78118
1.78603
1.79266
1.80102
1.81129
1.82429
1.84087
1.86246
1.88804
1.91439
1.94224
1.9646
1.98157
1.99566
2.00941
2.02412
2.03902
2.05407
2.0693
2.08459
2.09984
2.11459
2.12876
2.14217
2.15476
2.16648
2.17728
2.18697
1.77772
1.77829
1.78121
1.78612
1.79287
1.80154
1.81256
1.82705
1.84708
1.87426
1.91213
1.95167
1.99553
2.02748
2.05061
2.06852
2.08682
2.10683
2.12771
2.14922
2.17149
2.19429
2.21699
2.23889
2.25984
2.27967
2.29824
2.31539
2.33109
2.34497
1.77773
1.77829
1.78123
1.78622
1.79312
1.80215
1.8141
1.83088
1.85545
1.89543
1.97236
2.05028
2.13177
2.18409
2.21776
2.24658
2.27968
2.31713
2.35729
2.39993
2.4449
2.49229
2.53992
2.58611
2.63023
2.67166
2.70996
2.74474
2.77613
2.80323
1.77773
1.77831
1.78126
1.7863
1.79338
1.80283
1.81594
1.83598
1.86821
1.94372
2.13465
2.37576
2.58261
2.7193
2.82376
2.94017
3.08995
3.25436
3.42309
3.59429
3.76295
3.9259
4.07508
4.21015
4.33052
4.43634
4.52842
4.6079
4.67674
4.73307
1.77773
1.77832
1.78129
1.78636
1.7936
1.80347
1.81789
1.84109
1.88918
2.06462
2.26903
3.37404
4.23576
5.23653
11.6779
13.096
14.1355
14.9249
15.5066
15.9404
16.2478
16.433
16.5164
16.5139
16.4428
16.3159
16.1423
15.9296
15.6842
15.4144
1.77773
1.77834
1.78133
1.78645
1.79377
1.80397
1.81961
1.8464
1.92178
2.35642
3.3594
13.7707
29.545
42.2181
98.1139
81.1765
69.4625
60.8659
54.2877
49.1306
44.9022
41.3297
38.1649
35.3167
32.7761
30.5076
28.4772
26.658
25.0252
23.5671
1.77773
1.77835
1.78136
1.78652
1.79392
1.80433
1.82068
1.84983
1.95996
2.77577
6.73869
544.932
532.391
358.892
146.521
106.831
85.0235
71.0137
60.9992
53.5618
47.7706
43.1191
39.2918
36.0841
33.3576
31.013
28.9773
27.1952
25.6248
24.2349
1.77774
1.77835
1.78135
1.78652
1.79394
1.80437
1.82073
1.84992
1.96067
2.78118
7.29777
210.682
132.886
97.2648
77.3787
64.6048
55.5258
48.7692
43.5136
39.3461
35.9406
33.1081
30.7193
28.6813
26.9248
25.3973
24.0591
22.8821
1.77773
1.77834
1.78133
1.78645
1.79381
1.80405
1.81974
1.84663
1.92324
2.36602
4.54422
376.908
432.932
300.171
69.8282
57.4125
48.9792
42.8625
38.2073
34.5868
31.6997
29.355
27.4212
25.7968
24.4361
23.277
22.2781
21.4094
20.6478
19.981
1.77773
1.77832
1.78129
1.78637
1.79363
1.80352
1.81801
1.84138
1.89047
2.07257
2.56842
7.33335
11.4039
13.6444
9.13964
9.3201
9.51225
9.68163
9.82451
9.96673
10.0961
10.2171
10.323
10.4172
10.5072
10.5942
10.6827
10.773
10.8708
10.9686
1.77773
1.77831
1.78125
1.78631
1.7934
1.80287
1.81604
1.8363
1.8691
1.94836
2.15686
2.46874
2.73915
2.88624
2.93654
2.95234
2.98389
3.01728
3.04943
3.08259
3.11761
3.1547
3.19265
3.23265
3.27581
3.32215
3.37257
3.42663
3.48521
3.54863
1.77773
1.7783
1.78123
1.78623
1.79313
1.80219
1.81419
1.83113
1.85608
1.8976
1.98125
2.0755
2.17489
2.2297
2.25317
2.2633
2.27343
2.28356
2.29392
2.30519
2.31798
2.33202
2.34708
2.3626
2.37877
2.39559
2.41341
2.43176
2.45072
2.47026
1.77772
1.77829
1.78121
1.78613
1.79288
1.80157
1.81263
1.82724
1.84759
1.8755
1.91539
1.9591
2.00721
2.03841
2.0561
2.06726
2.07607
2.08398
2.09141
2.09867
2.10593
2.11334
2.12109
2.12906
2.13733
2.14578
2.15466
2.16405
2.17381
2.18407
1.77772
1.77829
1.78118
1.78604
1.79267
1.80105
1.81135
1.82442
1.84121
1.86326
1.88954
1.91712
1.9455
1.967
1.9809
1.99078
1.99928
2.00741
2.01501
2.02231
2.02939
2.03635
2.04358
2.05091
2.05836
2.06588
2.0734
2.08107
2.08881
2.09666
1.77772
1.77828
1.78116
1.78597
1.7925
1.80064
1.81031
1.8225
1.83711
1.85499
1.87594
1.89699
1.91741
1.93297
1.94447
1.95373
1.96202
1.97024
1.97792
1.98528
1.99238
1.99928
2.00602
2.01261
2.0191
2.02559
2.03206
2.03848
2.04481
2.05119
1.77772
1.77827
1.78113
1.78592
1.79238
1.80033
1.80948
1.82133
1.83477
1.8504
1.86782
1.88496
1.90137
1.91435
1.92479
1.93386
1.94228
1.95047
1.95831
1.96581
1.97305
1.98007
1.98686
1.99348
1.9999
2.00617
2.01232
2.01839
2.02434
2.03022
1.77772
1.77827
1.78112
1.78589
1.79232
1.80019
1.80915
1.82066
1.83362
1.84829
1.86428
1.87998
1.89437
1.90621
1.91617
1.92515
1.93359
1.94184
1.94976
1.95733
1.96465
1.97173
1.97859
1.98523
1.99171
1.99795
2.00404
2.00995
2.01575
2.0214
1.77422
1.76859
1.76319
1.75806
1.75324
1.74879
1.74476
1.74144
1.73886
1.73723
1.73643
1.73582
1.73475
1.73331
1.73192
1.73065
1.72928
1.72823
1.72733
1.72654
1.72589
1.7254
1.72502
1.72474
1.72452
1.72433
1.72418
1.724
1.7238
1.72355
1.77422
1.76859
1.76319
1.75806
1.75325
1.74881
1.74483
1.7416
1.7392
1.73793
1.73773
1.73764
1.73738
1.73639
1.73529
1.73423
1.73304
1.73218
1.73149
1.73092
1.73052
1.73029
1.7302
1.7302
1.73026
1.73037
1.73049
1.73058
1.73063
1.73061
1.77422
1.76859
1.76319
1.75807
1.75327
1.74887
1.74495
1.74195
1.74
1.73962
1.74092
1.74227
1.74384
1.74391
1.74351
1.74291
1.74202
1.74174
1.74151
1.74145
1.7416
1.74195
1.74245
1.74306
1.74372
1.74443
1.7451
1.74571
1.74625
1.74667
1.77422
1.76859
1.7632
1.75808
1.7533
1.74896
1.74521
1.74252
1.74142
1.74283
1.74702
1.75186
1.75619
1.75847
1.75954
1.75986
1.75986
1.76045
1.76125
1.76234
1.76373
1.76537
1.76719
1.76911
1.7711
1.77308
1.77499
1.77679
1.77846
1.77991
1.77423
1.7686
1.7632
1.75809
1.75335
1.74908
1.74556
1.74344
1.74384
1.74846
1.76011
1.7724
1.78408
1.79029
1.79436
1.7966
1.79843
1.80102
1.80411
1.8078
1.81208
1.81685
1.8219
1.82706
1.83221
1.83721
1.84199
1.8465
1.85068
1.85438
1.77423
1.7686
1.76321
1.75811
1.7534
1.74924
1.74605
1.74486
1.74772
1.76041
1.79337
1.8283
1.85586
1.87229
1.88142
1.88852
1.89662
1.90633
1.91715
1.92923
1.9426
1.95698
1.97197
1.98707
2.00195
2.01627
2.02988
2.04258
2.05431
2.06471
1.77423
1.76861
1.76321
1.75813
1.75346
1.74943
1.74667
1.74692
1.75482
1.78809
1.8831
1.99693
2.07002
2.11908
2.14929
2.17788
2.22124
2.27556
2.33626
2.40097
2.46774
2.53477
2.59908
2.65905
2.71324
2.76123
2.80292
2.83853
2.86906
2.89382
1.77424
1.76861
1.76323
1.75815
1.75352
1.74963
1.74739
1.74957
1.76729
1.85773
1.97233
2.5534
2.92298
3.12447
4.2794
4.53615
4.90063
5.31603
5.7251
6.10829
6.45537
6.75109
6.98715
7.16088
7.27565
7.33514
7.34629
7.31669
7.25667
7.16657
1.77424
1.76862
1.76324
1.75818
1.7536
1.74981
1.7481
1.75272
1.78659
2.01371
2.55272
7.39764
13.6431
17.9565
31.5529
28.1388
25.8957
24.1164
22.4406
20.8721
19.382
17.9839
16.731
15.6381
14.6802
13.8412
13.097
12.4332
11.8386
11.3145
1.77424
1.76863
1.76326
1.75821
1.75366
1.74996
1.74861
1.75516
1.80809
2.24949
4.14461
268.632
555.543
244.644
74.8906
60.117
50.3521
43.4338
38.1951
34.166
30.9098
28.2209
25.9861
24.0896
22.4633
21.0567
19.8305
18.7537
17.8006
16.9572
1.77424
1.76862
1.76326
1.7582
1.75363
1.74995
1.74861
1.7552
1.80844
2.253
4.53054
441.735
384.834
302.83
77.2446
61.3328
51.1171
43.9922
38.6953
34.5803
31.2748
28.5628
26.2861
24.3374
22.6666
21.2135
19.941
18.8202
17.8271
16.9476
1.77423
1.76861
1.76323
1.75817
1.75357
1.74982
1.74813
1.75285
1.78737
2.01921
3.04453
148.936
453.164
161.76
21.8362
19.6689
18.0286
16.6737
15.5451
14.6009
13.8042
13.1236
12.5369
12.0255
11.5844
11.1941
10.8511
10.5465
10.275
10.0363
1.77423
1.76861
1.76322
1.75815
1.75352
1.74965
1.74744
1.74972
1.76795
1.86198
2.13648
4.07094
5.46354
5.86628
4.12189
4.13523
4.16909
4.20872
4.24135
4.26599
4.29867
4.34119
4.39499
4.45904
4.5347
4.62015
4.71405
4.81323
4.91789
5.0214
1.77423
1.76861
1.76321
1.75813
1.75346
1.74945
1.74672
1.74708
1.75534
1.79041
1.89394
2.03337
2.12571
2.17862
2.20092
2.21068
2.22231
2.23614
2.24867
2.26004
2.27072
2.28122
2.29193
2.30371
2.31699
2.33221
2.34939
2.36891
2.39086
2.41526
1.77423
1.7686
1.76321
1.75811
1.75341
1.74926
1.74609
1.745
1.74808
1.76162
1.79781
1.83967
1.87285
1.89122
1.89847
1.90146
1.90327
1.90437
1.90502
1.90566
1.90664
1.90828
1.9105
1.91336
1.91676
1.92071
1.92522
1.93028
1.93593
1.94208
1.77423
1.7686
1.7632
1.7581
1.75335
1.7491
1.74561
1.74355
1.74413
1.74917
1.76201
1.77646
1.79012
1.79669
1.79947
1.80057
1.80021
1.79949
1.79856
1.79766
1.79685
1.79619
1.79571
1.79545
1.79545
1.79576
1.79637
1.79726
1.79845
1.79995
1.77423
1.76859
1.7632
1.75808
1.75331
1.74898
1.74524
1.74261
1.74163
1.74332
1.74798
1.75356
1.75827
1.76068
1.76129
1.76098
1.76003
1.75888
1.75767
1.75645
1.75526
1.75413
1.75309
1.75217
1.75145
1.75092
1.75062
1.75047
1.75051
1.75073
1.77423
1.76859
1.7632
1.75807
1.75328
1.74889
1.74498
1.74203
1.74017
1.73997
1.74155
1.74323
1.74493
1.74482
1.744
1.74289
1.74157
1.74011
1.73867
1.73725
1.73587
1.73457
1.73335
1.73222
1.7312
1.73029
1.72953
1.7289
1.7284
1.72803
1.77422
1.76859
1.76319
1.75807
1.75326
1.74883
1.74487
1.74166
1.73935
1.7382
1.73818
1.73822
1.73791
1.73665
1.73516
1.73368
1.73218
1.7306
1.72909
1.72761
1.72619
1.72484
1.72357
1.72238
1.72127
1.72026
1.71932
1.71852
1.71781
1.71722
1.77422
1.76859
1.76319
1.75806
1.75325
1.7488
1.74479
1.7415
1.73898
1.73745
1.73678
1.73624
1.73504
1.7333
1.73152
1.72987
1.72829
1.72666
1.72511
1.72359
1.72214
1.72077
1.71947
1.71826
1.71713
1.71608
1.71511
1.71424
1.71347
1.71279
1.77415
1.7683
1.7625
1.75676
1.75109
1.74552
1.74008
1.7349
1.73008
1.72571
1.7217
1.71766
1.71325
1.70861
1.70409
1.69968
1.6953
1.69089
1.6866
1.68236
1.6782
1.67413
1.67015
1.66626
1.66245
1.65871
1.65503
1.65143
1.64788
1.6444
1.77415
1.7683
1.7625
1.75676
1.7511
1.74553
1.74011
1.73498
1.73027
1.72611
1.72245
1.71881
1.71473
1.71035
1.70598
1.70169
1.69739
1.69304
1.68881
1.68465
1.68057
1.67658
1.6727
1.6689
1.66518
1.66154
1.65796
1.65445
1.65099
1.6476
1.77415
1.7683
1.7625
1.75676
1.75111
1.74556
1.74018
1.73517
1.73071
1.72707
1.72429
1.72165
1.71842
1.71464
1.71068
1.70664
1.70251
1.69832
1.69427
1.69027
1.68637
1.68258
1.6789
1.6753
1.6718
1.66836
1.66499
1.66168
1.65842
1.65522
1.77415
1.7683
1.7625
1.75677
1.75112
1.7456
1.74031
1.7355
1.73154
1.72897
1.72808
1.72757
1.72608
1.72356
1.72044
1.71693
1.71314
1.70933
1.70563
1.70202
1.69854
1.69518
1.69193
1.68878
1.68572
1.68273
1.6798
1.67693
1.67409
1.67128
1.77415
1.7683
1.7625
1.75677
1.75114
1.74567
1.74051
1.73604
1.73299
1.73253
1.73605
1.74049
1.74265
1.74269
1.74128
1.73882
1.73574
1.73274
1.72982
1.72708
1.72458
1.7223
1.72021
1.71825
1.71637
1.71457
1.71279
1.71103
1.70925
1.70743
1.77415
1.7683
1.76251
1.75678
1.75117
1.74576
1.74078
1.73688
1.73544
1.73966
1.75453
1.77128
1.78225
1.78821
1.79038
1.79045
1.78951
1.78894
1.78853
1.78846
1.78886
1.7897
1.79089
1.7923
1.79384
1.79544
1.79698
1.79841
1.79968
1.80067
1.77415
1.7683
1.76251
1.75679
1.7512
1.74587
1.74116
1.73815
1.73971
1.75515
1.80189
1.84637
1.87871
1.9
1.9103
1.91636
1.92223
1.93075
1.94102
1.95305
1.96678
1.98168
1.99715
2.01257
2.02747
2.04155
2.05437
2.06578
2.07582
2.08425
1.77415
1.7683
1.76252
1.7568
1.75124
1.74599
1.74161
1.73982
1.74712
1.78815
1.92899
2.12037
2.21739
2.27359
2.31186
2.34022
2.37651
2.42406
2.49253
2.57457
2.66409
2.75297
2.83636
2.90947
2.97032
3.01759
3.05263
3.07662
3.09176
3.09758
1.77415
1.76831
1.76253
1.75683
1.75128
1.7461
1.74203
1.74179
1.75725
1.85262
2.02729
3.03991
3.7223
3.8907
4.54982
4.71225
4.83903
4.93425
4.99908
5.02351
5.02079
4.99938
4.95923
4.90379
4.83408
4.75347
4.67465
4.60133
4.53301
4.47085
1.77416
1.76832
1.76255
1.75686
1.75133
1.74619
1.74233
1.74325
1.76756
1.93766
2.4505
7.85329
13.6352
14.1213
12.1238
11.7336
11.2788
10.828
10.3822
9.97001
9.59733
9.2601
8.94677
8.66246
8.40997
8.18487
7.98222
7.7974
7.62537
7.46771
1.77415
1.76831
1.76254
1.75685
1.75132
1.74619
1.74234
1.74328
1.76775
1.93896
2.52091
9.16581
24.8782
28.261
13.2542
12.6501
12.0682
11.5091
10.9866
10.5171
10.0902
9.70408
9.34751
9.02473
8.73134
8.46638
8.22576
8.00607
7.80283
7.61662
1.77415
1.7683
1.76252
1.75681
1.75127
1.7461
1.74205
1.74188
1.75763
1.85531
2.17315
4.872
6.86649
6.79007
4.47873
4.50312
4.53534
4.56421
4.5816
4.58598
4.58016
4.56541
4.54155
4.50951
4.47162
4.4366
4.4046
4.376
4.35026
4.32783
1.77415
1.7683
1.76251
1.75681
1.75124
1.746
1.74164
1.73993
1.74749
1.79033
1.93975
2.16535
2.27499
2.33308
2.36043
2.36922
2.3816
2.40065
2.42125
2.44004
2.45721
2.47287
2.48721
2.5005
2.51337
2.52725
2.54233
2.55895
2.57768
2.59987
1.77415
1.7683
1.76251
1.7568
1.75121
1.74588
1.74119
1.73825
1.74005
1.7563
1.80717
1.86023
1.89945
1.92339
1.93396
1.93788
1.93908
1.94035
1.9411
1.94132
1.94137
1.94144
1.94167
1.94211
1.94286
1.94403
1.94574
1.94808
1.95107
1.95483
1.77415
1.7683
1.76251
1.75679
1.75117
1.74577
1.74082
1.73698
1.73571
1.7404
1.75679
1.77656
1.7902
1.79797
1.80084
1.80035
1.79801
1.79511
1.79181
1.78837
1.78495
1.78165
1.7785
1.77553
1.77277
1.77032
1.76816
1.76632
1.76478
1.76355
1.77415
1.7683
1.76251
1.75678
1.75115
1.74568
1.74054
1.73612
1.7332
1.73303
1.73723
1.74287
1.74611
1.74685
1.74573
1.74328
1.73985
1.73602
1.73205
1.728
1.72395
1.71995
1.71601
1.71217
1.70843
1.70481
1.70133
1.69801
1.69486
1.69193
1.77415
1.7683
1.7625
1.75677
1.75113
1.74562
1.74035
1.73557
1.73171
1.72933
1.72879
1.72879
1.72773
1.72552
1.72257
1.71913
1.71526
1.7111
1.70691
1.70267
1.69844
1.69425
1.6901
1.68603
1.68203
1.67811
1.67431
1.67061
1.66705
1.66363
1.77415
1.7683
1.7625
1.75677
1.75111
1.74557
1.74021
1.73523
1.73086
1.72736
1.72479
1.72241
1.71937
1.7157
1.7118
1.70779
1.70361
1.69928
1.69495
1.69061
1.6863
1.68203
1.67782
1.67368
1.66961
1.66561
1.6617
1.65787
1.65416
1.65055
1.77415
1.7683
1.7625
1.75676
1.7511
1.74555
1.74014
1.73505
1.7304
1.72635
1.72284
1.71936
1.71537
1.71099
1.70663
1.70234
1.69801
1.6936
1.6892
1.68482
1.68048
1.67618
1.67195
1.66778
1.66368
1.65966
1.6557
1.65182
1.64803
1.64436
1.77415
1.7683
1.7625
1.75676
1.7511
1.74553
1.74011
1.73496
1.7302
1.72592
1.72205
1.71812
1.71374
1.70908
1.70453
1.70013
1.69574
1.69129
1.68687
1.68247
1.67811
1.6738
1.66955
1.66537
1.66126
1.65722
1.65324
1.64935
1.64554
1.64184
1.77414
1.76829
1.76247
1.7567
1.75099
1.74534
1.73977
1.73438
1.72923
1.72436
1.71969
1.71497
1.70998
1.70484
1.69978
1.69479
1.68981
1.68478
1.67978
1.67481
1.66987
1.66496
1.6601
1.65528
1.65051
1.64578
1.6411
1.63646
1.63186
1.62733
1.77414
1.76829
1.76247
1.75671
1.75099
1.74535
1.73979
1.73444
1.72936
1.72464
1.7202
1.71573
1.71096
1.70599
1.70104
1.69612
1.69118
1.68618
1.68121
1.67627
1.67135
1.66648
1.66165
1.65686
1.65212
1.64743
1.64278
1.63816
1.6336
1.6291
1.77414
1.76829
1.76248
1.75671
1.751
1.74537
1.73984
1.73457
1.72968
1.72529
1.72141
1.7176
1.71338
1.7088
1.70411
1.69935
1.6945
1.68957
1.68468
1.6798
1.67496
1.67015
1.66539
1.66068
1.65602
1.6514
1.64682
1.64228
1.63778
1.63336
1.77414
1.76829
1.76248
1.75671
1.75101
1.7454
1.73993
1.7348
1.73024
1.72654
1.72384
1.72136
1.71825
1.71447
1.7103
1.70586
1.70122
1.69644
1.69171
1.68699
1.68232
1.67768
1.6731
1.66855
1.66405
1.65959
1.65517
1.65078
1.64643
1.64214
1.77414
1.76829
1.76248
1.75672
1.75103
1.74545
1.74008
1.73518
1.73121
1.72881
1.72856
1.72886
1.72793
1.72573
1.72261
1.71883
1.7146
1.71018
1.70577
1.70139
1.69708
1.69284
1.68867
1.68456
1.68049
1.67647
1.67246
1.66849
1.66454
1.66062
1.77415
1.76829
1.76248
1.75672
1.75105
1.74551
1.74028
1.73574
1.73279
1.73293
1.73823
1.74484
1.7485
1.74948
1.74834
1.74587
1.74252
1.73912
1.73559
1.73213
1.72879
1.72558
1.72248
1.71946
1.71649
1.71355
1.71064
1.70772
1.7048
1.70185
1.77415
1.76829
1.76248
1.75673
1.75107
1.74559
1.74053
1.73656
1.73529
1.74072
1.75961
1.78023
1.79379
1.80187
1.80527
1.8056
1.8044
1.80306
1.80171
1.80062
1.79984
1.79938
1.79916
1.79909
1.79909
1.79908
1.79901
1.79877
1.79838
1.79774
1.77415
1.7683
1.7625
1.75674
1.7511
1.74567
1.74083
1.73763
1.73914
1.7556
1.80827
1.85789
1.89299
1.91262
1.9228
1.9273
1.92984
1.93333
1.93794
1.94404
1.95153
1.96106
1.97149
1.98209
1.99237
2.00197
2.01042
2.01742
2.02305
2.02709
1.77415
1.76831
1.76252
1.75676
1.75112
1.74575
1.74111
1.73872
1.74419
1.77916
1.89805
2.05703
2.13537
2.17502
2.20965
2.23454
2.25858
2.28434
2.3139
2.34271
2.36758
2.38828
2.40597
2.41989
2.42867
2.43224
2.43341
2.43358
2.43321
2.43251
1.77416
1.76831
1.76253
1.75679
1.75115
1.7458
1.7413
1.73953
1.74826
1.80713
2.04797
2.38818
2.63241
2.70055
2.79796
2.88695
2.96293
3.0297
3.09204
3.14058
3.17674
3.20225
3.21966
3.22905
3.23053
3.22562
3.21623
3.20485
3.19399
3.18426
1.77416
1.76831
1.76251
1.75678
1.75115
1.7458
1.74131
1.73955
1.74835
1.80771
2.05133
2.41003
2.66842
2.73688
2.84164
2.93406
3.01608
3.09145
3.1526
3.1983
3.23247
3.25549
3.27039
3.27696
3.27577
3.26783
3.25431
3.23808
3.22199
3.20729
1.77415
1.7683
1.76249
1.75675
1.75112
1.74575
1.74113
1.73877
1.74438
1.78026
1.90333
2.07804
2.16391
2.20557
2.23647
2.25502
2.27273
2.29323
2.31609
2.33648
2.35467
2.3706
2.38368
2.39333
2.39984
2.40459
2.40816
2.41104
2.41375
2.41653
1.77415
1.76829
1.76249
1.75674
1.7511
1.74568
1.74085
1.7377
1.73937
1.75643
1.81247
1.86935
1.90869
1.93143
1.9429
1.94736
1.94823
1.94914
1.95023
1.95103
1.95179
1.95262
1.95349
1.95448
1.95553
1.95671
1.95809
1.9597
1.96159
1.96383
1.77415
1.76829
1.76248
1.75673
1.75107
1.7456
1.74056
1.73664
1.7355
1.74135
1.76169
1.78532
1.80152
1.81152
1.8161
1.81654
1.81463
1.81204
1.80878
1.80513
1.80133
1.79749
1.79369
1.79
1.78642
1.783
1.77977
1.77674
1.77395
1.77141
1.77415
1.76829
1.76248
1.75673
1.75105
1.74552
1.7403
1.73582
1.73297
1.73338
1.73939
1.74734
1.75228
1.75421
1.75358
1.75118
1.74755
1.74353
1.73913
1.73458
1.73
1.72543
1.72091
1.71645
1.71204
1.70772
1.70351
1.69939
1.6954
1.69157
1.77415
1.76829
1.76248
1.75672
1.75103
1.74546
1.74011
1.73524
1.73136
1.72915
1.72929
1.73021
1.72989
1.72818
1.72539
1.72179
1.71753
1.71291
1.70816
1.70333
1.69846
1.6936
1.68876
1.68395
1.67919
1.67447
1.66982
1.66524
1.66074
1.65634
1.77414
1.76829
1.76248
1.75671
1.75102
1.74541
1.73996
1.73487
1.73038
1.72681
1.72434
1.72218
1.71938
1.71587
1.7119
1.70758
1.70296
1.69811
1.69321
1.68827
1.68332
1.67837
1.67345
1.66856
1.66372
1.65891
1.65415
1.64945
1.64481
1.64026
1.77414
1.76829
1.76248
1.75671
1.751
1.74538
1.73987
1.73463
1.72979
1.72552
1.7218
1.71818
1.71413
1.70969
1.70511
1.70042
1.6956
1.69065
1.68568
1.68069
1.6757
1.67073
1.66578
1.66087
1.656
1.65118
1.64639
1.64165
1.63697
1.63237
1.77414
1.76829
1.76248
1.75671
1.751
1.74536
1.73982
1.73449
1.72947
1.72484
1.72052
1.71619
1.71152
1.70662
1.70173
1.69686
1.69195
1.68695
1.68195
1.67695
1.67195
1.66697
1.66202
1.6571
1.65223
1.64739
1.6426
1.63785
1.63315
1.62853
1.77414
1.76829
1.76247
1.75671
1.75099
1.74535
1.73979
1.73443
1.72933
1.72455
1.71999
1.71537
1.71045
1.70535
1.70033
1.6954
1.69044
1.68543
1.68042
1.6754
1.67039
1.66541
1.66046
1.65554
1.65066
1.64582
1.64102
1.63627
1.63157
1.62694
1.77414
1.76829
1.76247
1.7567
1.75098
1.74533
1.73973
1.73429
1.72904
1.72398
1.71906
1.7141
1.70898
1.70377
1.69861
1.69351
1.68841
1.68328
1.67817
1.67308
1.668
1.66295
1.65792
1.65292
1.64796
1.64302
1.63812
1.63325
1.62841
1.62363
1.77414
1.76829
1.76247
1.7567
1.75099
1.74533
1.73975
1.73434
1.72914
1.72418
1.7194
1.71462
1.70965
1.70456
1.69947
1.69441
1.68934
1.68423
1.67914
1.67406
1.669
1.66395
1.65894
1.65396
1.64901
1.64409
1.6392
1.63434
1.62951
1.62474
1.77414
1.76829
1.76247
1.75671
1.75099
1.74535
1.73979
1.73444
1.72936
1.72463
1.72021
1.71584
1.71123
1.70641
1.7015
1.69655
1.69154
1.68647
1.68142
1.67637
1.67134
1.66633
1.66135
1.6564
1.65148
1.64659
1.64173
1.63689
1.63209
1.62734
1.77414
1.76829
1.76248
1.75671
1.751
1.74537