/*--------------------------------*- C++ -*----------------------------------*\
| =========                 |                                                 |
| \\      /  F ield         | OpenFOAM: The Open Source CFD Toolbox           |
|  \\    /   O peration     | Version:  2512                                  |
|   \\  /    A nd           | Website:  www.openfoam.com                      |
|    \\/     M anipulation  |                                                 |
\*---------------------------------------------------------------------------*/
FoamFile
{
    version     2.0;
    format      ascii;
    arch        "LSB;label=32;scalar=64";
    class       volScalarField;
    location    "160";
    object      omega;
}
// * * * * * * * * * * * * * * * * * * * * * * * * * * * * * * * * * * * * * //

dimensions      [0 0 -1 0 0 0 0];

internalField   nonuniform List<scalar> 
90398
(
16.085
15.8162
15.5595
15.3166
15.0873
14.8739
14.6807
14.4852
14.32
14.1656
14.0302
13.9638
15.4643
26.8365
52.1395
91.0654
133.851
168.264
193.844
212.779
227.105
238.274
247.295
254.877
261.54
267.714
273.689
279.804
286.148
294.01
16.0851
15.8167
15.5605
15.318
15.0892
14.8757
14.6812
14.4865
14.3208
14.165
14.033
14.0419
17.2056
32.6398
61.7517
99.5938
138.291
169.539
193.265
211.155
224.872
235.67
244.455
251.884
258.462
264.587
270.553
276.672
283.068
290.877
16.0852
15.8172
15.5617
15.3199
15.0912
14.8773
14.6798
14.4894
14.3239
14.1671
14.0367
14.1673
19.4328
38.8506
70.4958
107.644
141.965
169.505
190.792
207.184
219.979
230.198
238.614
245.829
252.299
258.394
264.398
270.598
277.102
284.924
16.0853
15.8177
15.5633
15.3215
15.0928
14.8785
14.6819
14.4968
14.3257
14.1674
14.0395
14.3171
21.9685
45.0728
78.4696
113.358
143.361
167.362
186.189
200.946
212.663
222.175
230.141
237.108
243.475
249.589
255.709
262.087
268.787
276.674
16.0855
15.8181
15.5646
15.3228
15.0935
14.8778
14.6819
14.4996
14.3259
14.1682
14.0443
14.4512
24.8493
51.2968
84.9491
116.112
142.154
162.957
179.419
192.497
203.052
211.792
219.297
226.035
232.368
238.597
244.943
251.616
258.612
266.611
16.0857
15.8186
15.5654
15.3247
15.0961
14.876
14.6672
14.4978
14.3256
14.151
14.0494
14.6486
28.5704
57.9913
89.4759
116.668
138.826
156.448
170.488
181.808
191.16
199.16
206.292
212.943
219.418
225.952
232.702
239.808
247.195
255.334
16.0857
15.8188
15.5654
15.3249
15.0975
14.877
14.6658
14.492
14.3207
14.1959
14.1977
15.0197
34.5943
67.6243
95.7122
117.805
134.968
148.462
159.417
168.605
176.659
184.039
191.068
197.998
205.004
212.2
219.635
227.359
235.223
243.482
16.0858
15.8187
15.5628
15.3182
15.0929
14.8803
14.6674
14.4789
14.3212
28.3325
28.5849
31.1516
35.3509
79.7979
117.922
128.948
136.523
142.571
148.084
153.732
159.894
166.685
174.061
181.9
190.048
198.386
206.861
215.344
223.612
231.809
16.0858
15.8188
15.5623
15.3141
15.0848
14.8766
14.6719
14.482
28.6171
28.0265
44.5268
81.1809
93.0649
132.182
145.273
140.145
135.251
131.972
131.033
133.083
138.23
145.988
155.544
165.99
176.603
186.92
196.722
205.951
214.469
222.105
16.0858
15.8192
15.5651
15.3191
15.086
14.8757
14.6764
14.4828
28.5953
56.1256
204.346
556.317
425.336
364.032
115.771
108.54
105.017
104.834
108.05
114.795
124.607
136.437
149.031
161.369
172.865
183.302
192.695
201.157
208.733
215.273
16.0858
15.8191
15.5649
15.3188
15.0853
14.874
14.6727
14.4767
28.5705
56.0574
655.561
476.599
331.785
111.196
109.57
111.664
116.463
123.407
132.128
142.047
152.346
162.323
171.68
180.368
188.193
195.164
201.35
206.785
211.247
16.0858
15.8187
15.5619
15.3132
15.0826
14.8719
14.6624
14.4659
28.5391
27.8683
76.9834
89.315
83.1981
119.942
114.143
123.34
131.552
139.638
147.808
156.025
164.068
171.637
178.538
184.654
190.176
195.151
199.504
203.238
206.361
208.613
16.0858
15.8185
15.5622
15.3168
15.0895
14.8737
14.6545
14.4538
14.2594
28.1127
27.4916
27.0335
28.8388
69.0888
108.828
126.175
139.645
150.895
160.632
169.213
176.797
183.343
188.882
193.383
197.116
200.227
202.663
204.441
205.6
205.886
16.0857
15.8186
15.5646
15.323
15.0934
14.8689
14.6506
14.4622
14.2678
14.0935
13.9858
15.2975
33.6205
72.5293
102.385
124.737
141.936
155.644
166.92
176.36
184.256
190.685
195.692
199.326
201.839
203.578
204.515
204.688
204.173
202.733
16.0857
15.8183
15.5645
15.3225
15.0914
14.8669
14.6505
14.468
14.2832
14.0914
14.0325
16.0544
33.8084
70.3901
100.394
123.955
142.617
157.681
170.125
180.483
188.96
195.588
200.379
203.44
204.997
205.616
205.29
204.079
202.109
199.156
16.0855
15.8179
15.5638
15.3205
15.0885
14.8681
14.6647
14.472
14.2897
14.1275
14.0932
16.3101
32.9796
68.5254
98.4355
122.513
142.025
158.106
171.622
182.95
192.133
199.074
203.755
206.334
207.107
206.707
205.269
202.834
199.589
195.321
16.0853
15.8175
15.5624
15.3191
15.0874
14.8682
14.6643
14.4696
14.2913
14.133
14.1078
16.2639
31.8495
66.3324
96.0239
120.353
140.484
157.458
172.02
184.342
194.264
201.561
206.16
208.294
208.353
207.064
204.658
201.18
196.849
191.472
16.0852
15.8171
15.5609
15.3173
15.0853
14.8662
14.661
14.4614
14.2884
14.1314
14.0966
15.9847
30.1647
63.282
92.8421
117.342
138.006
155.838
171.459
184.814
195.511
203.185
207.746
209.482
208.92
206.923
203.715
199.386
194.183
187.922
16.0852
15.8166
15.5597
15.3153
15.083
14.8637
14.6611
14.4569
14.2837
14.1266
14.074
15.6027
28.159
59.8116
89.1791
113.709
134.743
153.326
169.998
184.436
195.95
204.026
208.595
210.026
208.972
206.496
202.715
197.767
191.937
185.051
16.085
15.8161
15.5585
15.3134
15.0801
14.8603
14.6581
14.4526
14.2797
14.1231
14.0486
15.2078
26.1201
56.5106
85.712
110.113
131.414
150.673
168.239
183.561
195.762
204.165
208.754
210.007
208.753
206.051
201.981
196.711
190.561
183.337
1.9389
2.07884
2.20285
2.31368
2.41342
2.50361
2.58638
2.66463
2.74029
2.80664
2.86611
2.93332
3.30377
5.05949
9.60445
17.7791
28.0516
37.5885
46.0262
53.2111
59.2666
64.3766
68.7225
72.465
75.7342
78.6411
81.2678
83.6738
85.9185
87.7535
1.93889
2.07884
2.20283
2.31362
2.41342
2.50365
2.58651
2.66506
2.74124
2.80682
2.86585
2.95171
3.54998
5.918
11.3763
19.8688
29.4823
38.5719
46.6485
53.5703
59.4383
64.4143
68.666
72.3368
75.5616
78.4336
81.046
83.455
85.7133
87.5891
1.93889
2.07885
2.20277
2.31352
2.41345
2.50374
2.58683
2.66601
2.74175
2.8059
2.86446
2.98226
3.85061
6.89416
13.0845
21.6363
30.6864
39.2557
46.8632
53.4275
59.0348
63.8224
67.9386
71.5121
74.667
77.4928
80.089
82.5079
84.7946
86.737
1.93889
2.07886
2.20272
2.31344
2.41346
2.50385
2.58734
2.66779
2.74151
2.80693
2.86809
3.02435
4.20387
7.95561
14.7111
23.0404
31.6158
39.5951
46.6876
52.846
58.1432
62.6971
66.6345
70.079
73.1334
75.9042
78.481
80.9207
83.2531
85.2884
1.93888
2.07885
2.20271
2.31335
2.41267
2.50382
2.59013
2.67461
2.75266
2.83749
2.91927
3.12341
4.692
9.1869
16.2966
24.3796
32.4118
39.7884
46.3341
52.0318
56.9543
61.2045
64.9071
68.163
71.089
73.7862
76.3376
78.8012
81.197
83.3492
1.9389
2.07887
2.2027
2.31327
2.41223
2.50353
2.59236
2.69028
2.78596
2.92352
3.07774
3.39184
5.69561
11.0678
18.4401
26.3037
33.7851
40.4915
46.3689
51.4572
55.8488
59.6544
62.9943
65.975
68.7166
71.3106
73.83
76.3239
78.7902
81.0738
1.93879
2.07892
2.20263
2.31301
2.41234
2.50373
2.58882
2.70162
2.84387
3.10545
3.50908
4.27158
8.7067
15.4425
23.599
31.2551
37.9
43.499
48.2106
52.2026
55.6241
58.6195
61.3193
63.8449
66.2935
68.7342
71.2119
73.744
76.2889
78.6916
1.93866
2.07873
2.20281
2.31327
2.41619
2.50683
2.59177
2.72089
2.95075
3.35261
5.07459
7.0509
13.2054
22.7536
41.637
47.0891
50.7675
53.2585
55.0285
56.4223
57.6919
59.0074
60.496
62.2282
64.2209
66.4547
68.9166
71.5084
74.1042
76.5727
1.93864
2.07852
2.20247
2.31362
2.41452
2.51209
2.60294
2.74878
3.03559
4.61812
16.8351
28.0309
55.5033
65.3317
102.907
91.2516
82.0459
74.8308
69.2743
65.177
62.4301
60.9759
60.7246
61.5038
63.088
65.2352
67.734
70.4163
73.1166
75.557
1.93863
2.07852
2.20203
2.31263
2.41145
2.51173
2.60878
2.76195
3.12593
5.63181
138.369
779.206
455.809
450.558
160.22
122.612
101.464
87.4096
77.2256
69.7539
64.6481
61.754
60.76
61.2505
62.7848
64.9669
67.5003
70.1881
72.8757
75.3803
1.93863
2.0785
2.20199
2.3125
2.41104
2.50876
2.60116
2.74752
3.10844
6.62737
788.354
165.957
123.269
98.5071
82.415
71.7689
65.1137
61.5088
60.1659
60.3635
61.5616
63.5378
65.9209
68.4717
71.0502
73.577
75.9704
1.93862
2.07847
2.20232
2.31322
2.41124
2.50107
2.58369
2.71739
2.97891
4.81664
19.9313
346.718
365.977
265.972
76.404
67.2124
61.1173
57.6203
56.1476
56.1354
57.1276
58.7635
60.7577
62.9139
65.2155
67.68
70.1414
72.5146
74.7903
76.977
1.93864
2.07864
2.20256
2.31261
2.41025
2.49933
2.58096
2.68054
2.80589
3.13196
3.98412
4.39166
9.31113
20.0079
29.7195
35.6476
40.3775
44.5155
48.3337
51.9602
55.4059
58.6578
61.6632
64.4053
66.9579
69.4558
71.8061
73.9697
75.9902
77.9594
1.93877
2.07881
2.2023
2.31216
2.4102
2.49893
2.57864
2.65147
2.72781
2.7986
2.88616
3.29357
5.9862
13.2364
21.2177
28.4786
34.9695
40.8092
46.1204
50.9772
55.3919
59.3588
62.8479
65.8773
68.4903
70.953
73.1896
75.1642
76.9493
78.7102
1.93884
2.07871
2.20229
2.31224
2.40983
2.49869
2.57697
2.6469
2.71361
2.76773
2.84321
3.29381
5.57095
12.1519
19.4481
26.6273
33.4131
39.7242
45.5778
50.9657
55.8614
60.2249
64.0182
67.2239
69.847
72.226
74.3341
76.124
77.6877
79.2389
1.93876
2.07864
2.20222
2.31217
2.40995
2.49803
2.5757
2.64438
2.7077
2.76033
2.83551
3.30266
5.40924
11.6498
18.712
25.8118
32.6847
39.2169
45.3792
51.1155
56.3553
61.0182
65.0461
68.3886
71.0391
73.3211
75.3023
76.9109
78.2594
79.6002
1.93874
2.07862
2.20218
2.31213
2.4105
2.49758
2.57481
2.64286
2.70514
2.75532
2.82906
3.28274
5.23897
11.1289
18.0764
25.1179
32.0363
38.7255
45.1358
51.1755
56.7255
61.664
65.8961
69.362
72.0342
74.2507
76.1322
77.5878
78.7375
79.8747
1.93874
2.07861
2.2022
2.31215
2.41034
2.49722
2.57417
2.64187
2.7039
2.75123
2.81982
3.23719
5.00259
10.4966
17.3378
24.319
31.2659
38.0933
44.7376
51.0717
56.9266
62.1307
66.561
70.1378
72.8265
75.043
76.8629
78.1995
79.1863
80.1426
1.93874
2.0786
2.20224
2.31219
2.4102
2.49698
2.57371
2.64131
2.70328
2.74839
2.81
3.17635
4.7289
9.79841
16.5147
23.4192
30.3759
37.3267
44.1928
50.8069
56.9507
62.4039
67.0143
70.6962
73.4
75.6956
77.5134
78.7816
79.6485
80.4752
1.93873
2.07858
2.20223
2.31219
2.41009
2.49676
2.57339
2.64092
2.70289
2.7463
2.80071
3.11296
4.45851
9.11907
15.7309
22.5694
29.543
36.5975
43.6333
50.4563
56.811
62.4497
67.1971
70.9671
73.7176
76.145
78.0084
79.2759
80.0796
80.8692
1.77769
1.77817
1.78094
1.78567
1.79222
1.80064
1.81124
1.82365
1.83819
1.85485
1.879
2.06633
3.15757
4.36201
6.68153
10.7746
16.0806
21.2702
25.9261
30.1091
33.831
37.1252
40.0384
42.622
44.9339
46.9995
48.8775
50.5796
52.1234
53.316
1.77769
1.77817
1.78095
1.78567
1.79221
1.80061
1.81122
1.82369
1.83846
1.85571
1.88989
2.27694
3.48783
4.81871
7.47695
11.7833
16.9527
21.8957
26.4141
30.4982
34.1452
37.3815
40.2495
42.8032
45.084
47.1365
49.0054
50.7097
52.2633
53.4788
1.7777
1.77819
1.78096
1.78567
1.79221
1.8006
1.81126
1.82388
1.83905
1.85758
1.90635
2.48043
3.72051
5.29624
8.39326
12.8755
17.7824
22.4534
26.7975
30.7449
34.2833
37.432
40.2346
42.7307
44.9628
46.9901
48.8423
50.549
52.1183
53.3709
1.77771
1.77821
1.78097
1.78567
1.79221
1.80059
1.81134
1.82422
1.84005
1.86129
1.9309
2.69261
3.95379
5.90425
9.43047
13.9405
18.5428
22.9979
27.1533
30.9372
34.334
37.3598
40.0624
42.4624
44.6282
46.6018
48.4246
50.1279
51.7141
53.0127
1.77772
1.77823
1.78099
1.78567
1.79213
1.8007
1.81158
1.82504
1.84322
1.87184
1.97631
2.96098
4.40873
6.86876
10.7441
15.1314
19.5655
23.8157
27.7536
31.3225
34.5134
37.3534
39.8771
42.1309
44.1754
46.057
47.8248
49.5092
51.1063
52.4527
1.77773
1.77825
1.781
1.78566
1.79204
1.80108
1.81218
1.82732
1.85141
1.90016
2.10538
3.61188
5.97129
8.92666
13.0365
17.3835
21.6568
25.6268
29.2191
32.4155
35.2402
37.7255
39.9269
41.9162
43.7464
45.4749
47.1472
48.7884
50.3823
51.7699
1.77774
1.77827
1.781
1.78563
1.79193
1.8004
1.81269
1.83001
1.86871
1.96328
2.41371
5.57393
10.8595
14.0933
18.7431
23.0825
26.8814
30.1167
32.8644
35.204
37.2055
38.9551
40.5424
42.0415
43.5114
44.9964
46.5214
48.0914
49.6652
51.0787
1.77775
1.77828
1.78102
1.78563
1.79186
1.80026
1.8135
1.83432
1.89918
2.12887
2.29984
5.56584
18.1108
24.448
37.031
39.2608
40.3984
40.9058
41.0827
41.1465
41.2421
41.4783
41.934
42.632
43.5744
44.7382
46.0882
47.5775
49.1216
50.5415
1.77776
1.77828
1.78101
1.7856
1.79178
1.79991
1.81289
1.83837
1.89208
2.27
3.73662
16.4537
49.1168
63.7226
95.5707
81.3635
70.4021
61.9015
55.2698
50.3215
46.8418
44.6845
43.6165
43.4112
43.855
44.7676
46.0045
47.4528
48.9868
50.3969
1.77776
1.77828
1.78098
1.78547
1.79151
1.79933
1.81112
1.83915
1.91402
2.45851
13.5781
725.401
375.654
449.609
190.585
134.111
102.032
80.5332
65.6187
55.6633
49.3943
45.8035
44.0787
43.6137
43.9872
44.907
46.171
47.6413
49.1903
50.6282
1.77776
1.77827
1.78096
1.78541
1.79136
1.79874
1.80904
1.8332
1.91021
2.63095
129.208
323.231
183.715
123.926
90.5013
69.9442
57.1639
49.603
45.4376
43.4806
42.8894
43.1744
44.0308
45.2433
46.6646
48.1971
49.7553
51.1907
1.77775
1.77826
1.78095
1.78542
1.79128
1.79844
1.80744
1.82557
1.8708
2.26731
3.32427
427.3
268.125
255.691
67.7272
55.6113
47.8875
43.3488
40.9363
39.9624
39.9549
40.5928
41.6179
42.8807
44.3215
45.8652
47.4489
49.0291
50.5711
51.969
1.77774
1.77825
1.78092
1.78536
1.7911
1.79816
1.80633
1.81812
1.84613
1.95357
2.07068
4.29769
18.4703
24.4159
24.8319
26.9525
28.8548
30.7761
32.7732
34.8539
36.9639
39.0753
41.106
43.0355
44.8904
46.6673
48.361
49.9559
51.457
52.7944
1.77773
1.77823
1.78088
1.78529
1.79104
1.79804
1.80597
1.81575
1.83122
1.87324
2.363
4.37442
6.85719
10.7948
15.1033
19.0422
22.7382
26.249
29.61
32.8252
35.8635
38.6818
41.2505
43.5567
45.6263
47.5319
49.2806
50.8545
52.296
53.556
1.77772
1.77821
1.78087
1.78526
1.79104
1.79805
1.80598
1.81549
1.82838
1.86726
2.41411
4.25711
5.83399
9.06347
12.8019
16.7151
20.6829
24.6143
28.4574
32.152
35.6387
38.848
41.7278
44.2606
46.4467
48.4069
50.1611
51.6934
53.058
54.2263
1.77771
1.77819
1.78084
1.78523
1.79105
1.79804
1.80611
1.81584
1.82835
1.86842
2.43931
4.24118
5.68144
8.56306
12.07
15.8702
19.8694
23.952
28.0308
32.0041
35.7658
39.2281
42.3202
44.9975
47.267
49.2574
50.9904
52.4685
53.7489
54.8179
1.7777
1.77817
1.78082
1.78521
1.79107
1.79809
1.80633
1.8164
1.82893
1.86902
2.43063
4.22505
5.6025
8.29549
11.6879
15.4077
19.4062
23.5811
27.8289
32.016
35.9997
39.6551
42.9106
45.6951
48.0246
50.0441
51.765
53.1861
54.3872
55.359
1.7777
1.77815
1.7808
1.78519
1.79106
1.79813
1.80652
1.81689
1.82951
1.86718
2.38249
4.13558
5.48926
8.03724
11.3422
14.9989
18.9992
23.2599
27.6615
32.0398
36.218
40.0437
43.4248
46.3045
48.6857
50.7403
52.4653
53.8497
54.9863
55.8722
1.7777
1.77815
1.7808
1.78521
1.79107
1.7982
1.80672
1.8173
1.83
1.86378
2.30937
3.99575
5.34176
7.75478
10.9649
14.5673
18.5784
22.9347
27.4809
32.0191
36.3575
40.3209
43.8021
46.7506
49.2
51.3028
53.0523
54.4264
55.5262
56.3516
1.77769
1.77814
1.78078
1.78519
1.79104
1.79821
1.8068
1.8175
1.83025
1.85959
2.22708
3.8371
5.18802
7.47446
10.5928
14.1578
18.1951
22.625
27.2784
31.9318
36.3517
40.3979
43.9481
46.9344
49.4573
51.6162
53.4041
54.7929
55.8841
56.6866
1.77422
1.76865
1.76343
1.75876
1.75486
1.75214
1.75116
1.75246
1.75677
1.76616
1.87102
2.75213
4.64784
6.47754
8.0001
10.6822
14.1105
17.5471
20.7677
23.7591
26.4998
28.9887
31.239
33.272
35.1127
36.7911
38.3204
39.7188
40.9825
41.9439
1.77423
1.76865
1.76344
1.75875
1.75484
1.75209
1.7511
1.75246
1.75702
1.76976
1.99054
3.16382
5.06852
6.51783
8.3131
11.1969
14.6353
17.9933
21.1629
24.1138
26.8207
29.2812
31.5076
33.5213
35.351
37.0175
38.5443
39.949
41.2206
42.197
1.77424
1.76867
1.76345
1.75876
1.75482
1.75205
1.75108
1.75259
1.75777
1.77653
2.12575
3.52396
5.41127
6.68142
8.83495
11.8712
15.2043
18.4558
21.5562
24.4471
27.101
29.5139
31.6984
33.6764
35.481
37.1259
38.6464
40.0539
41.3386
42.3397
1.77425
1.76869
1.76347
1.75876
1.7548
1.752
1.75107
1.75282
1.75902
1.7865
2.26424
3.84202
5.70475
7.08162
9.55434
12.641
15.8443
19.0192
22.0413
24.8533
27.4285
29.7647
31.8772
33.7944
35.5417
37.1481
38.6472
40.049
41.3437
42.3723
1.77426
1.76871
1.76349
1.75877
1.75476
1.75192
1.75102
1.75313
1.76097
1.80033
2.39848
4.12854
6.03202
7.80661
10.5677
13.6588
16.84
19.9383
22.8569
25.5452
27.986
30.1852
32.1705
33.9676
35.6129
37.1455
38.5935
39.9721
41.2654
42.3166
1.77427
1.76873
1.76352
1.75876
1.75471
1.7518
1.75093
1.75366
1.7644
1.82018
2.54634
4.55564
6.79691
9.3027
12.4245
15.64
18.7988
21.7571
24.4636
26.8992
29.0701
31.0016
32.7412
34.3184
35.7886
37.1907
38.5482
39.8768
41.1503
42.2122
1.77429
1.76875
1.76354
1.75875
1.75464
1.75164
1.75079
1.75442
1.77105
1.84889
2.78245
5.73299
9.39502
12.9113
16.7843
20.1118
22.998
25.4808
27.6197
29.4599
31.0521
32.4602
33.7398
34.9506
36.1417
37.3427
38.568
39.8196
41.0546
42.1126
1.77429
1.76877
1.76355
1.75872
1.75454
1.7514
1.75052
1.7552
1.78229
1.87932
2.12069
6.5786
15.0567
20.7133
28.6303
30.4645
31.6939
32.5418
33.1578
33.6481
34.0967
34.5685
35.1299
35.8181
36.6467
37.6076
38.6849
39.8516
41.041
42.0839
1.7743
1.76878
1.76356
1.75871
1.75441
1.75107
1.7499
1.75562
1.7955
1.97894
2.2463
13.6027
36.4209
50.3703
55.031
50.1764
46.1019
42.8579
40.3769
38.5676
37.3337
36.6313
36.4135
36.6098
37.1369
37.9239
38.9042
40.0179
41.1767
42.2028
1.77431
1.76879
1.76356
1.75869
1.7543
1.75071
1.74914
1.75476
1.80518
1.94789
3.01293
197.881
224.737
245.104
86.523
69.5529
57.6396
49.6067
44.2159
40.6785
38.4609
37.2398
36.783
36.8839
37.3903
38.1856
39.1789
40.2997
41.4586
42.4855
1.77431
1.76879
1.76354
1.75864
1.75418
1.75038
1.74809
1.75154
1.79369
1.94631
3.04464
464.279
250.555
310.959
76.8788
60.9978
50.622
44.1143
40.0631
37.6703
36.4237
35.9885
36.1182
36.6453
37.4487
38.4354
39.5401
40.7122
41.8848
42.9074
1.7743
1.76877
1.76351
1.75858
1.75407
1.75011
1.74712
1.74789
1.77203
1.91171
2.23931
95.088
132.573
149.969
39.4479
36.1387
34.1
33.0136
32.6576
32.8347
33.4043
34.2395
35.2484
36.3687
37.5589
38.7853
40.0231
41.2485
42.4255
43.4267
1.77429
1.76874
1.76348
1.75852
1.75401
1.74999
1.7468
1.74608
1.75901
1.85859
2.13504
5.87237
14.9954
21.529
20.8602
22.6103
24.3201
26.0459
27.8044
29.5893
31.3712
33.1173
34.7818
36.3603
37.8538
39.2693
40.6045
41.8573
43.0184
43.9775
1.77428
1.76872
1.76345
1.7585
1.75398
1.74998
1.74683
1.74589
1.75505
1.94784
3.2769
5.46098
7.85637
11.1027
14.323
17.2449
20.048
22.7729
25.4309
27.9995
30.4389
32.7135
34.7856
36.6462
38.3254
39.8537
41.2379
42.4868
43.608
44.5062
1.77427
1.76871
1.76342
1.75847
1.75397
1.75005
1.74709
1.74636
1.75587
1.99151
3.41798
5.73085
7.31919
9.70373
12.4048
15.2967
18.3098
21.3692
24.4193
27.3863
30.1918
32.7699
35.0916
37.1253
38.911
40.4906
41.8867
43.1056
44.1687
44.991
1.77426
1.76868
1.76339
1.75845
1.75397
1.75016
1.74744
1.74715
1.75745
2.01263
3.47882
5.84117
7.29598
9.33285
11.7716
14.5456
17.5798
20.7765
24.0401
27.2517
30.292
33.0694
35.5393
37.6815
39.5308
41.1375
42.5231
43.697
44.6942
45.4321
1.77425
1.76866
1.76336
1.75843
1.75399
1.75028
1.74781
1.74795
1.75843
2.00665
3.45545
5.85601
7.29393
9.19354
11.4962
14.1807
17.2087
20.5007
23.9237
27.3212
30.5362
33.4563
36.025
38.232
40.1261
41.7485
43.125
44.2544
45.1856
45.8392
1.77424
1.76865
1.76335
1.75843
1.75402
1.7504
1.74814
1.74865
1.75868
1.9786
3.35896
5.78306
7.27175
9.07569
11.2835
13.8992
16.9329
20.3188
23.8905
27.4531
30.8102
33.8331
36.4728
38.7186
40.6503
42.2901
43.663
44.7613
45.6385
46.217
1.77423
1.76864
1.76333
1.75841
1.75403
1.75047
1.74836
1.74912
1.7583
1.93746
3.20648
5.63864
7.204
8.91163
11.0323
13.6024
16.6495
20.1247
23.8391
27.5509
31.0199
34.1163
36.8007
39.0788
41.0414
42.709
44.0889
45.1739
46.0178
46.5395
1.77424
1.76864
1.76333
1.75842
1.75406
1.75056
1.74856
1.74955
1.7579
1.89338
3.02795
5.44557
7.07949
8.70234
10.7513
13.2747
16.3382
19.8842
23.6951
27.504
31.0583
34.1949
36.9053
39.211
41.2003
42.8975
44.2951
45.3796
46.2121
46.7033
1.77415
1.76835
1.76276
1.75751
1.75285
1.74914
1.74696
1.74703
1.75034
1.76819
2.1123
3.56556
5.8026
7.55006
9.23244
11.5231
14.1239
16.7349
19.2742
21.6782
23.9155
25.9749
27.8588
29.579
31.1523
32.5964
33.93
35.1572
36.2651
37.0969
1.77415
1.76836
1.76277
1.75751
1.75283
1.7491
1.7469
1.74701
1.75089
1.79243
2.36907
4.0849
6.21207
7.7283
9.5065
11.8819
14.4984
17.101
19.6253
22.0134
24.2348
26.2791
28.1496
29.8592
31.4254
32.8667
34.2034
35.4371
36.5548
37.3987
1.77416
1.76838
1.76279
1.75752
1.75281
1.74906
1.74687
1.74711
1.75215
1.83846
2.62445
4.50973
6.51554
7.93257
9.9014
12.3347
14.9194
17.5075
20.0105
22.3731
24.567
26.5838
28.4284
30.1159
31.6657
33.0999
34.4347
35.677
36.8093
37.6732
1.77417
1.7684
1.76281
1.75753
1.75279
1.749
1.74681
1.74726
1.75389
1.88673
2.8547
4.84771
6.73711
8.25702
10.4179
12.8818
15.46
18.0406
20.5162
22.84
24.9876
26.9543
28.7496
30.3925
31.9062
33.3171
34.6392
35.8831
37.0257
37.9108
1.77418
1.76842
1.76283
1.75753
1.75276
1.74892
1.74671
1.7474
1.756
1.93482
3.0509
5.10185
6.92626
8.77142
11.1399
13.6926
16.3198
18.8889
21.3176
23.5695
25.6287
27.4996
29.2004
30.7572
32.2014
33.557
34.845
36.0741
37.2153
38.1148
1.77419
1.76844
1.76285
1.75753
1.75271
1.74879
1.74654
1.74753
1.75849
1.97781
3.20493
5.25999
7.23419
9.70965
12.4255
15.1757
17.8589
20.3773
22.6914
24.7857
26.6653
28.3516
29.878
31.2814
32.6017
33.862
35.0846
36.2743
37.3967
38.2979
1.77421
1.76846
1.76286
1.75753
1.75264
1.74862
1.74628
1.74763
1.7614
2.01519
3.33118
5.3155
8.28577
11.7446
15.0341
18.0022
20.6362
22.9428
24.9554
26.7059
28.2347
29.5907
30.8266
31.9923
33.1231
34.2459
35.3737
36.502
37.5884
38.4772
1.77422
1.76849
1.76287
1.7575
1.75255
1.74839
1.74588
1.74753
1.76564
2.05411
3.62321
6.24337
11.4048
16.1978
20.2201
23.036
25.1696
26.8406
28.181
29.2846
30.2317
31.0931
31.9346
32.7972
33.7082
34.6775
35.7008
36.7616
37.8044
38.6714
1.77423
1.76851
1.76289
1.75749
1.75245
1.74812
1.74532
1.74693
1.76894
1.99774
2.70623
7.04611
16.9661
25.1664
28.8012
30.0609
30.8
31.2411
31.5287
31.7597
32.0229
32.3815
32.8587
33.4743
34.2225
35.0854
36.0374
37.0501
38.0572
38.9007
1.77424
1.76851
1.76291
1.75749
1.75238
1.74783
1.74463
1.74579
1.77056
2.02226
2.72846
10.1781
23.9921
35.4586
34.6124
34.6225
34.06
33.4498
32.9663
32.6861
32.6381
32.8235
33.2202
33.8075
34.5501
35.4112
36.3593
37.361
38.351
39.1775
1.77423
1.76851
1.76289
1.75745
1.75229
1.74759
1.74399
1.74409
1.76764
2.04354
2.7233
8.61419
23.1503
35.3202
32.1493
32.1182
31.7415
31.4478
31.3416
31.4649
31.8023
32.3297
33.0118
33.8197
34.717
35.6783
36.6797
37.6974
38.6796
39.4865
1.77423
1.7685
1.76285
1.75739
1.75219
1.74742
1.74355
1.74273
1.76491
2.09588
2.83123
6.603
17.8622
26.2313
24.0623
25.2407
26.2697
27.2551
28.2566
29.3025
30.392
31.5096
32.6351
33.7586
34.8699
35.9645
37.0335
38.0694
39.0376
39.8132
1.77422
1.76847
1.76281
1.75734
1.75214
1.74737
1.74345
1.74255
1.76904
2.27726
4.23761
6.11197
10.1218
14.1818
17.3694
19.7916
21.9199
23.8974
25.7846
27.5953
29.3194
30.9395
32.4433
33.8318
35.1194
36.3173
37.4326
38.4689
39.4063
40.1348
1.7742
1.76843
1.76279
1.75733
1.75213
1.74741
1.74363
1.74297
1.77708
2.36632
4.34397
6.27886
8.73036
11.5684
14.3204
16.9462
19.4922
21.9653
24.3647
26.6573
28.8006
30.7597
32.5189
34.0843
35.4845
36.7396
37.8678
38.8778
39.7652
40.4304
1.77419
1.76842
1.76277
1.7573
1.75214
1.74751
1.74397
1.74378
1.78605
2.44153
4.5603
6.94822
8.66312
10.8019
13.1634
15.6861
18.3296
21.0278
23.7145
26.304
28.7135
30.8859
32.8009
34.4675
35.9273
37.2011
38.3164
39.2803
40.1023
40.6903
1.77418
1.7684
1.76275
1.75729
1.75216
1.74764
1.74437
1.74468
1.79086
2.47223
4.6617
7.22931
8.79613
10.6317
12.7514
15.1502
17.7975
20.6215
23.4969
26.2921
28.882
31.1902
33.195
34.9128
36.3956
37.6689
38.7552
39.6639
40.4127
40.9163
1.77417
1.76838
1.76273
1.75727
1.75218
1.74777
1.74478
1.74547
1.78786
2.44816
4.64288
7.32076
8.90049
10.6111
12.5845
14.8876
17.5356
20.462
23.4945
26.4505
29.1694
31.5653
33.6174
35.3563
36.843
38.1091
39.1659
40.0192
40.6958
41.1148
1.77416
1.76837
1.7627
1.75726
1.7522
1.74788
1.74511
1.74606
1.7812
2.37949
4.52402
7.29934
8.94985
10.5879
12.4548
14.6986
17.375
20.4092
23.5809
26.6638
29.477
31.9257
33.9957
35.7411
37.2296
38.4869
39.5242
40.3313
40.9456
41.2873
1.77416
1.76837
1.76271
1.75727
1.75225
1.74802
1.74542
1.74657
1.77361
2.28132
4.32373
7.17883
8.9387
10.5003
12.2929
14.517
17.2514
20.3928
23.6758
26.845
29.7088
32.1815
34.2581
36.0067
37.5007
38.7578
39.7868
40.5643
41.1327
41.4134
1.77415
1.76835
1.76269
1.75726
1.75226
1.74808
1.7456
1.74688
1.76673
2.1744
4.07875
6.97822
8.84898
10.3488
12.0947
14.3266
17.1137
20.3244
23.6647
26.8663
29.7534
32.2332
34.3138
36.0721
37.5767
38.842
39.8706
40.6366
41.1811
41.4257
1.77414
1.76835
1.76274
1.75746
1.75274
1.74895
1.74663
1.74649
1.75048
1.8208
2.52564
4.4654
6.89354
8.62379
10.3623
12.4727
14.6873
16.9158
19.0973
21.176
23.1223
24.9242
26.5818
28.1048
29.5071
30.8041
32.01
33.1279
34.1389
34.8857
1.77415
1.76835
1.76275
1.75745
1.75272
1.7489
1.74656
1.74648
1.75259
1.90351
2.92129
5.04111
7.28922
8.82689
10.6354
12.7817
15.0121
17.2482
19.4283
21.5016
23.4404
25.2342
26.8849
28.4033
29.8043
31.104
32.3165
33.4453
34.467
35.2257
1.77416
1.76837
1.76276
1.75746
1.75271
1.74886
1.74651
1.7466
1.75688
2.00563
3.27393
5.49871
7.57855
9.05697
10.9722
13.1341
15.3715
17.6219
19.8015
21.8655
23.7905
25.5689
27.2053
28.7127
30.1082
31.409
32.6293
33.7732
34.8121
35.5905
1.77417
1.76839
1.76278
1.75747
1.75269
1.74881
1.74645
1.74678
1.7634
2.1124
3.57428
5.83932
7.76274
9.34477
11.3617
13.5563
15.8359
18.1064
20.2846
22.3321
24.231
25.9788
27.5848
29.0661
30.443
31.7345
32.9563
34.1092
35.1631
35.9617
1.77418
1.76841
1.76281
1.75748
1.75266
1.74873
1.74633
1.74694
1.7717
2.21274
3.81301
6.05346
7.86213
9.69859
11.8726
14.1852
16.5365
18.8291
20.9934
23.0035
24.849
26.5358
28.081
29.5082
30.8418
32.1034
33.3095
34.4586
35.5163
36.3274
1.77419
1.76843
1.76283
1.75748
1.75262
1.74861
1.74614
1.74706
1.78273
2.29955
3.98094
6.10249
7.90058
10.2523
12.7225
15.2241
17.6632
19.958
22.0737
23.9976
25.7357
27.3082
28.7439
30.0748
31.33
32.5343
33.6993
34.8246
35.8694
36.6802
1.77421
1.76845
1.76284
1.75748
1.75256
1.74846
1.74588
1.74708
1.79334
2.37514
4.10115
6.01937
8.38087
11.3176
14.197
16.9154
19.4084
21.6424
23.6241
25.3723
26.9186
28.3032
29.5695
30.7573
31.8988
33.0179
34.1206
35.202
36.2166
37.0129
1.77423
1.76848
1.76285
1.75747
1.75249
1.74827
1.74552
1.7469
1.80159
2.44939
4.24695
6.0592
9.52269
13.1518
16.4995
19.362
21.7782
23.8102
25.5258
26.9867
28.2586
29.394
30.4527
31.4739
32.4896
33.5125
34.5444
35.5733
36.5473
37.318
1.77423
1.76851
1.76288
1.75745
1.75242
1.74806
1.74506
1.74654
1.80861
2.53195
4.51677
6.72564
11.1928
15.4724
19.2751
22.0595
24.202
25.8913
27.2521
28.3901
29.3833
30.2954
31.1858
32.0839
33.0065
33.9596
34.9353
35.9173
36.851
37.5912
1.77424
1.76851
1.7629
1.75746
1.75236
1.74785
1.7446
1.74593
1.81705
2.60937
4.78318
7.2368
12.1962
16.8381
20.889
23.5598
25.4541
26.8783
28.0183
28.9917
29.8783
30.7308
31.5918
32.4739
33.384
34.3202
35.2729
36.2249
37.1249
37.8343
1.77424
1.76851
1.76289
1.75743
1.7523
1.74769
1.74423
1.74546
1.82876
2.688
4.95693
7.29217
12.0818
16.542
20.3591
22.9064
24.7743
26.2517
27.5054
28.628
29.6788
30.6889
31.6824
32.6624
33.637
34.6052
35.5619
36.4965
37.3649
38.0389
1.77423
1.7685
1.76285
1.75738
1.75224
1.74761
1.74407
1.74563
1.84623
2.78593
5.0479
7.09694
11.0924
14.9683
18.2719
20.787
22.8695
24.6745
26.2934
27.7791
29.1584
30.4466
31.6504
32.7789
33.8465
34.8609
35.8276
36.7423
37.573
38.2027
1.77422
1.76847
1.76281
1.75736
1.75222
1.74761
1.74418
1.74642
1.86986
2.8982
5.17912
7.05358
10.0624
13.218
16.1216
18.7035
21.0429
23.1934
25.1918
27.0448
28.7467
30.2925
31.6877
32.9454
34.0871
35.1308
36.0912
36.9707
37.7502
38.3234
1.77421
1.76843
1.76279
1.75734
1.75222
1.7477
1.74448
1.74759
1.89369
3.01469
5.45184
7.42775
9.77845
12.3103
14.8686
17.3856
19.8525
22.2402
24.522
26.6558
28.601
30.3351
31.8609
33.1982
34.3774
35.4235
36.3561
37.1832
37.8962
38.3998
1.77419
1.76842
1.76278
1.75732
1.75224
1.74783
1.74491
1.74877
1.91025
3.10188
5.70789
8.08876
9.96551
12.0675
14.3329
16.7283
19.2314
21.7675
24.2502
26.5863
28.6991
30.5512
32.1455
33.5133
34.6959
35.7223
36.6123
37.3745
38.0105
38.4351
1.77418
1.7684
1.76275
1.75731
1.75228
1.748
1.74538
1.74964
1.91354
3.13385
5.8681
8.55896
10.2634
12.1075
14.1581
16.4405
18.9523
21.6078
24.2455
26.7293
28.9533
30.8708
32.4906
33.8564
35.0198
36.011
36.8507
37.5421
38.0959
38.4366
1.77417
1.76838
1.76273
1.7573
1.75231
1.74815
1.74582
1.75006
1.9008
3.08873
5.87357
8.752
10.4966
12.2134
14.1238
16.3437
18.8975
21.6652
24.4269
27.0044
29.2839
31.2231
32.836
34.1804
35.3168
36.2722
37.0613
37.6844
38.1571
38.4148
1.77417
1.76837
1.76272
1.7573
1.75236
1.74831
1.74622
1.75016
1.87598
2.97509
5.75091
8.79472
10.658
12.3034
14.137
16.3629
18.9996
21.8754
24.7202
27.3344
29.6139
31.5363
33.124
34.4428
35.5555
36.4826
37.2314
37.7948
38.195
38.377
1.77416
1.76836
1.7627
1.75729
1.75237
1.7484
1.74649
1.75011
1.8456
2.81038
5.52001
8.71407
10.7518
12.3653
14.1764
16.4405
19.1658
22.1237
25.0031
27.6049
29.8484
31.7351
33.2972
34.5999
35.6993
36.6102
37.3327
37.8522
38.1981
38.3179
1.77416
1.76836
1.76271
1.75731
1.75242
1.74852
1.74675
1.75012
1.81671
2.62507
5.22125
8.51995
10.7352
12.3715
14.185
16.4743
19.2499
22.2362
25.1064
27.6731
29.8824
31.7438
33.2955
34.5966
35.6954
36.6022
37.3135
37.8093
38.1266
38.2091
1.77414
1.76834
1.76274
1.75744
1.75271
1.74888
1.74649
1.74628
1.75328
1.93048
3.03155
5.31899
7.83139
9.57285
11.3674
13.4022
15.4577
17.5023
19.4885
21.3751
23.1401
24.7749
26.2818
27.671
28.9567
30.1534
31.274
32.319
33.2636
33.9521
1.77415
1.76835
1.76274
1.75744
1.75269
1.74884
1.74643
1.74639
1.76267
2.097
3.53437
5.9261
8.22989
9.82005
11.6558
13.7023
15.7697
17.8231
19.8111
21.696
23.4572
25.0883
26.5929
27.9827
29.2725
30.4772
31.609
32.668
33.6261
34.3271
1.77416
1.76837
1.76276
1.75745
1.75269
1.74881
1.74639
1.74678
1.78287
2.27798
3.96159
6.40324
8.51992
10.0726
11.9695
14.0201
16.1052
18.1778
20.1719
22.0547
23.8097
25.4338
26.9336
28.3227
29.6176
30.8336
31.9821
33.0621
34.0418
34.7637
1.77417
1.76839
1.76278
1.75746
1.75268
1.74877
1.74633