/*--------------------------------*- C++ -*----------------------------------*\
| =========                 |                                                 |
| \\      /  F ield         | OpenFOAM: The Open Source CFD Toolbox           |
|  \\    /   O peration     | Version:  2512                                  |
|   \\  /    A nd           | Website:  www.openfoam.com                      |
|    \\/     M anipulation  |                                                 |
\*---------------------------------------------------------------------------*/
FoamFile
{
    version     2.0;
    format      ascii;
    arch        "LSB;label=32;scalar=64";
    class       volScalarField;
    location    "160";
    object      p;
}
// * * * * * * * * * * * * * * * * * * * * * * * * * * * * * * * * * * * * * //

dimensions      [0 2 -2 0 0 0 0];

internalField   nonuniform List<scalar> 
90398
(
231.675
231.499
231.046
230.294
229.221
227.747
225.746
223.07
219.574
215.178
209.98
204.412
199.301
195.365
192.573
190.201
186.534
179.153
168.194
155.297
141.594
127.697
113.994
100.751
88.0097
75.9853
63.701
52.7956
34.3638
28.9069
231.752
231.58
231.139
230.407
229.363
227.926
225.969
223.328
219.839
215.381
210.022
204.264
199.145
195.418
192.752
190.081
185.752
177.887
166.763
153.818
140.09
126.185
112.481
99.2306
86.4813
74.4333
62.1834
51.2201
33.263
27.3286
231.902
231.739
231.322
230.631
229.644
228.285
226.416
223.857
220.391
215.811
210.101
203.892
198.734
195.428
192.976
189.747
184.242
175.558
164.166
151.157
137.407
123.502
109.804
96.5514
83.7928
71.7224
59.5233
48.5531
31.2562
25.0413
232.121
231.972
231.59
230.959
230.061
228.821
227.103
224.693
221.3
216.545
210.19
203.128
197.921
195.268
193.107
189.025
182.061
172.42
160.705
147.609
133.837
119.944
106.263
93.0066
80.2343
68.137
56.0047
45.0433
28.619
22.1291
232.404
232.272
231.935
231.382
230.603
229.534
228.045
225.898
222.699
217.733
210.207
201.584
196.4
194.755
193.059
187.959
179.439
168.886
156.876
143.684
129.879
115.994
102.319
89.0438
76.2403
64.1014
52.0425
41.1026
25.7008
18.902
232.74
232.63
232.346
231.888
231.258
230.416
229.265
227.558
224.814
219.718
210.071
198.626
193.684
193.669
193.168
187.071
176.749
165.27
152.991
139.684
125.822
111.923
98.2302
84.9032
72.0427
59.8433
47.8606
36.9579
22.6759
15.5553
233.121
233.033
232.809
232.457
232.001
231.442
230.768
229.814
228.044
222.996
209.487
193.174
188.894
191.186
193.644
186.72
174.541
162.299
149.776
136.261
122.242
108.238
94.4306
80.9597
67.9627
55.644
43.7069
32.8375
19.7104
12.2779
233.534
233.47
233.308
233.068
232.796
232.556
232.496
232.796
233.461
228.97
213.262
188.565
183.304
186.934
196.201
186.489
172.134
159.573
146.953
133.151
118.878
104.687
90.6912
77.0226
63.8628
51.4281
39.5586
28.7611
16.8022
9.15854
233.967
233.926
233.825
233.69
233.594
233.665
234.272
236.159
237.935
243.818
212.428
165.512
171.768
177.26
205.487
190.658
173.013
159.889
146.846
132.266
117.229
102.39
87.8175
73.6534
60.1265
47.4547
35.599
24.8886
14.0604
6.28799
234.408
234.388
234.341
234.299
234.347
234.652
235.788
239.103
246.1
265.522
209.93
125.193
154.382
159.615
211.743
192.932
173.043
159.475
146.053
130.817
115.136
99.7464
84.6913
70.1279
56.3252
43.5023
31.737
21.1849
11.533
3.62905
234.846
234.844
234.842
234.872
235.015
235.435
236.684
240.074
249
288.633
212.751
160.854
148.973
212.75
192.886
172.454
158.779
145.034
129.281
113.006
96.9894
81.3702
66.3955
52.3653
39.4734
27.897
17.6027
9.24978
1.14877
235.269
235.282
235.316
235.399
235.588
236.008
236.989
239.201
244.639
255.596
199.113
176.578
171.745
165.529
205.628
189.656
171.374
157.541
143.182
126.93
110.137
93.5714
77.4902
62.2287
48.1167
35.2994
24.0289
14.0956
7.00555
-1.09535
235.668
235.693
235.754
235.87
236.071
236.412
237.005
237.953
238.964
239.669
218.652
197.476
190.781
191.201
202.037
189.991
173.201
158.059
142.52
125.588
108.138
90.8925
74.2584
58.637
44.374
31.5783
20.5707
10.9832
4.98396
-2.93959
236.035
236.069
236.151
236.287
236.48
236.725
236.99
237.078
236.363
232.542
221.663
208.928
203.461
203.289
201.494
190.213
174.02
158.014
141.715
124.285
106.25
88.3577
71.2042
55.2635
40.8935
28.173
17.4505
8.22016
3.16904
-4.45018
236.363
236.404
236.501
236.65
236.832
237.001
237.051
236.715
235.45
231.941
224.481
215.309
209.7
206.899
201.579
189.84
174.254
158.06
141.299
123.396
104.772
86.2352
68.5422
52.2722
37.8142
25.1988
14.763
5.88076
1.62709
-5.64027
236.646
236.692
236.8
236.96
237.136
237.257
237.189
236.67
235.244
232.147
226.666
219.692
213.921
209.216
201.803
189.649
174.489
158.287
141.182
122.815
103.603
84.4321
66.2239
49.6673
35.1474
22.6424
12.4832
3.93557
0.339667
-6.55909
236.878
236.928
237.046
237.215
237.389
237.486
237.364
236.783
235.375
232.642
228.208
222.41
216.498
210.564
201.951
189.55
174.701
158.603
141.293
122.517
102.745
82.976
64.2897
47.4791
32.9263
20.5464
10.6418
2.38865
-0.686154
-7.23944
237.056
237.11
237.234
237.411
237.587
237.676
237.537
236.949
235.607
233.132
229.272
224.102
218.098
211.369
202.048
189.543
174.965
159.026
141.596
122.46
102.165
81.8541
62.7556
45.7399
31.1781
18.9214
9.23757
1.22566
-1.45709
-7.73079
237.176
237.232
237.362
237.544
237.724
237.811
237.67
237.093
235.812
233.5
229.939
225.058
218.943
211.717
202.045
189.564
175.225
159.445
141.955
122.536
101.805
81.0607
61.6691
44.5255
29.9765
17.8232
8.30945
0.469126
-1.94409
-8.06774
237.237
237.295
237.427
237.613
237.795
237.884
237.744
237.177
235.928
233.691
230.249
225.454
219.235
211.742
201.95
189.563
175.429
159.781
142.26
122.662
101.647
80.6215
61.0615
43.8631
29.3375
17.2461
7.83965
0.0710756
-2.13768
-8.3594
231.678
231.504
231.05
230.298
229.224
227.748
225.749
223.076
219.581
215.184
209.966
204.326
199.041
194.637
190.904
187.044
181.788
173.159
160.966
147.227
133.132
119.149
105.518
92.406
79.7618
67.8541
55.5427
44.9744
26.5645
24.1529
231.755
231.585
231.143
230.412
229.366
227.926
225.968
223.329
219.839
215.38
210.01
204.182
198.877
194.683
191.053
186.952
181.23
172.283
160.107
146.47
132.43
118.469
104.843
91.708
79.0607
67.1276
54.8783
44.1907
26.4058
23.0222
231.906
231.744
231.326
230.634
229.646
228.28
226.409
223.847
220.377
215.8
210.099
203.826
198.451
194.616
191.176
186.631
180.016
170.405
158.214
144.735
130.812
116.925
103.323
90.1946
77.5579
65.6004
53.4073
42.6862
25.536
21.5793
232.125
231.977
231.594
230.962
230.059
228.811
227.084
224.665
221.26
216.511
210.211
203.125
197.657
194.383
191.152
185.871
178.084
167.76
155.549
142.223
128.44
114.66
101.11
88.0049
75.3669
63.3728
51.2431
40.4922
24.1681
19.5839
232.408
232.277
231.938
231.384
230.599
229.516
228.008
225.835
222.602
217.646
210.286
201.728
196.243
193.81
190.907
184.778
175.707
164.795
152.569
139.36
125.703
112.009
98.5205
85.4308
72.7593
60.7103
48.6497
37.8784
22.5267
17.2584
232.745
232.635
232.349
231.888
231.249
230.385
229.195
227.427
224.59
219.475
210.247
199.064
193.789
192.616
190.831
183.852
173.327
161.831
149.556
136.4
122.792
109.158
95.7082
82.5801
69.8408
57.7109
45.7203
34.9492
20.6772
14.7252
233.126
233.038
232.812
232.456
231.987
231.395
230.648
229.556
227.549
222.404
209.835
194.236
189.711
190.185
191.206
183.471
171.397
159.411
147.065
133.826
120.164
106.503
92.9707
79.6839
66.7867
54.5219
42.5843
31.8319
18.703
12.1143
233.54
233.476
233.311
233.063
232.775
232.491
232.309
232.316
232.303
228.287
213.963
190.216
185.532
186.42
194.118
183.778
169.763
157.46
145.008
131.557
117.716
103.876
90.0958
76.5409
63.4307
51.0277
39.1787
28.5115
16.5796
9.4809
233.975
233.933
233.829
233.687
233.568
233.581
234.007
235.382
236.908
239.98
212.434
175.575
177.686
177.434
204.335
188.553
171.121
158.161
145.257
131.124
116.647
102.209
87.8367
73.7488
60.248
47.6054
35.7907
25.2006
14.4394
6.93305
234.418
234.397
234.347
234.299
234.326
234.568
235.47
238.031
243.723
259.207
205.533
80.8374
165.815
126.753
213.92
192.98
171.857
158.005
144.764
130.105
114.999
99.8881
84.8673
70.2704
56.4749
43.7277
32.0876
21.7094
12.1915
4.3943
234.857
234.855
234.851
234.875
234.997
235.359
236.388
239.055
246.302
278.51
80.6075
212.724
192.573
171.517
157.54
143.631
127.975
111.854
95.9377
80.4374
65.6537
51.8906
39.3155
28.0649
18.0632
9.91158
1.90333
235.282
235.295
235.328
235.406
235.584
235.957
236.779
238.534
242.97
250.561
206.023
154.725
176.867
130.669
204.929
187.751
169.476
155.513
140.888
124.67
108.136
91.8425
76.0788
61.1847
47.438
35.011
24.1395
14.5271
7.66465
-0.409524
235.683
235.708
235.77
235.886
236.078
236.389
236.895
237.624
238.143
238.363
221.42
199.648
193.332
190.34
199.648
186.336
169.85
154.958
139.501
122.816
105.783
88.9487
72.7504
57.576
43.6886
31.2884
20.7061
11.4336
5.68326
-2.3434
236.052
236.087
236.17
236.309
236.501
236.735
236.965
236.981
236.152
232.493
222.732
210.188
203.771
201.08
198.231
185.945
170.032
154.486
138.479
121.366
103.694
86.2199
69.5903
54.1573
40.2132
27.9069
17.6257
8.69889
3.9216
-3.93969
236.382
236.424
236.524
236.679
236.868
237.041
237.088
236.75
235.489
232.11
225.151
216.005
209.338
204.214
197.669
185.27
169.957
154.239
137.818
120.249
101.999
83.8795
66.6993
50.9899
37.0679
24.9493
14.9992
6.40698
2.44222
-5.1984
236.667
236.714
236.827
236.995
237.182
237.319
237.27
236.783
235.409
232.437
227.192
220.125
213.34
206.344
197.609
184.935
169.995
154.215
137.445
119.391
100.558
81.8418
64.1782
48.2641
34.3513
22.3838
12.7808
4.54342
1.24406
-6.1586
236.901
236.953
237.076
237.255
237.445
237.564
237.475
236.942
235.605
232.986
228.682
222.731
215.843
207.661
197.674
184.791
170.098
154.34
137.31
118.806
99.3941
80.1371
62.0649
45.9638
32.1095
20.3286
11.0195
3.09113
0.32601
-6.85048
237.08
237.135
237.267
237.455
237.65
237.766
237.666
237.137
235.873
233.505
229.728
224.371
217.43
208.505
197.811
184.844
170.358
154.661
137.433
118.513
98.5617
78.7918
60.3978
44.1756
30.3753
18.7822
9.7371
2.04848
-0.319464
-7.32055
237.201
237.259
237.396
237.592
237.791
237.909
237.812
237.299
236.099
233.888
230.384
225.312
218.297
208.949
197.968
185.037
170.721
155.101
137.746
118.472
98.0345
77.8574
59.2651
42.9932
29.2441
17.7982
8.96582
1.4509
-0.648668
-7.60273
237.263
237.322
237.462
237.662
237.865
237.985
237.891
237.39
236.223
234.081
230.68
225.693
218.588
209.049
198.104
185.284
171.132
155.562
138.087
118.581
97.8151
77.3408
58.6313
42.3596
28.6717
17.3207
8.64507
1.18033
-0.628103
-7.92276
231.687
231.514
231.059
230.308
229.237
227.764
225.769
223.098
219.608
215.213
209.987
204.305
198.922
194.208
189.603
183.774
174.981
163.559
150.026
136.348
122.8
109.432
96.3513
83.6948
71.3536
59.6654
47.4068
37.5883
19.316
21.5644
231.764
231.595
231.152
230.421
229.376
227.938
225.981
223.341
219.852
215.396
210.032
204.174
198.742
194.107
189.331
182.997
174.239
163.242
150.136
136.614
123.077
109.684
96.5678
83.8489
71.4512
59.7256
47.5452
37.4892
19.9572
20.7376
231.915
231.754
231.335
230.642
229.652
228.284
226.409
223.84
220.365
215.797
210.136
203.871
198.378
193.929
188.95
181.876
173.06
162.176
149.549
136.299
122.867
109.509
96.3653
83.5835
71.145
59.3688
47.2216
37.0475
20.0874
19.8821
232.135
231.987
231.602
230.968
230.06
228.803
227.063
224.623
221.199
216.468
210.289
203.301
197.773
193.635
188.382
180.741
171.64
160.679
148.423
135.44
122.151
108.856
95.7064
82.8442
70.3595
58.5006
46.3642
36.0517
19.8312
18.4671
232.419
232.288
231.946
231.387
230.593
229.492
227.953
225.731
222.439
217.517
210.449
202.179
196.686
192.964
187.741
179.929
170.205
159.168
147.138
134.345
121.168
107.896
94.6823
81.7469
69.1739
57.1889
45.0676
34.614
19.2851
16.6555
232.756
232.646
232.358
231.89
231.235
230.338
229.083
227.211
224.21
219.117
210.597
199.999
194.859
191.771
187.872
179.731
169.143
157.902
145.942
133.204
120.015
106.675
93.3497
80.2738
67.5452
55.3893
43.2879
32.7242
18.4186
14.5322
233.139
233.05
232.82
232.456
231.964
231.317
230.45
229.129
226.745
221.493
210.516
196.209
191.877
190.012
189.017
180.391
168.811
157.298
145.256
132.345
118.952
105.371
91.7936
78.4493
65.4628
53.1076
41.0387
30.4199
17.2474
12.1999
233.555
233.489
233.32
233.061
232.741
232.38
231.995
231.53
230.463
225.904
213.913
192.888
188.447
186.059
192.598
181.849
168.914
157.135
144.854
131.569
117.726
103.694
89.6999
75.9735
62.7144
50.2042
38.2512
27.6885
15.7551
9.72739
233.992
233.949
233.841
233.687
233.53
233.441
233.564
234.122
234.429
234.249
217.107
179.229
181.194
175.488
200.836
185.91
170.344
158.146
145.373
131.275
116.643
101.898
87.2841
73.0753
59.5354
46.9078
35.1266
24.7017
14.0523
7.21679
234.437
234.416
234.363
234.303
234.292
234.425
234.948
236.385
239.309
245.302
220.363
3.17545
168.423
132.282
208.562
190.52
171.783
158.561
144.953
129.853
114.296
98.8401
83.718
69.2161
55.5931
43.038
31.5881
21.4423
12.1469
4.67355
234.88
234.877
234.872
234.888
234.975
235.233
235.907
237.506
241.479
253.794
164.632
122.338
205.075
188.853
170.391
156.627
142.169
126.258
110.086
94.2595
79.0203
64.5541
51.1017
38.8141
27.8349
18.0792
10.1872
2.19391
235.309
235.322
235.356
235.43
235.584
235.881
236.448
237.507
239.985
242.192
230.144
114.735
188.766
149.995
204.219
185.749
168.005
153.742
138.705
122.549
106.245
90.2236
74.8114
60.2691
46.8867
34.8028
24.2531
14.8805
8.28563
-0.0896431
235.714
235.74
235.806
235.924
236.107
236.374
236.743
237.14
236.951
233.873
225.12
202.402
197.675
194.177
198.234
182.813
166.82
152.164
136.767
120.391
103.743
87.2903
71.5004
56.7541
43.3295
31.3449
21.1416
12.1071
6.62629
-2.01303
236.088
236.124
236.215
236.361
236.559
236.785
236.968
236.884
235.92
232.498
224.282
212.244
204.993
199.925
194.518
181.125
166.011
151.173
135.571
118.879
101.628
84.5493
68.3495
53.4631
40.1092
28.2887
18.4403
9.7243
5.18869
-3.58696
236.422
236.467
236.576
236.746
236.953
237.145
237.208
236.89
235.67
232.589
226.454
217.492
209.517
201.376
192.735
179.83
165.393
150.588
134.739
117.637
99.8462
82.2237
65.5314
50.3915
37.1494
25.64
16.1955
7.78635
4.01888
-4.8133
236.71
236.762
236.887
237.076
237.292
237.467
237.473
237.066
235.83
233.119
228.329
221.347
213.094
202.956
192.15
179.157
165.066
150.251
134.136
116.595
98.2712
80.1356
63.1058
47.8677
34.6938
23.3901
14.3286
6.25153
3.10504
-5.72535
236.948
237.005
237.142
237.346
237.573
237.747
237.736
237.319
236.156
233.777
229.785
223.825
215.434
204.089
192.007
178.821
164.916
150.118
133.789
115.828
96.989
78.4063
61.1151
45.8201
32.765
21.6765
12.9114
5.10007
2.43086
-6.36024
237.13
237.191
237.338
237.555
237.793
237.972
237.966
237.571
236.499
234.359
230.826
225.42
216.954
204.894
192.066
178.769
165.011
150.247
133.75
115.426
96.1118
77.1048
59.5645
44.2781
31.3686
20.4777
11.9606
4.33461
1.99786
-6.76553
237.252
237.317
237.471
237.697
237.943
238.13
238.134
237.766
236.765
234.773
231.477
226.352
217.807
205.38
192.214
178.875
165.248
150.566
134.036
115.398
95.6078
76.2699
58.6158
43.3473
30.5756
19.8422
11.5021
3.99785
1.87154
-6.9608
237.316
237.381
237.539
237.77
238.021
238.214
238.226
237.874
236.909
234.976
231.768
226.746
218.087
205.472
192.255
178.995
165.595
150.989
134.36
115.608
95.5109
75.8262
58.1436
42.934
30.2996
19.6603
11.4549
3.92859
2.12536
-7.26363
231.701
231.528
231.074
230.326
229.26
227.794
225.807
223.147
219.671
215.292
210.089
204.416
198.938
193.871
188.468
181.694
171.219
157.567
143.097
129.593
116.414
103.44
90.7018
78.3207
66.1863
54.705
42.4938
33.332
15.6855
22.3614
231.779
231.61
231.167
230.438
229.398
227.964
226.014
223.381
219.904
215.469
210.147
204.326
198.816
193.684
187.812
180.205
169.898
157.286
143.583
130.296
117.151
104.154
91.3696
78.9207
66.7049
55.107
42.9786
33.4887
16.6428
21.4373
231.93
231.769
231.35
230.658
229.67
228.304
226.429
223.859
220.393
215.857
210.283
204.129
198.617
193.463
186.888
178.321
168.438
156.664
143.813
130.845
117.791
104.794
91.9586
79.4065
67.0841
55.3443
43.2226
33.5365
17.1712
20.6098
232.151
232.003
231.617
230.981
230.072
228.81
227.059
224.603
221.177
216.501
210.508
203.775
198.337
193.112
185.876
177.093
167.394
156.059
143.828
131.126
118.171
105.175
92.2629
79.5611
67.0842
55.1915
43.0281
33.107
17.3697
19.1642
232.435
232.304
231.961
231.398
230.595
229.478
227.908
225.638
222.313
217.473
210.788
203.051
197.677
192.344
185.397
176.972
166.989
155.831
143.902
131.339
118.415
105.355
92.2576
79.3416
66.6759
54.5898
42.3965
32.2132
17.2607
17.2492
232.774
232.663
232.372
231.898
231.226
230.296
228.975
226.994
223.878
218.881
211.139
201.583
196.488
191.465
186.481
177.907
167.333
156.087
144.186
131.578
118.529
105.248
91.8774
78.6517
65.7153
53.3934
41.1809
30.793
16.7767
14.9661
233.159
233.069
232.836
232.462
231.943
231.238
230.246
228.696
226.001
220.812
211.53
199.118
194.6
191.277
189.086
179.822
168.42
156.914
144.786
131.879
118.462
104.744
90.9459
77.315
64.0685
51.532
39.3262
28.8276
15.8998
12.4275
233.577
233.511
233.337
233.066
232.711
232.261
231.668
230.738
228.847
223.945
214.557
197.136
191.493
188.551
193.969
182.3
169.623
157.722
145.186
131.749
117.698
103.372
89.0287
74.9859
61.4998
48.8417
36.7917
26.3341
14.6377
9.73495
234.018
233.974
233.862
233.696
233.498
233.294
233.117
232.945
232.302
228.862
217.323
188.621
187.915
184.111
199.921
185.02
170.584
158.186
145.026
130.744
115.968
100.953
86.097
71.7548
58.1546
45.5081
33.7537
23.4864
13.1084
7.0081
234.468
234.446
234.389
234.318
234.264
234.27
234.429
234.883
235.595
235.56
227.785
135.756
187.91
169.536
206.065
187.7
170.753
157.249
143.161
127.992
112.518
97.0986
82.0321
67.6377
54.1241
41.6908
30.382
20.4374
11.4252
4.32944
234.915
234.912
234.906
234.915
234.967
235.11
235.444
236.101
237.047
238.559
234.909
84.3473
192.361
173.681
202.074
184.757
167.912
153.97
139.396
123.838
108.057
92.5161
77.4978
63.1971
49.9086
37.7908
26.9927
17.4323
9.76265
1.81008
235.35
235.364
235.4
235.474
235.604
235.818
236.146
236.578
236.678
234.438
229.871
174.033
198.043
187.345
200.244
182.016
165.304
150.917
136.098
120.491
104.63
88.901
73.7284
59.3678
46.1654
34.2549
23.9036
14.6995
8.23574
-0.441187
235.761
235.79
235.862
235.987
236.166
236.396
236.641
236.731
236.102
233.01
226.247
206.717
202.103
200.583
196.03
179.482
164.027
149.608
134.567
118.678
102.414
86.2502
70.7125
56.202
43.0503
31.2915
21.3072
12.3919
6.94821
-2.32052
236.141
236.182
236.283
236.446
236.659
236.89
237.051
236.91
235.913
232.805
226.052
214.538
205.958
199.771
191.913
178.072
163.601
149.191
133.905
117.583
100.704
83.9337
67.959
53.3402
40.2852
28.7534
19.1509
10.5064
5.89982
-3.82809
236.482
236.531
236.656
236.852
237.092
237.325
237.438
237.196
236.137
233.429
228.234
219.364
209.545
200.09
190.187
177.185
163.33
149.041
133.531
116.753
99.2882
81.9834
65.6041
50.8057
37.855
26.6153
17.4006
9.03304
5.09372
-4.97133
236.776
236.834
236.979
237.201
237.464
237.707
237.811
237.557
236.571
234.233
230.112
223.028
212.582
201.065
189.529
176.606
163.108
148.941
133.305
116.16
98.1479
80.2986
63.59
48.7157
35.9141
24.8874
16.0211
7.92086
4.4973
-5.79029
237.018
237.083
237.243
237.487
237.772
238.033
238.152
237.93
237.059
235.039
231.593
225.417
214.702
201.885
189.216
176.176
163.017
149.043
133.387
115.88
97.3921
79.0786
62.0285
47.0923
34.4682
23.659
15.0539
7.14666
4.10448
-6.33123
237.204
237.274
237.446
237.707
238.012
238.292
238.434
238.26
237.499
235.704
232.665
227.024
216.099
202.401
189.003
176.072
163.34
149.501
133.731
115.93
97.07
78.3335
60.9044
45.9215
33.4601
22.8691
14.4866
6.7101
3.91508
-6.63993
237.33
237.403
237.584
237.858
238.176
238.472
238.636
238.502
237.821
236.159
233.348
227.975
216.845
202.602
188.91
176.232
163.791
149.954
133.985
115.907
96.8435
77.9324
60.3176
45.2882
32.974
22.5613
14.3525
6.64618
3.99761
-6.73335
237.394
237.469
237.655
237.934
238.26
238.566
238.742
238.629
237.987
236.368
233.679
228.379
216.954
202.549
188.931
176.447
164.152
150.263
134.112
115.807
96.7219
77.744
60.1058
45.0845
32.9042
22.5795
14.5241
6.74732
4.42159
-7.01199
231.72
231.548
231.097
230.353
229.293
227.837
225.864
223.223
219.776
215.447
210.32
204.731
199.263
193.744
187.352
180.096
169.77
155.22
140.369
126.751
113.558
100.649
87.9953
75.6887
63.6188
52.2684
40.2221
31.5939
14.6577
24.6455
231.798
231.63
231.19
230.465
229.43
228.004
226.065
223.448
219.999
215.624
210.403
204.693
199.168
193.348
186.341
178.422
168.351
155.009
140.941
127.605
114.491
101.573
88.8648
76.4716
64.3184
52.8129
40.8076
31.7703
15.6918
23.4732
231.95
231.789
231.372
230.683
229.699
228.336
226.466
223.907
220.469
216.012
210.6
204.65
199.099
192.827
184.843
176.396
166.747
154.539
141.423
128.457
115.457
102.531
89.7441
77.2249
64.9347
53.2501
41.1798
31.8723
16.2268
22.3894
232.171
232.024
231.639
231.004
230.096
228.831
227.074
224.616
221.217
216.654
210.945
204.607
199.023
192.203
183.726
175.473
165.851
154.287
141.877
129.192
116.282
103.319
90.4108
77.7109
65.2053
53.303
41.1327
31.5204
16.4418
20.6049
232.457
232.325
231.983
231.419
230.611
229.482
227.887
225.591
222.279
217.593
211.42
204.368
198.623
191.377
183.966
175.841
165.86
154.547
142.52
129.95
117.021
103.922
90.7966
77.8188
65.0423
52.8685
40.6175
30.6765
16.3193
18.2859
232.798
232.686
232.394
231.915
231.232
230.273
228.898
226.843
223.698
218.896
212.024
203.713
197.74
191.14
185.758
177.159
166.694
155.363
143.379
130.71
117.575
104.177
90.6999
77.3371
64.2394
51.7654
39.4803
29.2986
15.8015
15.5776
233.185
233.094
232.858
232.477
231.937
231.184
230.088
228.374
225.523
220.628
212.788
202.22
196.457
192.305
188.598
179.199
168.078
156.54
144.3
131.278
117.704
103.815
89.8398
76.0218
62.5995
49.8926
37.6367
27.3322
14.8799
12.6304
233.607
233.54
233.364
233.082
232.698
232.173
231.409
230.15
227.819
222.945
213.751
199.001
196.065
195.38
192.533
181.419
169.289
157.34
144.63
131.061
116.817
102.317
87.8256
73.6008
59.9325
47.1671
35.1343
24.8511
13.5919
9.5847
234.052
234.007
233.893
233.716
233.482
233.181
232.765
232.039
230.48
226.324
217.847
194.988
193.767
193.5
196.748
183
169.652
157.09
143.745
129.413
114.519
99.4611
84.5724
70.1023
56.4221
43.7873
32.1311
22.0594
12.0787
6.58291
234.507
234.485
234.428
234.348
234.259
234.158
234.035
233.777
232.988
229.911
221.951
190.256
195.7
196.933
199.769
183.696
168.613
155.077
140.954
125.958
110.628
95.365
80.3401
65.9195
52.4512
40.1071
28.9394
19.1908
10.5059
3.7432
234.961
234.959
234.955
234.96
234.985
235.037
235.112
235.094
234.627
232.052
226.079
193.582
196.088
197.639
197.404
180.657
165.28
151.46
137.037
121.822
106.341
90.9891
76.0146
61.7798
48.5829
36.5597
25.9105
16.5101
9.04734
1.16976
235.403
235.419
235.461
235.539
235.659
235.813
235.965
235.964
235.339
232.529
226.53
201.81
200.296
201.544
194.851
177.81
162.588
148.635
134.138
118.9
103.31
87.753
72.6628
58.4465
45.3438
33.5379
23.311
14.2114
7.80785
-1.05707
235.823
235.854
235.938
236.078
236.265
236.48
236.654
236.586
235.747
232.793
225.894
210.352
203.303
200.01
191.29
176.178
161.8
147.814
133.083
117.475
101.397
85.391
69.9964
55.6808
42.7165
31.1291
21.2521
12.3858
6.84206
-2.87787
236.21
236.256
236.374
236.562
236.805
237.067
237.25
237.145
236.258
233.659
228.402
216.933
206.49
199.119
189.464
175.955
162.115
148.136
133.084
116.972
100.25
83.6292
67.8127
53.3527
40.4708
29.1149
19.6225
10.9928
6.13856
-4.29438
236.559
236.616
236.762
236.993
237.283
237.585
237.792
237.708
236.917
234.738
230.67
221.522
209.71
199.826
189
175.981
162.561
148.754
133.501
116.919
99.5512
82.2773
66.0267
51.4378
38.6793
27.5477
18.3816
9.96849
5.64666
-5.33922
236.86
236.926
237.097
237.364
237.694
238.037
238.285
238.264
237.622
235.828
232.604
224.871
212.359
200.731
188.77
175.916
163.016
149.44
134.166
117.25
99.3007
81.3549
64.5927
49.8374
37.2613
26.3708
17.5107
9.27831
5.34532
-6.05973
237.109
237.183
237.373
237.669
238.035
238.417
238.715
238.773
238.285
236.801
234.132
227.209
214.267
201.351
188.706
176.204
163.854
150.23
134.705
117.342
99.1356
80.8756
63.5821
48.624
36.2409
25.5927
17.0033
8.88781
5.21954
-6.50392
237.299
237.38
237.586
237.905
238.299
238.716
239.06
239.194
238.838
237.57
235.266
228.795
215.481
201.713
188.955
176.942
164.876
150.991
134.966
117.038
98.5517
80.2842
62.866
47.8031
35.5873
25.165
16.798
8.78208
5.25638
-6.72283
237.428
237.513
237.73
238.065
238.479
238.922
239.301
239.491
239.225
238.081
236.016
229.722
216.068
201.836
189.189
177.613
165.671
151.394
134.69
116.237
97.6459
79.5347
62.3335
47.4191
35.3729
25.1347
16.9346
8.9723
5.52151
-6.73268
237.495
237.581
237.803
238.147
238.572
239.029
239.426
239.646
239.42
238.321
236.431
230.047
216.09
201.819
189.409
178.124
166.121
151.531
134.386
115.394
96.7656
78.95
61.9812
47.2915
35.4465
25.3186
17.2756
9.22694
6.08564
-6.98889
231.743
231.572
231.125
230.387
229.336
227.894
225.943
223.333
219.936
215.695
210.706
205.303
199.899
193.827
187.065
180.007
169.701
154.824
139.962
126.185
112.854
99.8586
87.1489
74.8036
62.7084
51.3923
39.4975
31.2929
14.929
27.1387
231.822
231.654
231.218
230.498
229.472
228.059
226.139
223.551
220.155
215.879
210.817
205.308
199.737
193.11
185.523
177.97
168.211
154.642
140.518
127.062
113.837
100.84
88.0665
75.6136
63.4141
51.9351
40.0533
31.3999
15.9371
25.6863
231.974
231.814
231.4
230.716
229.738
228.385
226.53
223.997
220.617
216.282
211.087
205.421
199.649
192.075
183.391
175.747
166.451
154.149
140.954
127.901
114.812
101.805
88.9351
76.329
63.9678
52.296
40.3165
31.3439
16.3005
24.2498
232.197
232.049
231.667
231.035
230.13
228.871
227.121
224.683
221.349
216.95
211.582
205.679
199.628
191.133
182.351
174.901
165.507
153.927
141.395
128.646
115.648
102.584
89.5601
76.7411
64.1592
52.2418
40.1493
30.8059
16.2969
22.0225
232.484
232.352
232.012
231.449
230.64
229.507
227.906
225.617
222.374
217.91
212.284
205.877
199.337
190.554
183.208
175.366
165.504
154.169
142.062
129.408
116.367
103.128
89.847
76.7296
63.8675
51.6459
39.4621
29.7441
15.9347
19.2188
232.827
232.715
232.424
231.944
231.254
230.28
228.877
226.801
223.712
219.201
213.207
205.867
198.734
191.046
185.147
176.572
166.291
154.945
142.881
130.098
116.815
103.239
89.5754
76.0684
62.8905
50.3818
38.1417
28.1395
15.1788
16.0229
233.218
233.126
232.89
232.506
231.953
231.168
230.011
228.222
225.379
220.865
214.343
205.267
198.047
192.646
187.532
178.275
167.476
155.907
143.581
130.425
116.676
102.603
88.434
74.5217
61.0258
48.3277
36.1257
25.9932
14.071
12.6416
233.644
233.576
233.4
233.114
232.711
232.135
231.264
229.842
227.362
222.946
215.681
203.452
197.864
195.03
190.273
179.923
168.334
156.388
143.561
129.835
115.451
100.759
86.1362
71.9092
58.252
45.5024
33.516
23.4141
12.6526
9.25414
234.094
234.049
233.935
233.753
233.496
233.134
232.564
231.558
229.59
225.458
217.399
201.412
199.581
198.389
192.739
180.812
168.243
155.663
142.24
127.834
112.792
97.6142
82.675
68.3119
54.734
42.1103
30.5377
20.6642
11.0987
6.02138
234.556
234.533
234.479
234.398
234.287
234.12
233.824
233.206
231.794
228.213
220.497
201.087
200.382
199.163
193.848
180.464
166.639
153.339
139.306
124.361
108.961
93.6087
78.604
64.3339
50.9245
38.6015
27.536
17.9556
9.58834
3.06931
235.017
235.016
235.018
235.027
235.04
235.044
234.966
234.629
233.58
230.501
223.561
203.702
201.928
199.354
191.875
177.739
163.658
150.068
135.781
120.626
105.128
89.6631
74.6595
60.5177
47.3632
35.4015
24.8283
15.5506
8.27214
0.476385
235.468
235.486
235.539
235.63
235.755
235.887
235.957
235.786
234.881
232.137
225.827
208.353
203.21
199.467
189.923
175.493
161.486
147.793
133.386
118.158
102.522
86.8371
71.6792
57.5202
44.5506
32.8429
22.6593
13.6329
7.2369
-1.71018
235.896
235.932
236.032
236.195
236.407
236.644
236.82
236.757
235.958
233.616
228.45
214.304
204.874
198.515
188.478
174.857
161.235
147.416
132.704
117.076
100.941
84.9026
69.4991
55.2359
42.3702
30.874
21.0582
12.2282
6.53116
-3.44528
236.293
236.345
236.485
236.708
236.998
237.322
237.589
237.631
237.001
235.104
231.095
219.686
208.178
199.339
188.482
175.373
161.981
148.277
133.235
117.104
100.302
83.6148
67.7403
53.3357
40.5816
29.3268
19.8753
11.2219
6.08136
-4.75948
236.65
236.716
236.889
237.167
237.524
237.926
238.281
238.445
238.025
236.584
233.494
223.736
211.208
200.616
188.816
175.993
163.033
149.585
134.382
117.791
100.333
82.899
66.5245
51.9801
39.3598
28.298
19.1191
10.6112
5.84564
-5.71117
236.96
237.037
237.24
237.563
237.979
238.451
238.896
239.191
238.987
237.94
235.53
226.878
213.589
201.593
189.234
176.868
164.409
150.746
135.173
118.095
100.422
82.6232
65.6382
50.8333
38.4092
27.6211
18.7032
10.3005
5.79581
-6.33751
237.216
237.302
237.529
237.89
238.356
238.891
239.42
239.841
239.832
239.097
237.179
229.23
215.324
202.444
190.174
178.413
166.135
151.739
135.352
117.481
99.5233
81.8962
64.8835
49.9685
37.7564
27.2235
18.5787
10.2562
5.89219
-6.70469
237.412
237.506
237.752
238.142
238.647
239.233
239.833
240.36
240.508
239.996
238.438
230.852
216.512
203.306
191.488
180.093
167.537
152.381
135.116
116.342
97.8181
80.3388
63.9196
49.3582
37.4074
27.1031
18.6718
10.4203
6.11881
-6.85412
237.546
237.644
237.903
238.314
238.846
239.469
240.119
240.723
240.975
240.601
239.287
231.756
217.17
203.845
192.239
180.921
168.113
152.395
134.427
115.071
96.2231
78.7336
62.9124
49.0116
37.3931
27.2996
19.0283
10.79
6.51498
-6.80557
237.613
237.715
237.98
238.402
238.948
239.591
240.265
240.909
241.2
240.91
239.771
232.015
217.387
204.009
192.466
181.175
168.216
152.153
133.764
114.045
95.099
77.6808
62.2289
48.8939
37.5913
27.6304
19.5007
11.1515
7.16513
-7.04496
231.77
231.6
231.157
230.428
229.391
227.968
226.046
223.48
220.158
216.046
211.267
206.136
200.749
194.427
188.222
181.574
170.675
155.643
140.777
126.839
113.345
100.211
87.3861
74.9483
62.7953
51.474
39.6703
31.7534
15.7826
29.2951
231.848
231.682
231.25
230.539
229.525
228.131
226.238
223.694
220.376
216.239
211.396
206.151
200.463
193.326
185.977
178.966
169.023
155.373
141.247
127.666
114.295
101.16
88.2604
75.6986
63.4233
51.9223
40.1222
31.7329
16.7141
27.5919
232.001
231.843
231.433
230.756
229.789
228.453
226.624
224.133
220.841
216.667
211.741
206.381
200.237
191.719
183.169
176.18
166.941
154.671
141.468
128.321
115.101
101.953
88.9425
76.2098