/*--------------------------------*- C++ -*----------------------------------*\
| =========                 |                                                 |
| \\      /  F ield         | OpenFOAM: The Open Source CFD Toolbox           |
|  \\    /   O peration     | Version:  2512                                  |
|   \\  /    A nd           | Website:  www.openfoam.com                      |
|    \\/     M anipulation  |                                                 |
\*---------------------------------------------------------------------------*/
FoamFile
{
    version     2.0;
    format      ascii;
    arch        "LSB;label=32;scalar=64";
    class       volScalarField;
    location    "160";
    object      p;
}
// * * * * * * * * * * * * * * * * * * * * * * * * * * * * * * * * * * * * * //

dimensions      [0 2 -2 0 0 0 0];

internalField   nonuniform List<scalar> 
84826
(
3.12534
3.12866
3.13508
3.13599
3.11315
3.03567
2.85322
2.48889
1.84363
0.819706
-0.605251
-2.28577
-3.7528
-4.39808
-4.02949
-3.02926
-1.99696
-1.3165
-0.960886
-0.722269
-0.506598
-0.341237
-0.244467
-0.185272
-0.12838
-0.0672815
-0.0156357
0.0125706
0.0209832
0.00441207
3.13568
3.14137
3.15397
3.16608
3.16115
3.11027
2.96377
2.63995
2.02437
0.985343
-0.538404
-2.43264
-4.10483
-4.77881
-4.2706
-3.07547
-1.91765
-1.22966
-0.909858
-0.684081
-0.466066
-0.305886
-0.220569
-0.170031
-0.117996
-0.0615739
-0.0152387
0.010089
0.0208126
0.0102418
3.15538
3.16569
3.19039
3.22457
3.25545
3.25906
3.18854
2.9548
2.41332
1.35808
-0.366369
-2.74524
-4.87717
-5.60334
-4.78456
-3.14917
-1.72274
-1.04368
-0.813088
-0.614271
-0.391846
-0.243103
-0.176998
-0.135406
-0.0850927
-0.0355213
-0.00492237
0.00282647
0.00432982
-0.00227614
3.18277
3.19973
3.24184
3.30831
3.39293
3.48125
3.53499
3.46042
3.07108
2.03342
-0.00206432
-3.27614
-6.20449
-6.982
-5.63801
-3.20744
-1.33197
-0.721173
-0.652778
-0.493928
-0.277427
-0.166589
-0.137036
-0.0986441
-0.0299841
0.031303
0.0536084
0.0397535
0.0190044
0.000305881
3.21542
3.24059
3.30441
3.41192
3.56727
3.77261
4.0098
4.19411
4.097
3.1952
0.731893
-4.18664
-8.37898
-9.09576
-6.91927
-3.13167
-0.633026
-0.249142
-0.413841
-0.267637
-0.0638845
-0.0457261
-0.107664
-0.102543
-0.0218985
0.0599859
0.0897715
0.0690489
0.0340388
0.00270676
3.25028
3.28457
3.37278
3.52758
3.76785
4.12241
4.61339
5.19833
5.63204
5.15982
2.21769
-5.6598
-11.9173
-12.4089
-8.81184
-2.59095
0.538109
0.311841
-0.14191
0.102997
0.351659
0.273472
0.09574
0.0315797
0.0802334
0.145346
0.164949
0.140321
0.10012
0.0419434
3.28397
3.32744
3.44043
3.64468
3.97797
4.50782
5.32812
6.50527
7.87285
8.41631
4.96674
-7.83818
-16.8722
-17.8902
-11.702
-0.777728
2.36173
0.673724
-0.222401
0.179686
0.508496
0.398458
0.205665
0.148631
0.186517
0.219895
0.213744
0.188416
0.180286
0.100672
3.31304
3.36476
3.50015
3.75021
4.17387
4.88654
6.09114
8.07346
11.0441
14.0923
10.0811
-6.32329
-20.6111
-24.2965
-16.0583
4.3577
6.51877
2.43668
0.89124
1.18553
1.21279
0.818689
0.512758
0.415757
0.37132
0.273544
0.142174
0.0492662
-0.0129647
0.0746602
3.33445
3.39243
3.54496
3.83065
4.32727
5.19558
6.76704
9.65081
15.0004
23.3349
23.269
-12.7094
-24.8683
-48.7503
-23.376
7.50877
7.45315
1.07008
-0.59354
-0.170498
-0.298505
-0.732231
-0.821379
-0.608962
-0.420437
-0.388799
-0.442624
-0.442351
-0.513815
-0.0224152
3.34586
3.40723
3.56903
3.87422
4.41157
5.36934
7.16294
10.6629
18.0078
32.9241
47.7013
-1.44204
-40.8047
-62.6439
-14.1321
16.2394
14.9346
6.56362
4.15079
3.93176
2.99528
1.99205
1.64121
1.70286
1.70523
1.49198
1.17852
0.946661
0.66607
0.794771
3.34601
3.40749
3.56937
3.87467
4.41243
5.37242
7.17245
10.6863
18.0773
33.1521
55.7844
22.8828
-58.7924
-16.9389
14.8294
14.2053
6.25466
3.91431
3.58092
2.48579
1.40412
1.0527
1.16925
1.23926
1.06813
0.769028
0.540682
0.305034
0.459483
3.33489
3.39324
3.54628
3.83296
4.33201
5.2066
6.79353
9.71355
15.1759
23.8721
36.2637
1.55545
3.14344
-74.1821
-28.7953
2.8051
4.07301
-0.562104
-1.2483
-0.543546
-0.656086
-0.979924
-0.869064
-0.443392
-0.110757
-0.0626835
-0.200923
-0.33067
-0.388047
-0.214238
3.31373
3.36609
3.50241
3.75431
4.18215
4.90373
6.12855
8.15761
11.2573
14.6322
17.3245
-5.00129
-17.0916
-40.7129
-19.7411
0.348455
3.86721
1.69204
1.01066
1.27145
1.05776
0.627078
0.466929
0.583856
0.699149
0.630887
0.425826
0.214235
0.21645
-0.0236999
3.28484
3.32916
3.44331
3.64971
3.9877
4.52745
5.36911
6.59291
8.06808
8.83952
5.83289
-6.72543
-17.0339
-20.1588
-13.8688
-2.99391
0.914644
0.260439
-0.273293
-0.0457726
0.0803475
-0.0177587
-0.0552756
0.051268
0.171116
0.183938
0.0918903
-0.0186631
-0.0226736
-0.10425
3.25128
3.28656
3.37603
3.53314
3.77827
4.14256
4.65287
5.27589
5.78469
5.43871
2.66487
-5.18291
-12.1766
-13.7013
-10.0903
-3.8332
-0.468047
-0.231573
-0.403055
-0.101132
0.177069
0.199198
0.140426
0.142047
0.184553
0.193758
0.142333
0.070582
0.0393174
0.0138898
3.21648
3.24272
3.30785
3.4176
3.57748
3.7914
4.04419
4.25595
4.20464
3.36411
0.945735
-4.04925
-8.7054
-9.97116
-7.8271
-4.02786
-1.47398
-0.832223
-0.730536
-0.445053
-0.183165
-0.125842
-0.166755
-0.171825
-0.120695
-0.0653971
-0.046717
-0.056436
-0.0545757
-0.0395331
3.18383
3.20192
3.24531
3.3138
3.40241
3.4978
3.56316
3.50633
3.14104
2.12496
0.0787152
-3.29635
-6.5193
-7.61349
-6.31745
-3.86852
-1.95612
-1.17601
-0.898226
-0.610936
-0.349331
-0.227558
-0.195522
-0.157392
-0.0843804
-0.00815713
0.0360904
0.0457334
0.0438395
0.0331995
3.15642
3.16788
3.19378
3.22974
3.26401
3.27323
3.2109
2.98746
2.45551
1.39928
-0.359728
-2.83837
-5.1707
-6.09792
-5.33085
-3.68058
-2.22367
-1.43762
-1.0601
-0.758077
-0.494889
-0.334681
-0.25859
-0.201888
-0.133076
-0.0648147
-0.0205535
-0.00633831
-0.00684066
-0.011656
3.13669
3.14353
3.15726
3.17093
3.16888
3.12251
2.98177
2.66336
2.04863
0.996561
-0.571399
-2.55883
-4.38137
-5.19902
-4.74116
-3.53617
-2.34968
-1.58594
-1.15513
-0.838532
-0.573953
-0.392559
-0.288865
-0.218189
-0.149347
-0.0830367
-0.0341185
-0.0100648
-0.00223865
-0.00252223
3.12636
3.13082
3.13832
3.14067
3.12045
3.04691
2.86902
2.50776
1.85936
0.817146
-0.655215
-2.42422
-4.0197
-4.78427
-4.46419
-3.457
-2.39702
-1.65418
-1.20413
-0.88002
-0.613473
-0.421578
-0.304721
-0.228092
-0.160866
-0.0975659
-0.0482274
-0.0207864
-0.00955986
-0.00770021
3.11649
3.11911
3.12383
3.12183
3.09493
3.01253
2.82505
2.4575
1.81377
0.799066
-0.606183
-2.2553
-3.68889
-4.3152
-3.95195
-2.98085
-1.98501
-1.32496
-0.970709
-0.728592
-0.51275
-0.348456
-0.250714
-0.18899
-0.130056
-0.0684691
-0.0173719
0.0104577
0.019551
0.00406954
3.12666
3.13158
3.14234
3.15123
3.14166
3.08489
2.93181
2.60256
1.98632
0.956168
-0.544784
-2.3988
-4.0282
-4.67697
-4.17513
-3.01978
-1.91038
-1.24477
-0.922658
-0.691914
-0.474734
-0.31636
-0.229867
-0.176227
-0.121557
-0.0638483
-0.0172406
0.00811295
0.0191097
0.00894421
3.14603
3.15543
3.17796
3.20824
3.23326
3.22885
3.1484
2.90434
2.35685
1.30872
-0.386793
-2.70462
-4.7746
-5.45984
-4.647
-3.07884
-1.7303
-1.07658
-0.834134
-0.62633
-0.405569
-0.258702
-0.190411
-0.145488
-0.0927552
-0.0415978
-0.00932401
0.000181806
0.00272379
-0.00406348
3.17298
3.1888
3.22831
3.28988
3.36673
3.4436
3.48164
3.3877
2.98137
1.94571
-0.0506709
-3.23029
-6.06575
-6.76575
-5.42093
-3.11758
-1.37314
-0.783502
-0.686409
-0.517947
-0.307722
-0.197813
-0.162253
-0.118777
-0.04799
0.0151809
0.0418251
0.0343863
0.01966
0.00457184
3.20512
3.22885
3.28945
3.39081
3.53578
3.72461
3.93693
4.08645
3.95189
3.03785
0.632131
-4.15555
-8.20766
-8.74336
-6.56058
-3.05601
-0.779566
-0.369469
-0.453752
-0.293345
-0.104853
-0.0891492
-0.144676
-0.138441
-0.0639949
0.0114673
0.0406034
0.025385
0.000317091
-0.0167165
3.23943
3.27195
3.35609
3.50322
3.72996
4.06121
4.51372
5.03898
5.39954
4.88543
2.01847
-5.75404
-11.8088
-11.7826
-8.16709
-2.55615
0.170806
0.0227317
-0.294372
-0.0228216
0.232151
0.190289
0.0581534
0.0199633
0.073635
0.133322
0.146584
0.117619
0.0777192
0.0322693
3.27257
3.31396
3.42206
3.61656
3.93259
4.43105
5.19461
6.27762
7.51197
7.98191
4.58022
-8.508
-17.1412
-16.7883
-10.8903
-0.90511
2.01771
0.555561
-0.334381
-0.108678
0.106653
-0.00736999
-0.15503
-0.167936
-0.093254
-0.0280206
-0.00627083
-0.00909937
-0.000527808
-0.00782193
3.30118
3.35052
3.48038
3.71878
4.12049
4.79142
5.91676
7.76476
10.5393
13.5328
10.4865
-7.9144
-21.4938
-22.3161
-15.7416
2.16135
5.12624
2.24814
0.91229
0.960386
0.803986
0.3367
-0.00940889
-0.136126
-0.188292
-0.274236
-0.384464
-0.466439
-0.46996
-0.36335
3.32224
3.37762
3.52407
3.79687
4.26771
5.08325
6.55008
9.24804
14.386
23.2973
25.418
-11.7065
-26.6092
-36.6498
-18.7216
5.56157
5.24606
0.0193582
-1.69503
-1.60989
-1.79679
-2.10515
-2.0546
-1.72458
-1.41592
-1.26128
-1.20249
-1.12531
-1.05767
-0.529607
3.33346
3.39214
3.5476
3.83925
4.34913
5.24931
6.9188
10.1829
17.3209
34.3157
61.1833
-58.7417
-84.5441
-73.6843
-12.515
13.8682
10.5086
3.37017
1.24752
1.11296
0.558616
-0.00903928
-0.0674457
0.191492
0.370861
0.327827
0.165003
0.0432172
-0.0697176
0.125317
3.33361
3.39241
3.548
3.83981
4.35008
5.25218
6.92749
10.2045
17.3837
34.5121
73.3156
-71.4347
-14.5902
13.2284
10.4183
3.64721
1.65449
1.41447
0.66891
-0.0209654
-0.153327
0.0901708
0.271
0.213252
0.0222996
-0.128597
-0.220305
-0.0583507
3.32266
3.37841
3.52564
3.7997
4.27223
5.09332
6.57456
9.30571
14.5429
23.7641
42.4761
-31.867
-52.8646
-89.9373
-19.3546
3.62851
3.59293
-0.437829
-1.33686
-0.971859
-1.13817
-1.36335
-1.27332
-0.881086
-0.559095
-0.49054
-0.588203
-0.682765
-0.679898
-0.486442
3.30185
3.35183
3.48271
3.72306
4.1283
4.80743
5.95161
7.84246
10.7309
13.9995
17.905
-10.1744
-25.3209
-35.8328
-17.5536
-0.522226
3.03021
1.45521
0.839989
0.992799
0.799663
0.449236
0.284655
0.364239
0.445493
0.371042
0.17859
-0.0136996
-0.0205918
-0.181046
3.2734
3.31566
3.42483
3.62136
3.9418
4.44965
5.23315
6.35893
7.68791
8.34861
5.2695
-7.85105
-18.0899
-18.9961
-12.5395
-2.51001
0.920511
0.213609
-0.36998
-0.244923
-0.167055
-0.262108
-0.295989
-0.195959
-0.0766031
-0.0400347
-0.0980573
-0.173307
-0.163203
-0.157731
3.24036
3.27386
3.35922
3.50854
3.73991
4.08035
4.55087
5.11098
5.53808
5.12883
2.38589
-5.45539
-12.3326
-13.0808
-9.26661
-3.53023
-0.612789
-0.397777
-0.488892
-0.179148
0.0883326
0.123165
0.0879791
0.1038
0.153594
0.172999
0.131349
0.0687857
0.0430508
0.0253149
3.2061
3.2309
3.29274
3.39623
3.54551
3.74242
3.96927
4.14387
4.04994
3.18639
0.806433
-4.08957
-8.6124
-9.61185
-7.39888
-3.8334
-1.49187
-0.863691
-0.727846
-0.45654
-0.223118
-0.17247
-0.204645
-0.202201
-0.149601
-0.0949917
-0.0767757
-0.0842038
-0.0806433
-0.0591404
3.17396
3.1909
3.23161
3.29511
3.37574
3.45926
3.50806
3.43023
3.04484
2.02539
0.0104439
-3.27894
-6.40381
-7.38813
-6.06887
-3.72933
-1.94132
-1.20142
-0.920406
-0.637812
-0.38535
-0.262081
-0.220352
-0.174221
-0.0986092
-0.0232126
0.0199731
0.0305548
0.0305376
0.0248239
3.14697
3.15751
3.18118
3.21314
3.24135
3.2422
3.16928
2.9344
2.39459
1.34272
-0.390317
-2.80963
-5.07455
-5.94658
-5.17585
-3.58655
-2.20332
-1.44882
-1.07064
-0.767049
-0.50754
-0.348612
-0.269625
-0.209857
-0.140333
-0.0732749
-0.0300902
-0.0153734
-0.0141005
-0.015377
3.12757
3.13363
3.14544
3.15578
3.14892
3.09635
2.9485
2.6239
2.00739
0.962775
-0.583414
-2.53016
-4.30563
-5.09026
-4.6337
-3.46621
-2.32644
-1.58804
-1.16162
-0.845748
-0.584414
-0.405138
-0.300413
-0.227402
-0.157043
-0.0904171
-0.041529
-0.0168483
-0.00758825
-0.00529569
3.11739
3.12115
3.12687
3.12619
3.10174
3.02299
2.8396
2.47452
1.82682
0.793013
-0.65997
-2.39643
-3.95465
-4.69478
-4.37653
-3.39763
-2.37379
-1.65339
-1.20929
-0.886084
-0.621621
-0.431546
-0.314297
-0.235844
-0.166864
-0.102673
-0.0530869
-0.0252853
-0.0132457
-0.00959384
3.09833
3.09928
3.09993
3.09125
3.0552
2.96156
2.76195
2.38462
1.73964
0.739897
-0.626473
-2.21132
-3.57764
-4.1702
-3.82484
-2.91252
-1.97915
-1.34743
-0.990169
-0.740025
-0.52309
-0.359259
-0.258393
-0.191797
-0.129869
-0.0679395
-0.0177216
0.00987226
0.0201864
0.00607573
3.10819
3.1113
3.11767
3.11926
3.09941
3.02954
2.86142
2.5183
1.8963
0.878615
-0.580273
-2.35489
-3.90045
-4.50559
-4.02579
-2.94601
-1.91456
-1.27689
-0.944341
-0.702878
-0.485841
-0.328439
-0.238023
-0.178657
-0.120272
-0.061515
-0.0152448
0.00975897
0.0207516
0.010276
3.12691
3.13425
3.15175
3.17346
3.18588
3.16432
3.06233
2.79531
2.23129
1.18778
-0.458624
-2.66027
-4.60717
-5.229
-4.44426
-2.9937
-1.75885
-1.12811
-0.856523
-0.633061
-0.415535
-0.270598
-0.197393
-0.146663
-0.0906453
-0.0377306
-0.00357898
0.00806043
0.0111387
0.00184526
3.15295
3.16636
3.1999
3.25101
3.31168
3.36495
3.37047
3.23656
2.79121
1.74312
-0.192701
-3.18874
-5.83625
-6.43141
-5.11537
-3.01779
-1.45472
-0.866474
-0.704743
-0.515579
-0.313816
-0.204852
-0.162342
-0.115554
-0.0472009
0.0139902
0.0432966
0.0421681
0.0324892
0.0167311
3.18399
3.20485
3.25833
3.34672
3.47061
3.62646
3.78917
3.86963
3.65454
2.69002
0.349264
-4.112
-7.87751
-8.21893
-6.04624
-2.93676
-0.962386
-0.497175
-0.461277
-0.281186
-0.106971
-0.0810429
-0.117638
-0.107793
-0.0450336
0.017284
0.0414458
0.0296929
0.0104421
-0.00436514
3.21712
3.24622
3.322
3.45318
3.65259
3.9382
4.316
4.72509
4.93202
4.27832
1.44724
-5.77659
-11.3475
-10.9345
-7.23599
-2.40738
-0.136963
-0.123389
-0.289242
-0.0490749
0.165866
0.153076
0.0693341
0.0545092
0.105819
0.154529
0.160924
0.131625
0.0943137
0.0527281
3.24912
3.2865
3.38481
3.56039
3.84207
4.27901
4.93232
5.82799
6.7802
6.91761
3.46538
-8.70584
-16.6796
-15.1611
-9.11223
-1.00151
1.55045
0.64194
-0.0472083
0.0344936
0.134542
0.0228638
-0.0938147
-0.0983566
-0.0297904
0.0249803
0.0372162
0.0250369
0.0197957
0.0143713
3.27673
3.32151
3.43997
3.65649
4.01748
4.61036
5.58216
7.14254
9.40574
11.6643
8.74214
-9.14285
-22.5102
-20.4459
-11.2078
0.895025
3.49974
1.88566
0.945606
0.917242
0.803977
0.508214
0.296954
0.253168
0.264741
0.232031
0.155555
0.0829294
0.0578222
0.0499834
3.29705
3.3475
3.48135
3.72912
4.15251
4.87595
6.14836
8.44388
12.7455
20.0528
22.4059
-15.3182
-34.7436
-31.6478
-8.62173
4.96979
4.9455
1.73581
0.34397
0.16276
-0.118424
-0.454863
-0.549761
-0.414942
-0.267876
-0.230392
-0.269979
-0.297874
-0.287466
-0.100674
3.30787
3.36141
3.50378
3.76866
4.22604
5.02266
6.47029
9.25297
15.3181
29.7396
58.0008
-65.5063
-59.0746
-65.9285
-2.76203
11.0078
8.35614
3.77012
1.89824
1.50685
0.963395
0.463392
0.324562
0.455984
0.568639
0.522635
0.377362
0.25848
0.173395
0.220262
3.308
3.36166
3.50411
3.76981
4.23001
5.02896
6.47865
9.27159
15.3679
29.8822
69.7597
-91.3508
-2.42856
11.5939
8.81622
4.41543
2.64165
2.15196
1.47345
0.888735
0.658393
0.725458
0.781303
0.669468
0.458936
0.283487
0.182824
0.170318
3.29744
3.34835
3.48319
3.73286
4.15938
4.88773
6.17027
8.49254
12.8699
20.3946
38.8813
-37.1317
-69.3742
-73.9538
-6.73384
5.04624
4.48169
1.77857
0.790299
0.696397
0.39604
0.0947881
0.0163709
0.184351
0.335543
0.306559
0.164966
0.035211
-0.0045556
0.00459016
3.27734
3.32284
3.44245
3.66085
4.02473
4.62449
5.61245
7.20832
9.55864
12.0082
15.1983
-13.7125
-31.7947
-29.4789
-11.7416
-0.336822
2.24783
1.26547
0.760723
0.831609
0.735639
0.524185
0.427555
0.496609
0.564078
0.507371
0.3627
0.221375
0.175455
0.087691
3.24984
3.28808
3.38733
3.56472
3.85041
4.29583
4.96645
5.89753
6.92286
7.18945
3.90346
-8.52563
-18.0424
-16.8926
-10.1211
-1.93356
0.800073
0.343666
-0.0672261
0.0325999
0.0923433
0.00971336
-0.0413648
0.00677609
0.0729692
0.0760131
0.0119154
-0.0624044
-0.078404
-0.0736603
3.21792
3.24795
3.32483
3.45801
3.66162
3.95538
4.34869
4.7866
5.0457
4.46303
1.69197
-5.70908
-12.056
-12.0628
-8.06461
-3.11078
-0.750608
-0.494917
-0.474661
-0.189316
0.0365894
0.0774367
0.0625728
0.0893696
0.141438
0.16522
0.136647
0.0895272
0.0657788
0.0500786
3.18483
3.2067
3.26131
3.35158
3.47934
3.64232
3.81752
3.91861
3.73516
2.80359
0.46078
-4.14452
-8.34705
-9.01151
-6.7515
-3.55821
-1.53051
-0.906822
-0.702216
-0.433624
-0.21942
-0.156645
-0.163165
-0.145296
-0.092238
-0.0440466
-0.0308184
-0.0405635
-0.0435145
-0.0318473
3.15376
3.16824
3.20286
3.25567
3.31969
3.37879
3.39347
3.27257
2.8426
1.8017
-0.163909
-3.27938
-6.19408
-7.01428
-5.69386
-3.54572
-1.94188
-1.23883
-0.93158
-0.647071
-0.404878
-0.277437
-0.222582
-0.168553
-0.0945415
-0.0252891
0.0133691
0.0233862
0.0239611
0.0208614
3.12767
3.13611
3.15461
3.17777
3.193
3.176
3.08028
2.82033
2.26065
1.20864
-0.479462
-2.78311
-4.91089
-5.69209
-4.93341
-3.45488
-2.18454
-1.46845
-1.08165
-0.773902
-0.51894
-0.358975
-0.272538
-0.20656
-0.135719
-0.0703853
-0.0284553
-0.0125257
-0.00892579
-0.00845764
3.10891
3.11311
3.1204
3.12321
3.10571
3.03941
2.8755
2.5355
1.91114
0.876559
-0.628979
-2.49435
-4.17645
-4.90224
-4.45855
-3.36305
-2.3002
-1.59695
-1.17238
-0.854682
-0.596277
-0.417728
-0.309118
-0.231583
-0.15918
-0.0926691
-0.0441684
-0.018688
-0.00763969
-0.00366729
3.09904
3.10107
3.10257
3.09499
3.06104
2.97046
2.77402
2.3979
1.74744
0.727142
-0.687172
-2.35664
-3.83976
-4.53553
-4.22874
-3.30659
-2.3448
-1.65715
-1.2187
-0.89486
-0.632631
-0.443928
-0.324288
-0.241817
-0.170048
-0.104773
-0.0548328
-0.0262736
-0.0127932
-0.00767399
3.07183
3.07027
3.06468
3.04597
2.99633
2.88604
2.66845
2.27594
1.62771
0.649059
-0.660169
-2.15069
-3.42074
-3.9698
-3.65755
-2.82883
-1.97587
-1.37882
-1.01991
-0.763585
-0.547505
-0.384324
-0.279186
-0.206804
-0.14182
-0.0797867
-0.0299358
-0.00132695
0.0119426
0.00170161
3.0812
3.08163
3.08132
3.07199
3.037
2.94789
2.75775
2.39406
1.76288
0.763142
-0.63323
-2.29033
-3.71432
-4.26948
-3.83358
-2.85962
-1.9253
-1.32126
-0.979903
-0.730562
-0.515944
-0.359225
-0.263152
-0.196852
-0.134641
-0.0750546
-0.0284659
-0.0024174
0.0106306
0.00316773
3.09897
3.10329
3.11322
3.12227
3.11638
3.07017
2.93746
2.63758
2.04991
1.01563
-0.558729
-2.58958
-4.35544
-4.91008
-4.19311
-2.90386
-1.80464
-1.19994
-0.901646
-0.667717
-0.456535
-0.312427
-0.231577
-0.172981
-0.11287
-0.0573246
-0.0197635
-0.0040997
0.00209607
-0.00500609
3.12369
3.13359
3.15827
3.1941
3.23159
3.2515
3.21165
3.02243
2.5248
1.46183
-0.389089
-3.1035
-5.46762
-5.96859
-4.75248
-2.93029
-1.57777
-0.994543
-0.77112
-0.56596
-0.372511
-0.259942
-0.205909
-0.153597
-0.0863025
-0.0250242
0.00960214
0.0170961
0.0151796
0.00505248
3.15315
3.16991
3.21286
3.28256
3.37662
3.48659
3.581
3.56814
3.24526
2.21048
-0.0356401
-3.96451
-7.27174
-7.5206
-5.48512
-2.86441
-1.21676
-0.714248
-0.578714
-0.385967
-0.215299
-0.162124
-0.165881
-0.144153
-0.0861561
-0.0300223
-0.00413691
-0.00761645
-0.0172767
-0.0230869
3.18456
3.20892
3.27236
3.3808
3.54205
3.76496
4.04152
4.29543
4.29198
3.43866
0.675559
-5.47824
-10.2679
-9.77492
-6.35463
-2.49425
-0.622612
-0.414063
-0.445229
-0.245176
-0.058332
-0.0254701
-0.0508464
-0.035312
0.0223423
0.0711164
0.0836622
0.0655872
0.0421698
0.0204057
3.21489
3.24687
3.33101
3.47976
3.71387
4.06712
4.57373
5.21428
5.7715
5.40028
1.92759
-7.97856
-14.8716
-12.921
-7.46029
-1.66352
0.496491
0.239374
-0.145233
-0.108702
-0.0442698
-0.107995
-0.178368
-0.168863
-0.107383
-0.0647549
-0.0600213
-0.0786801
-0.0878637
-0.0740731
3.24103
3.27979
3.38247
3.56839
3.87288
4.36085
5.12951
6.28885
7.78373
8.76589
6.00919
-8.45211
-20.82
-17.8372
-8.19646
-0.882409
1.32483
0.8464
0.390684
0.405519
0.390647
0.250823
0.145883
0.157948
0.206712
0.207442
0.155479
0.090343
0.0520632
0.0348399
3.26025
3.3041
3.42082
3.63536
3.99476
4.59596
5.61447
7.34677
10.2435
14.1005
14.7221
-12.9967
-32.2141
-26.573
-5.41861
1.87434
2.58189
1.10946
0.21842
0.01133
-0.191869
-0.443814
-0.557067
-0.485794
-0.373768
-0.333892
-0.361472
-0.392982
-0.379653
-0.258229
3.27049
3.31709
3.44126
3.67068
4.05923
4.72131
5.88891
8.01628
12.1286
19.6587
32.7055
-40.2595
-64.9297
-50.99
-3.4178
4.79139
4.54613
2.37249
1.1196
0.798162
0.474702
0.161622
0.049661
0.13265
0.236492
0.232721
0.143354
0.0561606
0.010751
0.02991
3.27061
3.31745
3.44176
3.67157
4.06335
4.72885
5.8965
8.03111
12.163
19.7462
38.2748
-46.2951
-76.7117
-62.9184
-3.22795
4.75456
4.52121
2.55847
1.42638
1.07303
0.703227
0.357655
0.200746
0.243651
0.309256
0.267669
0.147562
0.0383052
-0.01391
-0.00146691
3.26059
3.30499
3.42234
3.63784
4.00087
4.60731
5.63278
7.38475
10.3312
14.3057
23.4199
-26.0749
-72.4655
-48.1859
-4.66782
1.79881
2.23792
1.06786
0.421575
0.293354
0.120578
-0.0808923
-0.158881
-0.0745677
0.0181918
0.0100739
-0.0735654
-0.153989
-0.175004
-0.128852
3.24151
3.28091
3.38438
3.57163
3.87877
4.37248
5.15401
6.34011
7.89274
8.97864
10.0889
-12.312
-29.4136
-22.9267
-8.14543
-1.30099
0.661039
0.438222
0.233851
0.340241
0.363034
0.277041
0.227908
0.278757
0.332515
0.308935
0.222624
0.133747
0.0924986
0.0660544
3.21546
3.24818
3.33315
3.48341
3.72094
4.0813
4.60175
5.26869
5.87532
5.57419
2.14801
-8.06249
-16.0279
-14.1071
-7.98455
-2.19961
-0.0815722
-0.0929325
-0.239667
-0.121344
-0.0423345
-0.0779441
-0.111899
-0.0792525
-0.0280417
-0.0174038
-0.0534226
-0.0995083
-0.110811
-0.0876023
3.18518
3.2104
3.27478
3.38489
3.54967
3.7793
4.06815
4.34349
4.37552
3.56058
0.799288
-5.56143
-10.9437
-10.659
-6.95528
-3.00657
-1.12199
-0.753298
-0.617815
-0.35258
-0.145828
-0.0767245
-0.0575345
-0.014182
0.0448243
0.0791459
0.0715538
0.0448993
0.0294649
0.0250906
3.15377
3.17147
3.21538
3.28664
3.38392
3.49972
3.60394
3.60627
3.30411
2.28392
0.0101863
-4.07234
-7.73024
-8.18535
-6.05076
-3.35148
-1.67247
-1.05865
-0.787599
-0.515491
-0.306227
-0.219044
-0.193589
-0.159406
-0.105069
-0.0597358
-0.0443274
-0.0496402
-0.0517805
-0.0392133
3.12428
3.13516
3.16074
3.19795
3.23819
3.2628
3.22996
3.04992
2.56089
1.49509
-0.395704
-3.22909
-5.81814
-6.48462
-5.2497
-3.37607
-1.99089
-1.32352
-0.985403
-0.698374
-0.46456
-0.329149
-0.258201
-0.195539
-0.123102
-0.0582676
-0.0200197
-0.00633193
-0.000913599
0.00346922
3.0995
3.10481
3.11557
3.12577
3.12213
3.0795
2.95135
2.65583
2.06836
1.02033
-0.599449
-2.72877
-4.65267
-5.33418
-4.63144
-3.31221
-2.18071
-1.50797
-1.11489
-0.806501
-0.557101
-0.393798
-0.297136
-0.223662
-0.151615
-0.0876221
-0.0450857
-0.0256305
-0.0172565
-0.0122743
3.08168
3.08309
3.08352
3.07513
3.04197
2.95558
2.76825
2.40568
1.76948
0.750145
-0.693613
-2.43698
-3.98274
-4.63919
-4.23069
-3.23943
-2.2753
-1.61531
-1.19543
-0.878187
-0.623727
-0.444917
-0.330729
-0.247722
-0.173299
-0.107077
-0.0581829
-0.0304322
-0.0157529
-0.00818058
3.07228
3.0717
3.06679
3.04888
3.00083
2.8928
2.67714
2.28413
1.62841
0.627508
-0.729285
-2.2997
-3.67509
-4.31342
-4.03279
-3.19293
-2.31249
-1.66577
-1.23601
-0.913894
-0.655503
-0.467957
-0.344559
-0.25695
-0.18217
-0.116104
-0.0655589
-0.0351509
-0.0185503
-0.0103652
3.03844
3.03384
3.02059
2.98959
2.92356
2.79363
2.55555
2.14783
1.5001
0.551762
-0.685447
-2.06267
-3.22016
-3.72442
-3.45728
-2.72516
-1.95986
-1.40278
-1.04705
-0.787985
-0.573457
-0.409832
-0.29927
-0.220623
-0.15234
-0.0897598
-0.039551
-0.00908213
0.00757574
0.000792278
3.0472
3.04438
3.03585
3.01319
2.95996
2.84814
2.6329
2.24809
1.61149
0.64052
-0.674145
-2.19003
-3.47097
-3.9774
-3.60415
-2.7519
-1.92089
-1.35572
-1.01165
-0.758282
-0.545944
-0.387902
-0.284587
-0.210774
-0.144714
-0.0840936
-0.0366695
-0.00875428
0.00690098
0.00180969
3.0638
3.06447
3.06511
3.05872
3.03083
2.95562
2.78785
2.45319
1.84578
0.83493
-0.639369
-2.46199
-4.01426
-4.51105
-3.89924
-2.79177
-1.8299
-1.25641
-0.940406
-0.699809
-0.492528
-0.345515
-0.254815
-0.187698
-0.123549
-0.0657025
-0.0249135
-0.00511805
0.00428863
-0.00191721
3.08687
3.09255
3.10635
3.12361
3.13335
3.11422
3.02272
2.77432
2.22814
1.17062
-0.553263
-2.9179
-4.94028
-5.3795
-4.34257
-2.81817
-1.66438
-1.09364
-0.825003
-0.606262
-0.413862
-0.291373
-0.223077
-0.164292
-0.097772
-0.0371508
0.00108612
0.014836
0.0179632
0.00883059
3.11434
3.12617
3.15625
3.20327
3.2618
3.31836
3.33622
3.22333
2.7952
1.71574
-0.35891
-3.64366
-6.40075
-6.64351
-4.90419
-2.76659
-1.38969
-0.864475
-0.660956
-0.45769
-0.280275
-0.195225
-0.166398
-0.131652
-0.0757955
-0.0234428
0.00456754
0.00736256
0.00271066
-0.00522784
3.14363
3.16226
3.2105
3.2914
3.40743
3.55785
3.72103
3.8084
3.59557
2.57521
0.0345797
-4.81823
-8.68659
-8.40676
-5.55982
-2.55564
-0.953207
-0.577999
-0.506336
-0.330099
-0.155516
-0.085598
-0.0700655
-0.0376523
0.0186824
0.0644229
0.0805393
0.0707478
0.0552355
0.0358871
3.17187
3.19733
3.26393
3.3799
3.55775
3.81504
4.15874
4.52766
4.68411
3.881
0.735522
-6.73818
-12.1945
-10.6622
-6.12933
-2.086
-0.234415
-0.045287
-0.182893
-0.129288
-0.0484641
-0.0545204
-0.0812029
-0.0608497
-0.00899297
0.0240631
0.0243115
0.00353226
-0.0102135
-0.00974427
3.19621
3.22777
3.31077
3.45889
3.69623
4.06253
4.60675
5.34125
6.08479
5.86965
1.94195
-10.041
-17.6227
-13.6917
-6.36393
-1.50254
0.345581
0.38643
0.187419
0.230657
0.272604
0.222463
0.172844
0.197243
0.247593
0.258042
0.219531
0.163572
0.122985
0.0929142
3.2141
3.25022
3.3456
3.51832
3.80281
4.26181
4.99207
6.11905
7.63503
8.74364
7.05217
-11.0776
-25.1947
-18.9611
-5.6024
0.0306483
1.31914
0.761381
0.27724
0.203793
0.151861
0.0254306
-0.0538003
-0.0135087
0.0649793
0.0890377
0.0489982
-0.00308627
-0.0266861
-0.00349328
3.2236
3.26218
3.36423
3.54988
3.85886
4.3691
5.21463
6.61184
8.76944
11.257
12.8771
-18.0466
-36.7738
-24.7381
-6.04897
1.24159
2.44942
1.46835
0.751707
0.604892
0.48889
0.308224
0.205478
0.234777
0.306883
0.310314
0.243774
0.169227
0.119358
0.102355
3.22368
3.26244
3.36485
3.55123
3.86162
4.3729
5.21993
6.6222
8.79086
11.3018
14.4299
-19.55
-40.6108
-28.4986
-6.28811
1.03894
2.35099
1.4948
0.835898
0.681846
0.553698
0.366747
0.252913
0.264305
0.317679
0.309391
0.235958
0.157097
0.106164
0.0897839
3.21433
3.25084
3.34691
3.52091
3.80711
4.26895
5.00552
6.14625
7.69063
8.8468
9.93441
-14.7611
-33.4088
-23.0305
-5.8876
-0.262304
1.04365
0.657305
0.29465
0.260462
0.223994
0.116733
0.0512946
0.085341
0.148958
0.160589
0.114114
0.0597481
0.0331708
0.0384949
3.19655
3.2286
3.31229
3.46155
3.70085
4.07171
4.62548
5.37832
6.15562
5.98357
2.06613
-10.2808
-18.935
-14.6866
-6.60319
-1.86849
-0.141891
0.0507483
0.0225988
0.14098
0.211826
0.18136
0.148632
0.178056
0.226935
0.234391
0.194004
0.143612
0.111382
0.0902284
3.17227
3.19837
3.26567
3.38287
3.56346
3.82622
4.18004
4.56671
4.75265
3.9787
0.81822
-6.90276
-12.9999
-11.4717
-6.54446
-2.51519
-0.709372
-0.358851
-0.309574
-0.169679
-0.065293
-0.0562332
-0.0669766
-0.038934
0.0083946
0.0313399
0.0179544
-0.0100459
-0.0232916
-0.0160253
3.14403
3.16343
3.21244
3.29466
3.41348
3.56904
3.74115
3.84283
3.65077
2.6445
0.0723447
-4.96181
-9.22819
-9.06831
-6.03261
-2.97599
-1.37811
-0.890137
-0.677178
-0.429847
-0.231982
-0.140057
-0.0984523
-0.0489066
0.0100295
0.0503617
0.0578053
0.045318
0.0344679
0.0296195
3.11472
3.12738
3.15823
3.20646
3.26748
3.32846
3.35329
3.25025
2.8329
1.75342
-0.362314
-3.78409
-6.79776
-7.17465
-5.36056
-3.16582
-1.77142
-1.16408
-0.848023
-0.572601
-0.36096
-0.249963
-0.197983
-0.151033
-0.0957206
-0.0501597
-0.0292421
-0.0279158
-0.0278933
-0.0195522
3.08719
3.09374
3.10826
3.12653
3.13836
3.12268
3.03591
2.79281
2.24906
1.18053
-0.588389
-3.06074
-5.25946
-5.81688
-4.76272
-3.19638
-2.01737
-1.38328
-1.02299
-0.734363
-0.504639
-0.359582
-0.273839
-0.204168
-0.13351
-0.0718887
-0.0325671
-0.0144648
-0.0047993
0.00203747
3.06404
3.0656
3.06687
3.06128
3.03503
2.96234
2.79734
2.46425
1.85322
0.824516
-0.696457
-2.60917
-4.29182
-4.88576
-4.28315
-3.14886
-2.15938
-1.53239
-1.13925
-0.833505
-0.588731
-0.420814
-0.314009
-0.233696
-0.160553
-0.0972769
-0.0531217
-0.029353
-0.0161412
-0.00880133
3.04738
3.04544
3.03745
3.01539
2.96342
2.85338
2.6395
2.25372
1.60962
0.617005
-0.744206
-2.33901
-3.72373
-4.3123
-3.96004
-3.09144
-2.23377
-1.62205
-1.21195
-0.898542
-0.648317
-0.468305
-0.348027
-0.259557
-0.183145
-0.11689
-0.0670555
-0.0364512
-0.0178351
-0.00788686
3.03859
3.03486
3.02208
2.99157
2.92658
2.79802
2.56059
2.15062
1.49355
0.521823
-0.761415
-2.21183
-3.46096
-4.03991
-3.79822
-3.05499
-2.26437
-1.66434
-1.2479
-0.930769
-0.677087
-0.490088
-0.362294
-0.269481
-0.191818
-0.124938
-0.0734328
-0.0405914
-0.0203301
-0.00974006
2.99981
2.99182
2.96995
2.92527
2.84119
2.69009
2.43082
2.00874
1.36459
0.453209
-0.702306
-1.95673
-2.99661
-3.45917
-3.24599
-2.61744
-1.94207
-1.42786
-1.07987
-0.820499
-0.607273
-0.442273
-0.325996
-0.241196
-0.169539
-0.105863
-0.0546104
-0.0218016
-0.00132949
-0.00371992
3.00788
3.00144
2.98371
2.94622
2.873
2.73689
2.4959
2.091
1.45287
0.519033
-0.702533
-2.06705
-3.20282
-3.66653
-3.36787
-2.64319
-1.9149
-1.39173
-1.05097
-0.796063
-0.585018
-0.424447
-0.313817
-0.232929
-0.163174
-0.101144
-0.0523306
-0.0219695
-0.00288841
-0.00406843
3.02315
3.01977
3.01004
2.98658
2.93479
2.82885
2.62559
2.25816
1.6369
0.661617
-0.695371
-2.29877
-3.64161
-4.09768
-3.61021
-2.68481
-1.8521
-1.31578
-0.992432
-0.74755
-0.541454
-0.389829
-0.289531
-0.214684
-0.146887
-0.0869458
-0.0429733
-0.0188994
-0.00506644
-0.00736748
3.04436
3.04537
3.04709
3.04395
3.02382
2.96375
2.82033
2.51648
1.93235
0.902934
-0.667355
-2.68309
-4.37677
-4.78827
-3.96752
-2.72229
-1.7404
-1.19565
-0.901789
-0.672488
-0.477075
-0.343489
-0.26167
-0.196274
-0.129546
-0.0691769
-0.0277318
-0.00849656
0.000635676
-0.00294764
3.0696
3.07597
3.09183
3.11413
3.13476
3.13602
3.07753
2.87171
2.36008
1.27973
-0.585408
-3.26363
-5.50126
-5.77875
-4.41266
-2.70741
-1.55082
-1.02768
-0.781608
-0.566544
-0.379391
-0.268346
-0.213406
-0.166634
-0.110103
-0.0581567
-0.0263071
-0.0167769
-0.0142766
-0.0167997
3.09647
3.10878
3.14033
3.19144
3.25971
3.336
3.38812
3.32417
2.94341
1.84817
-0.397684
-4.12226
-7.1545
-7.11403
-4.92754
-2.60319
-1.2462
-0.798716
-0.651384
-0.471743
-0.295745
-0.199495
-0.15688
-0.113414
-0.0569814
-0.00972085
0.0131632
0.0139258
0.0102787
0.00390868
3.12237
3.14061
3.18798
3.26871
3.38768
3.54815
3.73469
3.86294
3.70017
2.67305
-0.0549719
-5.43155
-9.53042
-8.73899
-5.38923
-2.39247
-0.829017
-0.450929
-0.41509
-0.307441
-0.193367
-0.155534
-0.152156
-0.125213
-0.0776478
-0.0442075
-0.0380661
-0.0494434
-0.053943
-0.0436296
3.14465
3.16815
3.22963
3.33754
3.50464
3.74946
4.08185
4.44743
4.61663
3.81594
0.54611
-7.38119
-12.9821
-10.6817
-5.58226
-1.99028
-0.464605
-0.222054
-0.230595
-0.117909
-0.0207406
-0.0153725
-0.0307012
-0.000645793
0.0518778
0.0754188
0.0596893
0.0277671
0.0090704
0.00625385
3.161
3.18843
3.26047