/*--------------------------------*- C++ -*----------------------------------*\
| =========                 |                                                 |
| \\      /  F ield         | OpenFOAM: The Open Source CFD Toolbox           |
|  \\    /   O peration     | Version:  2512                                  |
|   \\  /    A nd           | Website:  www.openfoam.com                      |
|    \\/     M anipulation  |                                                 |
\*---------------------------------------------------------------------------*/
FoamFile
{
    version     2.0;
    format      ascii;
    arch        "LSB;label=32;scalar=64";
    class       surfaceScalarField;
    location    "160";
    object      phi;
}
// * * * * * * * * * * * * * * * * * * * * * * * * * * * * * * * * * * * * * //

dimensions      [0 3 -1 0 0 0 0];

oriented        oriented;

internalField   nonuniform List<scalar> 
260615
(
1.59994
-5.97114e-05
0.00012358
1.59986
-0.000179986
0.000256298
1.5998
-0.00034661
0.000415634
1.59979
-0.000606946
0.000617052
1.59994
-0.0010246
0.000873412
1.6004
-0.00163371
0.00117634
1.60099
-0.00208672
0.00150727
1.60391
-0.00484136
0.00192356
1.60727
-0.00605448
0.00269726
1.61212
-0.00807756
0.00323705
1.61813
-0.00959984
0.00360027
1.61602
-0.00143803
0.00354424
1.62697
-0.0140831
0.00314527
1.62693
-0.00224773
0.00229635
1.62444
0.00108996
0.00140826
1.62112
0.00252387
0.000799425
1.61747
0.00281405
0.000846593
1.61609
0.000518336
0.000864671
1.61476
0.0003492
0.000985281
1.61374
-0.00011002
0.0011252
1.61306
-0.000580798
0.00126287
1.61266
-0.00097362
0.00137045
1.61242
-0.00122605
0.0014625
1.61226
-0.00136459
0.00153014
1.61213
-0.00144548
0.00157005
1.61204
-0.00149937
0.00158984
1.61199
-0.00153145
0.00158393
1.61196
-0.00153893
0.0015735
1.61194
-0.00153209
0.00154777
-0.00143347
0.00148134
1.59993
-0.000114068
0.000127076
1.59983
-0.000344333
0.000262507
1.59973
-0.0006649
0.000425983
1.59966
-0.00116931
0.000634793
1.59972
-0.00198647
0.000904777
1.6001
-0.00324564
0.00123521
1.60116
-0.00475574
0.00161215
1.60329
-0.00902093
0.00206019
1.60665
-0.0123718
0.00296725
1.61176
-0.0168222
0.00363762
1.61847
-0.0204345
0.0041346
1.61706
-0.00419475
0.00416577
1.62824
-0.0288958
0.00364785
1.62792
-0.00461423
0.00269756
1.62488
0.00251308
0.00162853
1.62109
0.00539033
0.000925687
1.61796
0.00491171
0.00104851
1.61593
0.0014372
0.0011108
1.61455
0.000452728
0.00128524
1.61355
-0.000569917
0.00145784
1.61291
-0.00157631
0.00162998
1.61255
-0.00240139
0.0017805
1.61235
-0.00292486
0.00190082
1.61221
-0.00321595
0.00199096
1.6121
-0.00338926
0.00205038
1.61203
-0.00350202
0.00207569
1.61198
-0.003566
0.00208407
1.61194
-0.00358039
0.00207986
1.61193
-0.00358268
0.00206344
-0.0034623
0.00199584
1.59992
-0.000159372
0.000132446
1.59978
-0.000480022
0.00027353
1.5996
-0.000930008
0.000442883
1.59941
-0.00164632
0.000667637
1.59929
-0.00282503
0.000969917
1.59938
-0.00470478
0.00136525
1.6
-0.00724142
0.00187436
1.60194
-0.0132964
0.00234665
1.60523
-0.0192104
0.00356118
1.61087
-0.0269806
0.00453075
1.61916
-0.0340559
0.00533958
1.61923
-0.0098312
0.00557493
1.63093
-0.0453818
0.00480539
1.63001
-0.00732306
0.00363849
1.62571
0.00468805
0.00214297
1.62092
0.00894542
0.00124035
1.6174
0.00686391
0.00158586
1.61549
0.00162742
0.0017191
1.61412
-0.000216079
0.00203961
1.61318
-0.00189763
0.00226739
1.61264
-0.00353645
0.00249449
1.61237
-0.00482843
0.00269491
1.61221
-0.00562637
0.00284892
1.61211
-0.00607614
0.00295547
1.61205
-0.00634909
0.00302362
1.61201
-0.00651607
0.00304637
1.61199
-0.0065904
0.00304541
1.61197
-0.00658435
0.00302391
1.61196
-0.00655375
0.00298861
-0.00636556
0.0028717
1.5999
-0.000191374
0.000135555
1.59971
-0.000573999
0.000287494
1.59943
-0.00111648
0.000469224
1.59906
-0.00199347
0.000713719
1.59864
-0.00346767
0.00106204
1.5983
-0.00590211
0.00154354
1.59832
-0.00946042
0.00221174
1.59967
-0.0175207
0.00288148
1.60268
-0.0267372
0.00453483
1.60909
-0.0394282
0.00605949
1.6203
-0.052681
0.0074243
1.62318
-0.0204079
0.00772086
1.63536
-0.0648193
0.00727926
1.63351
-0.0108848
0.00543068
1.62685
0.00824634
0.0031149
1.62041
0.0135135
0.00188352
1.61655
0.00814661
0.00257915
1.6147
0.000498909
0.00298865
1.61336
-0.00237164
0.00348617
1.61256
-0.00495884
0.00385012
1.6122
-0.00743048
0.00424126
1.61205
-0.00925997
0.00457162
1.61195
-0.0103545
0.00481746
1.61188
-0.0109951
0.00498484
1.61184
-0.0114085
0.00509134
1.61183
-0.0116597
0.00515009
1.61183
-0.0117549
0.00516374
1.61183
-0.0117105
0.00512941
1.61183
-0.0116368
0.00507516
-0.011304
0.00489317
1.59988
-0.000206796
0.000142201
1.59962
-0.000615714
0.000297543
1.59921
-0.00120243
0.000500452
1.59861
-0.00216857
0.000773537
1.59781
-0.0038352
0.00117455
1.59683
-0.00669769
0.00177646
1.59589
-0.0111624
0.00265421
1.59617
-0.021454
0.00366956
1.59832
-0.0348726
0.00599756
1.60568
-0.0551969
0.00843716
1.62228
-0.079976
0.0107155
1.64979
-0.0596779
0.0118021
1.64208
-0.0686334
0.0115573
1.63899
-0.0164064
0.00863098
1.62809
0.0143952
0.00478542
1.61935
0.0190239
0.00326159
1.61527
0.00744891
0.00480177
1.61341
-0.0033129
0.00568234
1.61212
-0.00736733
0.0062866
1.61162
-0.0111975
0.00674035
1.6116
-0.0147273
0.00730966
1.61171
-0.0171717
0.00779324
1.61181
-0.0186102
0.00814535
1.61192
-0.0195187
0.00840365
1.61208
-0.0201767
0.00860913
1.61226
-0.0206228
0.00877895
1.61243
-0.0208402
0.00890445
1.6126
-0.0208341
0.00895292
1.6128
-0.0207966
0.00895913
-0.0201211
0.00874417
1.59985
-0.000203725
0.000149133
1.59952
-0.000598757
0.000311841
1.59896
-0.00117219
0.000531198
1.59809
-0.00213583
0.000839412
1.5968
-0.00384684
0.00130282
1.59499
-0.00691866
0.0020422
1.59285
-0.0122105
0.003199
1.59099
-0.0243315
0.00474862
1.59101
-0.0429195
0.00804583
1.59922
-0.0752633
0.0118889
1.62553
-0.12209
0.0158602
1.64594
-0.0993912
0.0193742
1.65198
-0.0945576
0.0199508
1.64689
-0.0266361
0.0153759
1.62808
0.024699
0.00852242
1.61692
0.0237568
0.0064727
1.61304
0.00166013
0.00970486
1.61092
-0.0130142
0.0118344
1.61016
-0.0198013
0.0131994
1.6108
-0.0261842
0.014335
1.61217
-0.0316026
0.0155007
1.61366
-0.0350884
0.0164106
1.61506
-0.037059
0.0170372
1.6163
-0.0382633
0.0174856
1.61732
-0.039086
0.0178749
1.61807
-0.0395897
0.0182112
1.61848
-0.0397627
0.0185011
1.61862
-0.039668
0.0186918
1.61855
-0.0395922
0.0188624
-0.0385526
0.0185406
1.59983
-0.000181922
0.000152933
1.59942
-0.000521967
0.000328717
1.59871
-0.00102084
0.00056189
1.59755
-0.00187485
0.000902188
1.59571
-0.00343856
0.00143814
1.59289
-0.00641214
0.00232013
1.58903
-0.0121552
0.00381419
1.58151
-0.0230768
0.00627847
1.57908
-0.0509922
0.0105159
1.58729
-0.100012
0.016583
1.62864
-0.037294
0.0234518
-0.0461354
-0.0464156
-0.0569901
1.66077
-0.0400344
0.0345596
-0.0361265
-0.0452382
-0.0446329
1.66763
-0.0274121
0.0395988
-0.0320237
-0.0362263
-0.0452945
1.65806
-0.0152274
0.0326915
0.00110743
-0.0250721
-0.0105616
1.62425
0.0364908
0.0220883
1.61167
0.0177156
0.0186822
1.61211
-0.0204491
0.0217165
1.61239
-0.0380082
0.024745
1.61414
-0.0495077
0.0279716
1.61544
-0.059657
0.0321811
1.61454
-0.0673984
0.0366968
1.61093
-0.0721579
0.040672
1.60494
-0.0747888
0.0437162
1.5971
-0.076362
0.0459265
1.588
-0.0774082
0.0474109
1.57823
-0.0780556
0.0482304
1.56822
-0.078229
0.0484672
1.5587
-0.0782958
0.0481444
1.54864
-0.0773157
0.0477757
-0.0780945
0.0452395
1.59981
-0.00014318
0.000156279
1.59933
-0.000390987
0.000343766
1.59848
-0.000757506
0.000588827
1.59704
-0.00139464
0.000959467
1.59464
-0.00259589
0.00156241
1.59061
-0.00495533
0.00258142
1.584
-0.00997319
0.00443194
1.57373
-0.0207192
0.0079284
1.56013
-0.0505347
0.0131578
0.392482
-0.118368
0.0221817
0.389065
0.389147
0.385643
0.396812
-0.0431401
0.00153957
-0.406782
0.41975
-0.0580343
0.00502822
-0.423252
0.425972
-0.0397704
0.00964798
-0.425024
0.42818
-0.0253415
0.0069771
1.64206
0.028242
0.0752273
-0.422739
-0.430138
-0.421646
-0.434482
1.61524
-0.0334753
0.0780935
1.58358
-0.0774723
0.0887466
1.54695
-0.0963043
0.0949681
1.50685
-0.106848
0.0974612
1.46422
-0.115145
0.0981316
1.42074
-0.120723
0.0967955
1.37909
-0.123733
0.0932245
1.34149
-0.12506
0.0878674
1.30925
-0.125726
0.0815879
1.28299
-0.12616
0.0750105
1.26269
-0.12627
0.0685019
1.24803
-0.125773
0.0621969
1.23829
-0.124951
0.0563881
1.23255
-0.122421
0.0508441
-0.121034
0.04351
1.59979
-9.13351e-05
0.00015879
1.59926
-0.000218575
0.000355805
1.59831
-0.000406664
0.000608766
1.59665
-0.000740559
0.0010054
1.59378
-0.00138868
0.00166114
1.58872
-0.00269181
0.00279732
1.57941
-0.00562509
0.00496698
1.562
-0.0125352
0.00923927
1.52822
-0.0324096
0.015669
0.378661
-0.101185
0.0231761
0.372919
0.372287
0.364027
0.385399
-0.0555772
9.56453e-05
0.0487806
0.420606
-0.407898
0.0761881
-0.0254653
-0.0236317
-0.0292876
-0.0212172
0.00507574
0.000838429
0.00439504
0.000383605
-0.420159
0.426807
0.062199
-0.0301743
-0.025419
-0.0314105
-0.021799
0.0123935
0.00774655
0.00842715
0.011405
-0.441717
0.448696
0.046767
-0.0214576
-0.0285461
-0.020956
-0.018896
0.0068493
0.00907419
0.0131918
0.00690916
1.09387
-0.052384
0.145813
-0.398259
-0.285697
-0.356548
-0.118547
1.02234
-0.0749242
0.113082
0.96264
-0.119299
0.101586
0.927375
-0.138288
0.077286
0.912077
-0.146469
0.0549346
0.909466
-0.150146
0.0376152
0.914722
-0.149544
0.0235622
0.926892
-0.146924
0.0110161
0.94623
-0.143758
-0.000648443
0.970965
-0.139936
-0.0105343
0.998516
-0.13542
-0.0183002
1.02691
-0.130395
-0.0242732
1.05512
-0.12501
-0.0289875
1.08166
-0.119304
-0.0321862
1.10937
-0.114167
-0.0359739
-0.102686
-0.038134
1.59977
-3.18953e-05
0.000175172
1.5992
-2.33743e-05
0.000375639
1.59816
-7.69592e-06
0.000637378
1.59637
1.11061e-05
0.00104578
1.59322
2.68031e-05
0.00172893
1.58757
2.93751e-05
0.00293789
1.57664
-5.23317e-06
0.00530839
1.55409
-0.000146611
0.0101669
1.50512
-0.000668622
0.0172418
0.353101
-0.00264582
0.0171335
0.348773
0.343718
0.343888
-0.0323514
-0.0141523
0.0506798
0.0844582
0.0899933
0.0857965
0.0887186
0.0284397
-0.100307
0.104669
-0.0254236
-0.00251916
-0.00198352
-0.00165231
-0.00122915
-0.101939
0.0482886
0.100689
-0.0137236
-0.0150287
-0.0171802
-0.0147869
0.00421054
0.0025253
0.00414771
0.0027188
-0.0638337
0.0153136
-0.00996537
-0.00144163
0.0599233
0.078258
0.0384678
-0.475478
0.0286608
0.0687043
0.127645
0.0813985
0.42653
-0.010327
-0.412744
0.63561
-0.0218061
-0.306515
0.781182
-0.0275904
-0.256236
0.889218
-0.0306171
-0.223872
0.969857
-0.0320677
-0.198709
1.03233
-0.0321131
-0.179899
1.08304
-0.0315163
-0.166122
1.12507
-0.0305287
-0.155265
1.16013
-0.0291377
-0.145869
1.18955
-0.0274041
-0.137442
1.21434
-0.0253923
-0.129803
1.2356
-0.0232339
-0.12304
1.25347
-0.0207749
-0.116405
1.27118
-0.0193073
-0.112569
-0.0154527
-0.104518
1.59975
2.83296e-05
0.000190359
1.59917
0.0001724
0.00039073
1.59812
0.000391386
0.000649369
1.59631
0.000761297
0.00106177
1.59315
0.00144268
0.00174521
1.58754
0.00277232
0.00286685
1.57657
0.00565806
0.00530453
1.55389
0.0123498
0.0101786
1.50446
0.0314575
0.017317
0.348335
0.0976287
0.0174619
0.352215
0.343414
0.342789
0.00137499
0.0299369
-0.0201123
0.0819377
0.0866363
0.081798
0.086812
0.00113386
-0.0971176
0.0901809
0.00863331
-0.000410265
-0.000978343
-0.000371796
-0.00106162
0.00165982
-0.0106442
0.02413
-0.00202411
-0.0134049
0.143606
0.0777766
-0.533521
0.0704033
0.0712916
0.089763
0.119318
0.512749
0.0748202
-0.454215
0.726461
0.10651
-0.342004
0.866323
0.113785
-0.281228
0.963944
0.111707
-0.239943
1.03217
0.106824
-0.207115
1.08163
0.100804
-0.182377
1.11999
0.0941928
-0.164084
1.15097
0.0882607
-0.149787
1.17653
0.0833802
-0.138093
1.19803
0.079298
-0.128212
1.21642
0.0759088
-0.119711
1.2327
0.0729641
-0.112483
1.24681
0.0708579
-0.10575
1.26182
0.0674065
-0.101724
0.0649811
-0.0939574
1.59976
8.29996e-05
0.000189396
1.59923
0.00034797
0.00035344
1.59827
0.000745599
0.000609472
1.59658
0.00142012
0.00103126
1.59367
0.00266247
0.00168552
1.58865
0.00505925
0.00273598
1.57923
0.0100876
0.00498767
1.56149
0.0207714
0.00930752
1.52662
0.0504163
0.0159093
0.371577
0.118232
0.0240133
0.377212
0.362608
0.370619
-0.0491087
0.0549983
-0.0032911
0.0929935
0.090091
0.0915852
0.0943422
-0.02736
-0.0999975
0.105195
-0.00402854
0.0261956
-0.0121363
-0.0946182
0.0972299
0.0076562
0.0501944
-0.0141145
-0.0166445
-0.0175357
-0.0392566
-0.05873
0.014666
0.0458522
0.0373621
1.00123
-0.0452069
0.0888141
-0.153038
-0.360558
-0.0892309
-0.364133
1.00035
0.00859386
0.0671352
1.00845
0.0414359
0.0569814
1.02754
0.0551358
0.0395711
1.05136
0.0623369
0.0255447
1.07333
0.0681828
0.0166786
1.09166
0.0715845
0.0108882
1.10718
0.0727834
0.00587972
1.1199
0.0730191
0.00250887
1.13079
0.0726239
-0.000155376
1.13983
0.0722665
-0.00202678
1.14742
0.0717932
-0.00348356
1.15406
0.0710477
-0.00473747
1.15994
0.070797
-0.00581908
1.16578
0.0685153
-0.0069516
0.0706249
-0.00833404
1.59978
0.00012644
0.000175305
1.59932
0.000483085
0.000327224
1.59848
0.00101247
0.000573291
1.59702
0.00190543
0.000975239
1.59459
0.0035164
0.0015757
1.5905
0.00654319
0.00259951
1.58375
0.0123569
0.00447701
1.57311
0.0233694
0.00803877
1.55838
0.0516619
0.0134694
0.387898
0.101634
0.0232223
0.391456
0.38435
0.388044
-0.0491125
0.390779
0.044074
0.00216532
-0.0813417
-0.40428
0.414362
0.0640891
0.00725034
-0.113281
-0.415183
0.43062
0.0663323
0.0312948
-0.0651874
-0.444778
0.445607
0.0334134
0.0309145
1.65561
-0.0483054
0.0774951
-0.435141
-0.427602
-0.439547
-0.427662
1.63001
-0.0406417
0.0748497
1.60874
-0.0135201
0.0762202
1.59148
-0.00281286
0.0752194
1.577
0.00366659
0.0731489
1.56354
0.0100043
0.0716451
1.55003
0.0150579
0.0700306
1.53669
0.0184279
0.0676902
1.52353
0.0207553
0.065413
1.51063
0.0227387
0.0627689
1.49753
0.0247272
0.0606253
1.48446
0.026502
0.0583527
1.47098
0.0281255
0.0563938
1.45789
0.0296297
0.0542567
1.44195
0.0313336
0.0531211
0.0331112
0.0497291
1.59982
0.000154247
0.000157437
1.5994
0.000565114
0.000330754
1.59869
0.00116787
0.000555723
1.59751
0.00217029
0.000913034
1.59565
0.00393199
0.00144802
1.59277
0.00707372
0.00233968
1.58878
0.0124807
0.00385848
1.58093
0.02482
0.00638918
1.57778
0.0439905
0.0108126
1.58423
0.0777368
0.0174247
1.62455
0.128435
0.0258868
-0.0383513
-0.048789
-0.0476265
-0.0599071
1.66319
0.116548
0.0417057
-0.0457153
-0.0454995
-0.0511942
-0.0545808
1.6846
0.11959
0.0576052
-0.0429558
-0.04549
-0.0515369
-0.0587549
1.67003
0.0299059
0.0422641
-0.0192071
0.00241722
-0.0299732
-0.0108596
1.63337
-0.0345255
0.0228889
1.61754
-0.039366
0.0145606
1.61399
-0.0231741
0.0132034
1.61036
-0.0116726
0.0124977
1.60907
-0.00687456
0.0118426
1.60925
-0.00209567
0.0119161
1.60972
0.00207661
0.0125195
1.61001
0.00484864
0.013285
1.6101
0.00654287
0.014108
1.61004
0.00776275
0.0150272
1.60966
0.00884571
0.0162525
1.60908
0.0098458
0.0172307
1.60798
0.0107828
0.01844
1.60661
0.0115045
0.019495
1.60445
0.0127375
0.0207562
0.0137473
0.0220365
1.59984
0.000164501
0.000150875
1.5995
0.000587942
0.00031429
1.59894
0.00120171
0.000531655
1.59805
0.00220505
0.000847809
1.59675
0.00392356
0.00131216
1.59489
0.00686381
0.00206101
1.59266
0.0114625
0.00324095
1.5906
0.022015
0.0048501
1.59029
0.0359997
0.00828287
1.59798
0.0575341
0.0124894
1.62444
0.084758
0.017192
1.6489
0.0693939
0.0226419
1.66169
0.0802439
0.0264999
1.65511
0.0174485
0.0190022
1.63416
-0.0213664
0.00779385
1.62161
-0.0298161
0.00299767
1.61636
-0.0221421
0.0042318
1.61319
-0.0136467
0.0051463
1.61127
-0.0105966
0.00565176
1.61048
-0.00734631
0.00604942
1.61024
-0.0042584
0.00658572
1.61014
-0.00206013
0.00700924
1.6101
-0.000677002
0.00725451
1.61014
0.000322502
0.00738864
1.61024
0.00122606
0.00752001
1.61042
0.00209728
0.00755964
1.6106
0.00290841
0.00768485
1.61081
0.00360646
0.00769278
1.61143
0.00432999
0.00778487
0.00518542
0.0079135
1.59987
0.000157043
0.000144227
1.5996
0.000552321
0.000300341
1.59918
0.00111842
0.000504314
1.59857
0.00202882
0.000779318
1.59776
0.00355133
0.00118432
1.59676
0.00606091
0.00179503
1.59577
0.00974903
0.00269217
1.59597
0.0180539
0.00375254
1.59804
0.0277407
0.00617369
1.60541
0.0413275
0.00881815
1.62263
0.0560576
0.0114619
1.65274
0.0259766
0.0132772
1.64853
0.0705653
0.0138553
1.64521
0.0110656
0.00967657
1.6331
-0.0130606
0.00380794
1.62348
-0.0209122
0.000720212
1.61834
-0.0178992
0.000901971
1.6156
-0.0116765
0.000787488
1.61363
-0.0093491
0.000731945
1.61255
-0.00697642
0.00071937
1.61204
-0.00466827
0.000929463
1.61174
-0.00290451
0.00114305
1.6115
-0.00173742
0.00130406
1.61128
-0.000903116
0.00144181
1.61109
-0.000183335
0.00159397
1.61093
0.000484908
0.00176488
1.61079
0.00107687
0.00197437
1.61067
0.00156549
0.00215898
1.61059
0.00203722
0.00237456
0.00262088
0.00263679
1.59989
0.000133464
0.000137804
1.59968
0.000464264
0.000290611
1.5994
0.000933244
0.00047339
1.59903
0.00167692
0.000719782
1.59861
0.00289601
0.00107178
1.59826
0.00483949
0.00156074
1.59827
0.0074848
0.00224418
1.59963
0.0137367
0.00294559
1.6027
0.0199996
0.00465858
1.60935
0.0283715
0.0062966
1.62126
0.0363032
0.00783164
1.62583
0.0130395
0.00836163
1.63999
0.0483404
0.00804586
1.63829
0.00720297
0.00555132
1.63092
-0.00786698
0.0021793
1.6238
-0.0138397
5.71473e-05
1.6191
-0.0131756
-2.01694e-05
1.61647
-0.0088775
-0.000155269
1.61454
-0.00743672
2.30186e-05
1.61328
-0.00589934
0.000198986
1.61252
-0.00435355
0.000449441
1.61204
-0.00308728
0.000671709
1.61166
-0.00220961
0.000849289
1.61135
-0.00158734
0.000994758
1.6111
-0.00107009
0.00113173
1.61092
-0.000600237
0.00126532
1.61077
-0.000188017
0.00141106
1.61066
0.000157347
0.0015166
1.61066
0.000413129
0.00162555
0.000638189
0.00172235
1.5999
9.68134e-05
0.00013488
1.59976
0.000334157
0.000276899
1.59957
0.00066804
0.00044731
1.59938
0.00119184
0.000673913
1.59926
0.0020379
0.000979548
1.59937
0.00334283
0.00138116
1.60001
0.00492982
0.00190204
1.60201
0.00932998
0.00239613
1.60545
0.0129075
0.00364673
1.61142
0.0177208
0.00467513
1.62037
0.0217959
0.00555547
1.6216
0.0059552
0.00584813
1.63454
0.0303768
0.00501855
1.63387
0.0044313
0.00344093
1.62915
-0.00445507
0.00131954
1.62384
-0.00838936
-0.000136474
1.61967
-0.00872442
-0.000277153
1.61713
-0.00581136
-0.000520036
1.61524
-0.00507866
-0.000459904
1.61388
-0.00412215
-0.000403599
1.61297
-0.00313529
-0.00030189
1.61236
-0.00229046
-0.000191271
1.61193
-0.00168489
-8.76709e-05
1.61159
-0.00125769
1.00686e-05
1.61132
-0.000913979
0.000110425
1.61113
-0.000608124
0.000200532
1.61098
-0.000340323
0.000300457
1.61087
-0.000118036
0.000384862
1.61078
4.5164e-05
0.000459088
0.000245986
0.000541328
1.59992
5.09924e-05
0.000129658
1.59981
0.000174878
0.000266067
1.5997
0.000348283
0.000430659
1.59963
0.000618518
0.000641314
1.5997
0.00105099
0.000914416
1.6001
0.00168357
0.00125025
1.60121
0.00217563
0.00163643
1.60343
0.00499777
0.00209974
1.60698
0.00632086
0.00302845
1.61245
0.00851321
0.00372683
1.61977
0.010236
0.00424537
1.61925
0.00221194
0.00426199
1.6313
0.0146919
0.00363217
1.63124
0.00211545
0.00237809
1.62793
-0.00202704
0.000886415
1.62372
-0.00396825
-0.000203906
1.62006
-0.00463252
-0.00042105
1.61748
-0.00259712
-0.000627919
1.6156
-0.00254868
-0.000646546
1.6142
-0.00211466
-0.000593094
1.61321
-0.00164168
-0.000494166
1.61254
-0.00122734
-0.000386624
1.61206
-0.000923422
-0.000281724
1.6117
-0.000707959
-0.000180053
1.6114
-0.000536254
-8.39194e-05
1.61118
-0.000384258
-2.32467e-06
1.61101
-0.000250894
7.59975e-05
1.61088
-0.000139657
0.000152407
1.61078
-6.16953e-05
0.000214471
2.47952e-05
0.000283708
1.59993
0.000126251
1.59984
0.000259956
1.59977
0.000420384
1.59976
0.000623531
1.59993
0.000882686
1.60042
0.00119025
1.60106
0.0015287
1.6041
0.00195611
1.60767
0.00274352
1.61288
0.0032955
1.61946
0.00365586
1.61812
0.003553
1.62979
0.00302031
1.63001
0.00190425
1.62731
0.000668289
1.62361
-0.000263916
1.61948
-0.000495812
1.61759
-0.000696507
1.61578
-0.000734881
1.61436
-0.000689369
1.61332
-0.000601705
1.61261
-0.000514101
1.61211
-0.000416428
1.61172
-0.000319201
1.61141
-0.00022995
1.61118
-0.000146803
1.61101
-7.93343e-05
1.61087
-7.36258e-06
1.61076
5.10269e-05
0.000122305
1.60005
-5.81361e-05
0.000125171
1.6001
-0.00017601
0.000390214
1.60015
-0.000338682
0.000700604
1.60027
-0.000592248
0.00109201
1.60055
-0.000998156
0.0015944
1.60105
-0.00140061
0.00208513
1.60148
-0.000992359
0.00206953
1.60146
-0.00305974
0.00500421
1.60481
-0.00612162
0.00547908
1.60987
-0.00806969
0.00625151
1.61272
-0.00606703
0.0068284
1.61245
-0.002632
0.00645314
1.62147
-0.0121615
0.00629463
1.62456
-0.00520898
0.00442044
1.62191
0.00137624
0.00269121
1.61872
0.00267329
0.00132686
1.61815
0.00102794
0.000399004
1.61699
-0.000551836
0.00257867
1.61576
0.00018321
0.00203815
1.61479
-3.96852e-05
0.00213001
1.61415
-0.000461111
0.00236693
1.61372
-0.000805038
0.00259785
1.61342
-0.00101767
0.00277964
1.61318
-0.00112585
0.00289193
1.61294
-0.001184
0.00300204
1.61268
-0.00121112
0.00305594
1.61255
-0.0012214
0.00293282
1.61247
-0.00121037
0.00287078
1.6124
-0.00118651
0.00279997
-0.00108994
0.00266795
1.60005
-0.000112202
0.00012726
1.60008
-0.000338052
0.000397618
1.6001
-0.000651486
0.000716291
1.60017
-0.0011434
0.0011223
1.60036
-0.00193825
0.00165127
1.6011
-0.00310539
0.00220739
1.60338
-0.00399035
0.00233874
1.60343
-0.00643287
0.00538253
1.60636
-0.0119461
0.00587362
1.61096
-0.0160277
0.00700603
1.6131
-0.0118592
0.00779213
1.61398
-0.00649427
0.00715414
1.62273
-0.0249133
0.00765832
1.62695
-0.0118405
0.0051264
1.62451
0.00239761
0.00305745
1.62131
0.00515605
0.00165169
1.62039
0.00239262
0.000605945
1.61722
0.000852357
0.00288662
1.61562
0.00058894
0.00248155
1.61467
-0.000270444
0.00263832
1.61406
-0.00115775
0.00293186
1.61367
-0.00186256
0.00321863
1.6134
-0.00228638
0.0034414
1.61316
-0.00250733
0.00360485
1.61289
-0.00260945
0.00374928
1.61269
-0.00266914
0.00373093
1.61258
-0.00268669
0.00366148
1.6125
-0.0026617
0.00360779
1.61245
-0.00262625
0.00355616
-0.0024894
0.00342621
1.60004
-0.000156626
0.000131492
1.60004
-0.000471584
0.000412938
1.59999
-0.000911129
0.000748186
1.59994
-0.00160913
0.00118416
1.59996
-0.00275464
0.00177412
1.60024
-0.00454784
0.00253101
1.60154
-0.00660814
0.00319915
1.60188
-0.0100072
0.00558558
1.60486
-0.0182245
0.00687416
1.60994
-0.0252571
0.00868712
1.6148
-0.0214498
0.0100846
1.61644
-0.0119617
0.00940734
1.62634
-0.0400634
0.0100646
1.62877
-0.0172528
0.00663976
1.62517
0.00430881
0.00384154
1.62095
0.00843813
0.00219357
1.61921
0.00401414
0.00171063
1.61671
0.00173825
0.00333038
1.61534
0.000571848
0.00342829
1.61444
-0.000873151
0.00375936
1.61392
-0.00229099
0.00414541
1.61361
-0.00337118
0.00450848
1.61337
-0.00400857
0.00479592
1.61313
-0.00430208
0.00498638
1.61289
-0.00445963
0.00511625
1.61277
-0.00453167
0.00502613
1.6127
-0.00452782
0.00496017
1.61264
-0.00445895
0.00487832
1.61259
-0.00436743
0.00478764
-0.0041426
0.00457706
1.60002
-0.000187921
0.000143477
1.59997
-0.000563549
0.000428242
1.59983
-0.00109308
0.000793033
1.59961
-0.00194675
0.00127226
1.59936
-0.00337703
0.00194334
1.5992
-0.00572915
0.00288662
1.5996
-0.00887196
0.00408413
1.59966
-0.0135259
0.00635375
1.60241
-0.0251061
0.00867684
1.60822
-0.0365199
0.0115212
1.61559
-0.0351956
0.0138152
1.62152
-0.0226904
0.0125391
1.63027
-0.0565408
0.0150375
1.63205
-0.023096
0.00950807
1.6263
0.00809466
0.00509931
1.62052
0.0132629
0.0028484
1.61821
0.00578486
0.00311628
1.61612
0.00213737
0.00467907
1.61484
7.03327e-05
0.00525802
1.6141
-0.00205391
0.0057725
1.61375
-0.00404462
0.00633766
1.61354
-0.00545274
0.00684734
1.61329
-0.00624211
0.00729764
1.61307
-0.00660534
0.00749973
1.6129
-0.00681989
0.00762175
1.61283
-0.00692117
0.00761114
1.61279
-0.00690974
0.00758561
1.61275
-0.00679697
0.00750931
1.61272
-0.00666754
0.00740426
-0.00638125
0.00711864
1.59998
-0.000202755
0.000171837
1.59988
-0.000602595
0.000437544
1.59963
-0.00117749
0.000842653
1.59919
-0.00211531
0.00138128
1.59856
-0.00372924
0.00215742
1.59778
-0.00648662
0.0033183
1.59704
-0.0105097
0.00504286
1.59639
-0.0169149
0.0077184
1.59834
-0.0324422
0.0114012
1.60525
-0.0508229
0.015854
1.61914
-0.0587521
0.0204076
1.64977
-0.0604804
0.0190186
1.63815
-0.0556813
0.0223595
1.63746
-0.027919
0.0141786
1.62776
0.015527
0.00707108
1.6199
0.0206157
0.00378249
1.61702
0.00814801
0.00532138
1.61519
0.00209621
0.0075484
1.61404
-0.00113291
0.00863382
1.61357
-0.00426514
0.00941057
1.61355
-0.00693903
0.0102147
1.61356
-0.00857992
0.0109032
1.61338
-0.00925482
0.0113392
1.61329
-0.00952533
0.0114015
1.61326
-0.00962344
0.0114401
1.61326
-0.00960029
0.0114507
1.61326
-0.00944821
0.01144
1.61326
-0.00918578
0.0113493
1.61322
-0.00890845
0.0112366
-0.00836431
0.0108673
1.59994
-0.000199307
0.000200839
1.59978
-0.000585217
0.000460938
1.59939
-0.00114278
0.000885629
1.5987
-0.00208439
0.0015024
1.5976
-0.00373426
0.00240216
1.59603
-0.00668428
0.00381489
1.59416
-0.0115072
0.00608376
1.59242
-0.0201268
0.00971418
1.59215
-0.0393897
0.01528
1.60028
-0.0696584
0.022624
1.63825
-0.112787
0.031962
1.65041
-0.0846976
0.0314776
1.66318
-0.0846463
0.0361811
1.64632
-0.0195832
0.0239329
1.62932
0.0304474
0.0106499
1.61965
0.0309152
0.00587888
1.61614
0.0118606
0.00952268
1.61407
0.00273402
0.0132802
1.61302
-0.00226627
0.0153819
1.61291
-0.00696271
0.0171508
1.61321
-0.0106919
0.018957
1.61343
-0.012538
0.0201484
1.61363
-0.0131363
0.0207166
1.61394
-0.013092
0.0207448
1.61425
-0.0127563
0.0206976
1.61451
-0.0122003
0.0205438
1.6147
-0.0114447
0.0203089
1.6148
-0.0105453
0.0199548
1.61489
-0.00975727
0.0196241
-0.00866029
0.0187592
1.59991
-0.000177343
0.00021768
1.59965
-0.000508946
0.00051759
1.59913
-0.000993483
0.000926372
1.59817
-0.00181887
0.00159966
1.59656
-0.00333978
0.00265946
1.59403
-0.00617969
0.00435184
1.59069
-0.0116037
0.00725829
1.58601
-0.0213971
0.0122362
1.5811
-0.0444507
0.0205114
1.58538
-0.0902755
0.0329365
1.62435
-0.0397021
0.0503542
-0.0521684
-0.0362269
-0.050511
1.65246
-0.0356089
0.0542782
-0.0346955
-0.0307153
-0.0314118
1.65957
-0.0242875
0.0608262
-0.037323
-0.0188371
-0.0324484
1.65487
-0.0154465
0.0444773
-0.00520583
-0.00684037
0.000855391
1.62755
0.0612802
0.0186227
1.61769
0.0446799
0.0148252
1.61432
0.0153437
0.0216415
1.61242
0.00388841
0.0255125
1.61255
-0.00150933
0.0270975
1.61349
-0.00509384
0.0293858
1.614
-0.00657552
0.0320764
1.61399
-0.00610331
0.034244
1.61337
-0.00469121
0.0358915
1.61234
-0.00322118
0.0370889
1.61091
-0.00196193
0.0380466
1.60914
-0.000903525
0.0386958
1.60707
5.32395e-05
0.0390381
1.60487
0.000777166
0.0390215
1.60222
0.00167596
0.0390027
0.000637349
0.0377808
1.59988
-0.00013871
0.00023357
1.59952
-0.000379617
0.000577215
1.59885
-0.0007345
0.000998898
1.59767
-0.00134894
0.00167124
1.59552
-0.00250201
0.00287957
1.59185
-0.00474937
0.00482587
1.58572
-0.00953026
0.00849392
1.57666
-0.019399
0.014995
1.56294
-0.0444958
0.0269387
0.390697
-0.110369
0.0486441
0.386959
0.391321
0.38761
-0.0073252
0.394382
-0.0479111
0.0118765
-0.0113944
-0.404917
0.416176
-0.0524149
0.0169761
-0.0202671
-0.418258
0.419599
-0.0306615
0.0253423
-0.0217245
-0.420209
0.423534
-0.026074
0.0290462
1.63357
0.145316
0.0421971
-0.418583
-0.425404
-0.418957
-0.421557
1.62162
0.0829483
0.0518322
1.61285
0.0369004
0.075998
1.60482
0.016789
0.0901261
1.59637
0.0074802
0.0969421
1.58425
0.00273096
0.102436
1.56894
0.000849804
0.104689
1.55131
0.000679987
0.104086
1.53281
0.000432748
0.101241
1.51462
-0.0005873
0.0971478
1.49759
-0.00214399
0.0922258
1.48245
-0.00398026
0.0867195
1.46954
-0.00571493
0.0808796
1.4594
-0.00753966
0.0748442
1.45018
-0.00771603
0.0694635
-0.0114495
0.062321
1.59986
-8.71702e-05
0.000244734
1.59943
-0.000209852
0.000612886
1.59861
-0.000390482
0.00108618
1.59719
-0.000710389
0.00178691
1.59462
-0.00132952
0.00306417
1.59007
-0.00256295
0.00515957
1.5813
-0.00529429
0.00950908
1.56535
-0.0115603
0.0173555
1.53337
-0.0306592
0.0338146
0.37367
-0.102605
0.0692567
0.364129
0.375025
0.366718
-0.0658468
0.0150694
-0.00594848
0.0531263
0.0945886
0.0944421
0.0936314
0.0946433
-0.00263424
-0.0997986
0.0194877
0.105033
-0.0254048
0.00331661
-0.106013
-0.014491
0.0101341
0.104966
-0.0101429
0.015571
-0.106232
-0.017723
0.0146997
-0.0215917
0.0217529
0.109097
1.23848
0.236742
0.0611748
-0.362157
-0.151567
-0.400053
-0.331372
1.21251
0.151765
0.0703074
1.18876
0.0754758
0.0868158
1.17154
0.0304495
0.0808896
1.16547
0.00242218
0.0660891
1.17031
-0.0160347
0.0515713
1.18447
-0.0274129
0.0376832
1.20599
-0.0338303
0.0240202
1.23123
-0.0372231
0.011778
1.25775
-0.0389174
0.00128206
1.28427
-0.0395348
-0.00742146
1.30992
-0.0393968
-0.0145035
1.33416
-0.0386462
-0.0203003
1.35657
-0.0374793
-0.024653
1.37822
-0.0361605
-0.0291732
-0.0311722
-0.0296851
1.59986
-2.82532e-05
0.000247658
1.59942
-1.77349e-05
0.000631406
1.59854
1.90616e-07
0.00112836
1.59696
2.15771e-05
0.00188637
1.59412
4.38248e-05
0.00319816
1.58902
6.04012e-05
0.00541598
1.57895
4.5422e-05
0.0100455
1.55887
-6.44159e-05
0.0187483
1.50843
-0.000526661
0.037557
0.336677
-0.00222437
0.0853088
0.333771
0.33583
0.333598
-0.044375
0.0102141
0.00993238
0.067025
0.0706417
0.075443
0.0718239
0.0759819
0.00189379
0.00370603
-0.00585184
0.00662674
-0.00192224
-0.00105018
-0.00125373
-0.00105828
-0.00108876
-0.00714622
0.0025212
-0.00468723
0.00500588
0.00798255
-0.000868243
-0.000985461
-0.000935463
-0.000892514
-0.00360814
0.000349538
0.00340766
-0.00298674
-0.000699454
0.00352852
0.790959
-0.0573355
-0.555936
-0.0220701
-0.0643782
-0.215075
-0.114797
1.00269
-0.0664663
-0.406187
1.14114
-0.0680579
-0.30139
1.2341
-0.0688186
-0.249893
1.29957
-0.0686646
-0.218234
1.34704
-0.0680498
-0.19414
1.38201
-0.0667062
-0.175565
1.40869
-0.0649089
-0.161714
1.42963
-0.0625597
-0.150865
1.44631
-0.059802
-0.141665
1.45969
-0.0567934
-0.133565
1.47048
-0.0536184
-0.126366
1.47925
-0.0503966
-0.120064
1.48643
-0.0469881
-0.114077
1.49244
-0.0445595
-0.110182
-0.0389653
-0.101613
1.59988
3.14778e-05
0.00024204
1.59946
0.000174761
0.000620024
1.59864
0.000390958
0.00108386
1.5971
0.000755043
0.00187134
1.59428
0.00141973
0.00318248
1.58902
0.00269546
0.00549704
1.57889
0.00541168
0.0100669
1.5587
0.0115185
0.0187805
1.50783
0.0299478
0.0377098
0.333377
0.0996154
0.0859776
0.335854
0.33323
0.335018
0.00120105