/*--------------------------------*- C++ -*----------------------------------*\
| =========                 |                                                 |
| \\      /  F ield         | OpenFOAM: The Open Source CFD Toolbox           |
|  \\    /   O peration     | Version:  2512                                  |
|   \\  /    A nd           | Website:  www.openfoam.com                      |
|    \\/     M anipulation  |                                                 |
\*---------------------------------------------------------------------------*/
FoamFile
{
    version     2.0;
    format      ascii;
    arch        "LSB;label=32;scalar=64";
    class       surfaceScalarField;
    location    "160";
    object      phi;
}
// * * * * * * * * * * * * * * * * * * * * * * * * * * * * * * * * * * * * * //

dimensions      [0 3 -1 0 0 0 0];

oriented        oriented;

internalField   nonuniform List<scalar> 
278528
(
1.5999
9.47447e-05
2.15256e-05
1.60083
-0.000834926
-6.60015e-05
1.60307
-0.00204654
-0.000174485
1.60694
-0.00356638
-0.00029528
1.61162
-0.00423598
-0.000453537
1.61786
-0.00562878
-0.000675456
1.62605
-0.00763563
-0.00063667
1.63906
-0.0119486
-0.00113342
1.65447
-0.0140268
-0.00139917
1.67964
-0.0232893
-0.00181235
1.70158
-0.0197297
-0.0021046
1.71465
-0.0108574
-0.00210601
1.74097
-0.0253786
-0.00085861
1.75487
-0.0168636
0.00297445
1.77044
-0.0199253
0.00420418
1.8075
-0.0220376
-0.0151148
1.88238
-0.0145723
-0.0603487
1.98596
-0.00237042
-0.101217
2.09656
0.0115672
-0.122148
2.20393
0.0218907
-0.129233
2.3046
0.0293043
-0.12995
2.39806
0.0344495
-0.127913
2.48496
0.0379589
-0.124867
2.56626
0.0404512
-0.121793
2.6431
0.0423324
-0.11922
2.71675
0.0441094
-0.117833
2.78902
0.0454702
-0.117836
2.86288
0.0477894
-0.121733
2.94403
0.0471597
-0.128365
0.0506819
-0.16966
1.60035
-0.000250149
1.86499e-05
1.60158
-0.00197665
-7.24637e-05
1.60389
-0.00415531
-0.000172554
1.60739
-0.0067609
-0.000300405
1.61205
-0.00841879
-0.000495214
1.61876
-0.0117615
-0.000644701
1.62603
-0.0144929
-0.000495229
1.63854
-0.0235244
-0.00100528
1.65513
-0.0294272
-0.00119708
1.67953
-0.0460176
-0.00160168
1.70216
-0.0405021
-0.0017651
1.7154
-0.0222878
-0.00171858
1.74117
-0.0504043
-0.000684531
1.75526
-0.032535
0.00157304
1.77312
-0.0372665
-0.000617004
1.81087
-0.0400569
-0.0197821
1.88146
-0.0272234
-0.057956
1.97597
-0.00559275
-0.0912723
2.07874
0.0177322
-0.108917
2.18015
0.0359088
-0.115398
2.27638
0.0493961
-0.116301
2.36643
0.0590002
-0.114595
2.45053
0.0657035
-0.111858
2.5294
0.0705129
-0.108967
2.60396
0.0741794
-0.10647
2.67543
0.0775277
-0.104959
2.74541
0.0802374
-0.104848
2.81698
0.084116
-0.107989
2.89502
0.0838389
-0.114767
0.0879976
-0.152251
1.60032
-0.000573636
1.85897e-05
1.60154
-0.00309898
-7.00065e-05
1.6036
-0.0060234
-0.000169861
1.60693
-0.00978424
-0.000298969
1.61136
-0.0123143
-0.000557359
1.61731
-0.0171925
-0.000581321
1.62568
-0.0226536
-0.000292601
1.63669
-0.0338453
-0.00074795
1.65335
-0.0452692
-0.000826703
1.67936
-0.0708783
-0.00107981
1.70364
-0.0634925
-0.00120165
1.71719
-0.0345449
-0.00123033
1.74209
-0.0745542
-0.000716752
1.75647
-0.0459321
-0.000984687
1.77855
-0.0502721
-0.00911143
1.82123
-0.0506357
-0.0321005
1.89006
-0.033241
-0.062791
1.97716
-0.00692818
-0.085738
2.07092
0.0210147
-0.097024
2.16414
0.0434502
-0.100729
2.25348
0.0605507
-0.100477
2.33781
0.0730183
-0.0983465
2.41706
0.0819296
-0.095493
2.49169
0.0884821
-0.0926293
2.56237
0.0936002
-0.0901634
2.63013
0.0983005
-0.0886059
2.69646
0.102223
-0.0884073
2.76408
0.107537
-0.0911261
2.83775
0.107524
-0.0974092
0.112652
-0.131366
1.60034
-0.000918164
1.8051e-05
1.6014
-0.00405931
-6.97057e-05
1.60331
-0.00775025
-0.000169447
1.60628
-0.0124499
-0.000295811
1.61071
-0.0161817
-0.000589522
1.61594
-0.0219567
-0.000530773
1.62263
-0.0294079
-1.03304e-05
1.63415
-0.045099
-0.00031333
1.651
-0.061936
-0.00017833
1.67904
-0.0990079
0.000146654
1.70634
-0.0905823
-0.000124967
1.7206
-0.0479025
-0.000844621
1.74396
-0.0967069
-0.00119292
1.75909
-0.0549291
-0.00611682
1.78658
-0.0569318
-0.0208124
1.83446
-0.0538689
-0.0445888
1.90168
-0.0345231
-0.0658906
1.98176
-0.00781804
-0.079155
2.06671
0.0205311
-0.084445
2.1513
0.0437825
-0.0848951
2.23286
0.0619482
-0.0829401
2.31035
0.0755092
-0.0799912
2.38357
0.0854794
-0.076788
2.45276
0.0930819
-0.073821
2.51839
0.0992886
-0.0713764
2.58127
0.105198
-0.0698493
2.64271
0.110317
-0.0696229
2.70508
0.117121
-0.0720398
2.77265
0.11755
-0.0776587
0.1243
-0.107578
1.60033
-0.00124767
1.40812e-05
1.60122
-0.0048516
-7.15511e-05
1.60298
-0.00933067
-0.00016846
1.60564
-0.0148169
-0.000288575
1.61067
-0.0206359
-0.000608198
1.61499
-0.0256775
-0.000655178
1.62124
-0.0361184
0.000399687
1.63039
-0.054723
0.000448077
1.64862
-0.0813632
0.0012093
1.67861
-0.131593
0.00267172
1.7112
-0.125127
0.00203445
1.7477
-0.0845157
0.000159492
1.74755
-0.0934008
-0.00312963
1.7636
-0.0561381
-0.0148134
1.79623
-0.0550972
-0.0344213
1.84744
-0.0524429
-0.0525517
1.91244
-0.0343405
-0.0651193
1.98616
-0.0105923
-0.0709023
2.06297
0.0148466
-0.0711082
2.13914
0.0360124
-0.0683822
2.21271
0.0529987
-0.0646068
2.28288
0.066025
-0.0606953
2.3494
0.0759731
-0.0570383
2.41235
0.0840054
-0.0539181
2.47206
0.0910181
-0.0514839
2.52911
0.0980883
-0.0500085
2.58457
0.104533
-0.049765
2.64048
0.113007
-0.0518827
2.70046
0.114248
-0.0567378
0.123239
-0.0820891
1.60029
-0.00152393
7.13789e-06
1.6012
-0.00566806
-7.80542e-05
1.60251
-0.0104383
-0.000182314
1.60454
-0.0165725
-0.000281137
1.60857
-0.0241062
-0.00058444
1.61538
-0.0312077
-0.00133135
1.61965
-0.0411245
0.000705466
1.62752
-0.0648248
0.00221339
1.6439
-0.101723
0.00402105
1.66525
-0.160946
0.00805297
1.71981
-0.186836
0.00720703
1.7419
-0.109627
0.00304416
1.75347
-0.098214
-0.00673467
1.76927
-0.0449888
-0.0268846
1.80593
-0.0456126
-0.0460965
1.85939
-0.0487272
-0.0570971
1.92193
-0.034799
-0.0620166
1.98942
-0.0159076
-0.0621363
2.05857
0.00398884
-0.0582829
2.12657
0.0208824
-0.0528634
2.19218
0.0348646
-0.0474726
2.25487
0.0460052
-0.0426882
2.31438
0.0549982
-0.0385599
2.37066
0.0628937
-0.0352053
2.42383
0.0704529
-0.0326554
2.47431
0.078638
-0.0310882
2.52289
0.0865328
-0.0306561
2.57127
0.0968264
-0.0322866
2.6223
0.0993223
-0.036168
0.110963
-0.0564909
1.60034
-0.00184088
-2.78799e-06
1.60101
-0.00621541
-0.000111017
1.60239
-0.0115026
-0.000297523
1.604
-0.0178478
-0.000340102
1.60603
-0.0258764
-0.000287777
1.61189
-0.0356118
-0.00148661
1.61746
-0.0465736
-0.000125796
1.61951
-0.0716662
0.00480896
1.63013
-0.121699
0.00936509
1.66348
-0.04291
0.0186066
-0.0531428
-0.0526836
-0.064083
1.73398
-0.0710802
0.0182632
-0.0549674
-0.0825455
-0.0669556
1.76039
-0.0341854
0.00938885
-0.0279554
-0.0420717
-0.0411619
1.76835
-0.0160501
-0.0136984
-0.0161889
-0.0287578
-0.0313992
1.78055
-0.00201083
-0.0435798
0.000362635
-0.00777498
-0.00406674
1.81987
-0.0267385
-0.0581483
1.87068
-0.0392512
-0.0602224
1.93032
-0.0365962
-0.0577947
1.99044
-0.0232428
-0.0527719
2.05145
-0.0115547
-0.0454708
2.11118
-0.00085605
-0.0379922
2.1689
0.0087257
-0.0315969
2.22426
0.0169634
-0.0263343
2.27687
0.0243432
-0.0219755
2.32646
0.0317295
-0.018457
2.37293
0.0397062
-0.0157652
2.41646
0.0490307
-0.0139794
2.45758
0.0585424
-0.0131966
2.49765
0.0708282
-0.0141579
2.53874
0.0750518
-0.0168853
0.0895347
-0.0319034
1.60017
-0.00198047
-1.27066e-05
1.60102
-0.00685168
-0.000204226
1.60252
-0.0121253
-0.000864617
1.6041
-0.0185687
-0.000858299
1.60425
-0.0267232
0.000664799
1.60589
-0.036803
-0.000460162
1.60984
-0.0500679
-0.000428552
1.60338
-0.0730026
0.00782656
0.401427
-0.0259345
0.0183153
0.398349
0.4026
0.399537
-0.0368061
-0.032089
-0.0436724
0.405522
-0.0497989
0.00283535
0.427513
-0.0874709
0.00384065
-0.414937
-0.43825
0.449749
-0.0485081
0.00284393
-0.451537
0.453694
-0.0164298
-0.0017168
-0.449336
0.447263
0.00419389
-0.00404014
1.83985
0.00837129
-0.0654923
-0.447615
-0.451533
-0.454324
-0.455943
1.88161
-0.0202202
-0.0607483
1.92572
-0.0268062
-0.0538743
1.97479
-0.0269884
-0.0453433
2.02569
-0.0268021
-0.03567
2.07666
-0.0247693
-0.0270775
2.12721
-0.0214778
-0.0203596
2.17667
-0.0175585
-0.0149517
2.22411
-0.0128211
-0.010303
2.26875
-0.00663932
-0.00629131
2.31008
0.00135124
-0.00300476
2.34784
0.0117146
-0.000490592
2.38226
0.0229687
0.00108781
2.41451
0.0373385
0.00117078
2.44606
0.0435782
-0.000147529
0.061075
-0.00952429
1.60007
-0.0020197
-2.16487e-05
1.60052
-0.00705372
-0.000232407
1.60212
-0.0126265
-0.00108698
1.60421
-0.0189836
-0.00168365
1.60333
-0.0262429
0.000370228
1.60201
-0.0365826
0.00109281
1.60102
-0.0501333
0.00110755
0.397371
-0.0688412
0.0109761
0.395867
0.397098
0.395586
0.394162
-0.0246798
0.00196233
0.391655
-0.0682212
0.00930526
0.0578931
-0.390549
0.436971
0.0216695
-0.40925
0.117192
-0.0489089
-0.0353799
-0.0463595
-0.0359533
0.456982
-0.459681
0.0649894
-0.0181768
-0.0272618
-0.0264462
-0.022877
0.012166
0.00449284
0.00513627
0.010875
-0.445161
0.440722
0.0223011
-0.00504514
-0.0146688
-0.0063949
-0.0135223
0.00663847
0.00338908
0.00317678
0.00867174
-0.43664
0.430256
-0.0093202
-0.00193563
0.00448729
0.00606746
0.000374298
0.00202068
0.0019978
0.00142435
0.00119685
1.66436
0.0228563
-0.0615881
-0.422274
-0.362567
-0.43385
-0.398518
1.71043
-0.0293419
-0.0369271
1.75923
-0.0548171
-0.0207908
1.81377
-0.0713686
-0.0102097
1.87112
-0.0818821
-0.00231664
1.93045
-0.086338
0.00220827
1.99114
-0.0862327
0.00404748
2.05129
-0.0828116
0.00509521
2.10845
-0.0765151
0.00651868
2.1607
-0.0673033
0.00840351
2.20692
-0.0553079
0.0104114
2.24676
-0.0404205
0.0122648
2.28056
-0.0245751
0.0136993
2.30921
-0.0057592
0.0143715
2.33475
0.0038135
0.0141613
0.0263139
0.0102321
1.60002
-0.00199701
-2.90749e-05
1.60017
-0.00699789
-0.000198301
1.60073
-0.0125146
-0.000661123
1.60223
-0.0187809
-0.00171557
1.60273
-0.0260663
-0.000705901
1.59938
-0.0347009
0.00145993
1.59191
-0.0447141
0.0020925
0.392997
-0.0554998
0.0121806
0.391357
0.391998
0.390112
0.383853
-0.0175565
0.00390706
0.0228098
0.0142126
-0.0930888
0.0908452
-0.0130835
0.00113924
0.0546525
-0.0951377
0.0842499
0.00890307
-0.0120322
-0.0136471
-0.0148799
-0.0120179
0.0719274
-0.0389697
0.0548137
-0.0945137
-0.000642247
0.00342183
0.00345566
0.00045793
-0.0682478
0.0397194
0.0691466
-0.0381921
-0.00171216
0.000419369
-0.000986882
-0.000128463
-0.0774782
0.00973339
-0.00721356
-0.00136014
0.0763029
1.20244
-0.234601
0.129961
-0.286126
-0.265165
-0.290545
-0.233044
1.32573
-0.244514
0.0918897
1.44453
-0.244023
0.0703772
1.55932
-0.238467
0.0522401
1.66774
-0.228117
0.0377522
1.77012
-0.214339
0.0255812
1.86584
-0.198382
0.0164128
1.95228
-0.180743
0.0114892
2.02698
-0.161738
0.0105149
2.08895
-0.141314
0.0120419
2.13847
-0.119491
0.0146556
2.17667
-0.0961412
0.0175009
2.20509
-0.0731822
0.0201547
2.2254
-0.0485443
0.0224079
2.23986
-0.0349411
0.0242394
-0.00715974
0.026035
1.59998
-0.00192594
-3.80223e-05
1.59999
-0.00677229
-0.000232346
1.60031
-0.0121049
-0.000725922
1.60147
-0.0181546
-0.00180519
1.60156
-0.0253458
-0.000841176
1.59823
-0.0325845
0.00119813
1.59071
-0.0387389
0.00160294
0.391642
-0.0421857
0.0111026
0.392731
0.39037
0.391661
0.0130285
0.383525
-0.00890431
0.00403672
0.00233924
-0.0911522
0.0843063
0.00257423
0.00194123
0.00365578
-0.0324018
0.066619
0.0300134
-0.0141142
-0.0209696
-0.0158822
-0.0169183
0.00897225
-0.0764473
0.075196
-0.00113194
-0.00660533
-0.0851004
0.0085608
-0.0110053
0.00480968
0.0827754
1.49941
-0.393532
0.0368112
-0.335272
-0.389174
-0.296358
-0.356469
1.60631
-0.352229
0.000810963
1.71002
-0.328538
-0.0192314
1.80719
-0.304622
-0.0310839
1.89421
-0.281297
-0.033896
1.96953
-0.258542
-0.0311527
2.03437
-0.23823
-0.0250078
2.08844
-0.21806
-0.0167559
2.13159
-0.197068
-0.00781362
2.16399
-0.174523
0.000812957
2.18629
-0.150321
0.00853154
2.19965
-0.124547
0.0150397
2.20509
-0.0992242
0.0205801
2.20382
-0.0727821
0.0254534
2.19553
-0.0570809
0.0303808
-0.0286144
0.0378512
1.59995
-0.00182103
-4.85159e-05
1.59999
-0.00646681
-0.000335689
1.60087
-0.0117087
-0.00128346
1.60195
-0.0172266
-0.00202861
1.60015
-0.0233195
-0.000262634
1.59702
-0.0295412
6.78711e-05
1.59487
-0.0360748
-0.000442757
0.395158
-0.0362634
0.00796849
0.395903
0.394669
0.395387
0.00423632
0.391074
-0.00291156
0.00280983
-0.00792184
0.0329239
0.0116039
-0.0125822
-0.00838528
-0.013302
0.0957614
0.0945331
0.0959406
0.0970355
-0.385679
-0.0307387
-0.105619
0.11105
0.00389764
0.0213774
0.00140955
-0.11574
0.118602
-0.00171871
-0.00258222
0.0195518
-0.116614
0.116602
-0.00177636
-0.0177148
0.0299492
-0.117397
-0.000907848
0.115777
-0.0273671
1.82234
-0.323514
-0.119958
-0.445391
-0.441153
-0.43691
-0.448981
1.88109
-0.296519
-0.11447
1.93712
-0.278362
-0.106242
1.99207
-0.26532
-0.0943153
2.04094
-0.252265
-0.0779611
2.08429
-0.241312
-0.0606128
2.12134
-0.230983
-0.0443103
2.15147
-0.218715
-0.0294735
2.17446
-0.203449
-0.0165951
2.1892
-0.183513
-0.00573503
2.19574
-0.160735
0.00389122
2.19443
-0.135413
0.0121822
2.18568
-0.110018
0.0195271
2.17025
-0.0838086
0.0264222
2.14629
-0.0671528
0.0339817
-0.0401102
0.0466967
1.59996
-0.00172305
-5.71565e-05
1.60014
-0.00626841
-0.000374147
1.60057
-0.0109194
-0.00122259
1.60056
-0.0157505
-0.00149504
1.59843
-0.020872
-0.000352723
1.59758
-0.0266758
-0.00202255
1.59902
-0.034497
-0.00295692
1.59189
-0.0325357
0.00351601
0.396755
-0.0108379
0.00980644
0.00285101
-0.00513679
0.00535026
-0.00183755
0.398756
0.397149
0.399161
-0.0211246
0.400777
0.0132547
0.00378453
-0.04385
0.424104
0.0296078
0.00310007
-0.413032
0.00975239
-0.432762
0.440518
-0.0121376
-0.00528408
0.0512212
-0.441041
0.443575
-0.0449928
-0.00872345
0.0871995
-0.443093
0.439564
-0.0709243
-0.0126967
1.82549
-0.254513
-0.121662
-0.440891
-0.437016
-0.448498
-0.446402
1.88545
-0.241679
-0.114805
1.94112
-0.231606
-0.102448
1.99351
-0.230346
-0.0874211
2.03997
-0.228431
-0.0703506
2.07965
-0.227183
-0.0538513
2.11251
-0.224546
-0.0393082
2.13787
-0.217577
-0.0264819
2.15469
-0.204911
-0.0153368
2.16358
-0.186672
-0.00569982
2.16377
-0.164356
0.00345295
2.15535
-0.138712
0.0117288
2.13889
-0.113255
0.0196952
2.11487
-0.087594
0.0277772
2.08108
-0.0705241
0.0371179
-0.045323
0.0543116
1.60006
-0.00171565
-6.27503e-05
1.59984
-0.00570419
-0.000348225
1.59957
-0.00988665
-0.000768923
1.5989
-0.0139608
-0.00114461
1.598
-0.0184257
-0.00158776
1.60034
-0.0254753
-0.00354879
1.60218
-0.0327623
-0.00352133
1.60037
-0.0298111
-0.000841432
1.60773
-0.0182187
1.42224e-05
1.63381
0.0053894
0.00170299
-0.00667121
-0.0113216
-0.00558522
-0.00976565
1.68845
-0.00728447
-0.0101668
-0.0194942
1.99733e-05
-0.0182061
0.000279602
1.71345
-0.0991016
-0.0234411
0.0202968
0.025703
0.0251703
0.026171
1.72307
-0.126238
-0.047659
0.0408642
0.0426056
0.0418393
0.0389357
1.7517
-0.192933
-0.0884132
0.0602563
0.0633866
0.0631597
0.0661045
1.80819
-0.201758
-0.109216
1.86833
-0.196781
-0.105023
1.9299
-0.199696
-0.0934956
1.98108
-0.201831
-0.0797499
2.02563
-0.208144
-0.0648822
2.06296
-0.21367
-0.0508714
2.09283
-0.215916
-0.0385145
2.1145
-0.211807
-0.027424
2.12723
-0.200253
-0.0173466
2.13069
-0.182104
-0.00799157
2.12446
-0.159429
0.00134204
2.10966
-0.134167
0.0102717
2.08638
-0.10921
0.0192365
2.05487
-0.0846018
0.028497
2.01278
-0.0678602
0.0393992
-0.045101
0.0605884
1.59995
-0.00159196
-6.97708e-05
1.59969
-0.0050837
-0.000368722
1.59899
-0.00844384
-0.000758139
1.5982
-0.0119182
-0.00127049
1.5985
-0.0165659
-0.00219852
1.60081
-0.0238715
-0.00392247
1.60007
-0.0285298
-0.00345881
1.60217
-0.0275353
-0.00434569
1.61267
-0.0225097
-0.00625362
1.62674
-0.000365946
-0.0084223
1.6708
-0.0338679
-0.0175672
1.69247
-0.0912158
-0.0296306
1.71185
-0.0973561
-0.0482235
1.74863
-0.147547
-0.0820905
1.80558
-0.157853
-0.100796
1.86714
-0.159668
-0.0986394
1.92297
-0.167165
-0.0883659
1.97152
-0.174388
-0.0760329
2.01323
-0.186426
-0.063476
2.04778
-0.196415
-0.0518264
2.07457
-0.201446
-0.0412572
2.09252
-0.19856
-0.0311796
2.10064
-0.187214
-0.0211104
2.09869
-0.168951
-0.0111576
2.08687
-0.146444
-0.00111882
2.06575
-0.121954
0.00894462
2.0358
-0.0982089
0.0189517
1.99756
-0.0757517
0.029378
1.94825
-0.0601692
0.0415928
-0.0404655
0.0660765
1.59992
-0.00144382
-7.42129e-05
1.59945
-0.00420328
-0.000410039
1.59886
-0.00702928
-0.000843756
1.59818
-0.00980629
-0.00144998
1.59882
-0.014751
-0.00248905
1.59781
-0.0192302
-0.00364043
1.5978
-0.0242238
-0.00429045
1.60014
-0.023061
-0.00681681
1.61113
-0.0235192
-0.0100378
1.63309
-0.00794076
-0.0144699
1.65821
-0.036427
-0.0226182
1.694
-0.0930841
-0.0339617
1.70496
-0.0576971
-0.0505609
1.74706
-0.109826
-0.0797367
1.80492
-0.118745
-0.0968749
1.86473
-0.123828
-0.0956034
1.91796
-0.134004
-0.0863922
1.96403
-0.144731
-0.0757543
2.00306
-0.159904
-0.0655939
2.03498
-0.172236
-0.0561194
2.05881
-0.178434
-0.0468241
2.07311
-0.175917
-0.0369128
2.07666
-0.164684
-0.0260251
2.06943
-0.146893
-0.0147575
2.05199
-0.125582
-0.00336705
2.02508
-0.103089
0.0080757
1.98955
-0.0817996
0.0191399
1.94545
-0.0622936
0.0306257
1.89012
-0.048693
0.0438423
-0.0326126
0.070991
1.59989
-0.00125158
-8.07614e-05
1.59941
-0.00328434
-0.00045004
1.59869
-0.00539884
-0.000926095
1.59788
-0.00742573
-0.00159523
1.59738
-0.0115842
-0.00269228
1.59659
-0.0146104
-0.00384638
1.59621
-0.0186801
-0.00517628
1.59999
-0.0186133
-0.00824969
1.60888
-0.0201765
-0.0122959
1.62898
-0.0101526
-0.0179535
1.65041
-0.0318764
-0.0260035
1.66547
-0.0714058
-0.0367592
1.70099
-0.040939
-0.0522347
1.74612
-0.0763727
-0.0784853
1.80457
-0.082444
-0.0946407
1.86305
-0.0881479
-0.0940938
1.91435
-0.0990379
-0.0862514
1.95814
-0.110969
-0.0775791
1.99495
-0.126969
-0.0697779
2.02459
-0.139745
-0.0621471
2.0457
-0.145943
-0.0535747
2.05652
-0.143494
-0.0432021
2.05575
-0.133002
-0.0308384
2.04357
-0.116941
-0.017699
2.02097
-0.0983265
-0.00458912
1.98894
-0.0792752
0.00826331
1.94852
-0.0617129
0.0203564
1.89963
-0.0460579
0.032649
1.83969
-0.0352471
0.0464867
-0.0229778
0.0756484
1.59982
-0.000990696
-8.77733e-05
1.59938
-0.00236787
-0.000481014
1.59858
-0.00362631
-0.000988265
1.5978
-0.00496214
-0.0017055
1.59688
-0.007856
-0.00282646
1.59628
-0.00988578
-0.00415111
1.59696
-0.0135452
-0.00582612
1.59966
-0.0121278
-0.00923129
1.60792
-0.0148384
-0.0136482
1.62615
-0.00838662
-0.0200307
1.64553
-0.023072
-0.0281993
1.66074
-0.0480082
-0.0386156
1.69875
-0.0255189
-0.0533554
1.74561
-0.046687
-0.0764258
1.80442
-0.0495491
-0.0915852
1.86202
-0.0539538
-0.0917182
1.91192
-0.0633799
-0.0855364
1.95407
-0.0739829
-0.0791547
1.9892
-0.0882181
-0.0739017
2.01693
-0.0993513
-0.0681242
2.03554
-0.104462
-0.0600584
2.04306
-0.102157
-0.0487981
2.03825
-0.0935117
-0.034599
2.0216
-0.0808639
-0.0193475
1.99444
-0.0667106
-0.00438646
1.95802
-0.0526227
0.00982374
1.91362
-0.0400038
0.0227161
1.86095
-0.0289441
0.0355615
1.79761
-0.0216414
0.0497337
-0.0130176
0.0802407
1.59982
-0.000729947
-9.51177e-05
1.59931
-0.00137268
-0.000506107
1.5986
-0.00190662
-0.00103609
1.59777
-0.00238977
-0.00178389
1.59678
-0.00403112
-0.0028868
1.59659
-0.00535746
-0.00440054
1.59586
-0.00659386
-0.00629519
1.59963
-0.00612513
-0.00987442
1.60757
-0.00834083
-0.0145467
1.62436
-0.00407353
-0.0211676
1.64277
-0.0120325
-0.0294531
1.65845
-0.023963
-0.0397174
1.69785
-0.0117442
-0.0531034
1.74587
-0.0210199
-0.0735639
1.80518
-0.021501
-0.0872354
1.86247
-0.0237428
-0.0874316
1.91172
-0.0299242
-0.0826819
1.95268
-0.0362046
-0.0787592
1.9865
-0.0454416
-0.076621
2.0125
-0.0523132
-0.0730424
2.02869
-0.0552332
-0.0653858
2.03306
-0.0535069
-0.0529499
2.02462
-0.048211
-0.036771
2.00417
-0.0409357
-0.0193971
1.97325
-0.0330891
-0.00262429
1.93327
-0.0254239
0.0128319
1.8858
-0.0188033
0.0262942
1.83028
-0.0128971
0.039476
1.76465
-0.00965873
0.0536459
-0.00426635
0.0851528
1.59936
-9.95344e-05
1.5985
-0.000517932
1.59764
-0.00107223
1.59706
-0.00183586
1.59593
-0.00293412
1.5951
-0.00456472
1.59509
-0.00662764
1.59918
-0.0102794
1.6059
-0.0151056
1.62358
-0.0217684
1.64171
-0.0301458
1.65771
-0.0399407
1.6984
-0.052369
1.74831
-0.0708509
1.80904
-0.0821684
1.86658
-0.0812492
1.91448
-0.0778203
1.95525
-0.0769899
1.98788
-0.0780726
2.01224
-0.076669
2.02629
-0.0692646
2.02805
-0.055228
2.0168
-0.0369129
1.99349
-0.0175806
1.95974
0.000700061
1.91717
0.0171691
1.86739
0.0309918
1.80987
0.0446352
1.74204
0.0581726
0.0913743
1.60002
3.11354e-05
-2.08964e-05
1.60103
-0.000878493
-0.000175384
1.60331
-0.00206979
-0.00036882
1.60688
-0.00322014
-0.000634651
1.61244
-0.00519066
-0.000838511
1.61932
-0.00639728
-0.00122791
1.62833
-0.0080117
-0.00170545
1.64189
-0.0124817
-0.00228616
1.65767
-0.0141894
-0.00299205
1.67638
-0.0166264
-0.00383672
1.70007
-0.0209636
-0.00473837
1.71338
-0.00943016
-0.00588134
1.74134
-0.0238658
-0.00488685
1.77471
-0.0215167
-0.00887491
1.83514
-0.0221093
-0.034186
1.93843
-0.0243965
-0.0940492
2.06512
-0.0210823
-0.165975
2.18415
-0.0138614
-0.206393
2.29
-0.00625135
-0.221755
2.3868
-0.00307636
-0.222965
2.47747
-0.00170844
-0.218916
2.56337
-0.000951706
-0.212872
2.64543
-0.000340558
-0.206604
2.72443
0.000453627
-0.201269
2.80193
0.0016169
-0.19837
2.87622
0.00343053
-0.195593
2.95023
0.00551134
-0.19741
3.02383
0.00882769
-0.204215
3.10424
0.00997398
-0.218773
0.0172975
-0.263406
1.60041
-0.000325201
-2.00205e-05
1.60169
-0.00203839
-0.000175847
1.60404
-0.00420087
-0.000370406
1.60746
-0.0062528
-0.000679689
1.6123
-0.00979341
-0.000754337
1.61919
-0.012828
-0.00116482
1.62833
-0.0161525
-0.00157653
1.64125
-0.0244195
-0.0020477
1.65811
-0.0296333
-0.00261174
1.67847
-0.0352037
-0.00331916
1.70036
-0.0403156
-0.00419705
1.71452
-0.0193139
-0.00589792
1.74233
-0.0468701
-0.00544349
1.77791
-0.0426019
-0.0129151
1.83609
-0.0422929
-0.0386604
1.92992
-0.0472253
-0.0908164
2.0448
-0.041683
-0.152246
2.15351
-0.0274134
-0.186439
2.25458
-0.0159189
-0.20033
2.34837
-0.0103992
-0.201868
2.43634
-0.00766979
-0.19831
2.51959
-0.00616262
-0.192651
2.59901
-0.0049958
-0.186638
2.67587
-0.00350388
-0.181902
2.74988
-0.00123542
-0.177665
2.82151
0.00219736
-0.175405
2.89248
0.00633954
-0.176698
2.96355
0.0122775
-0.182567
3.03962
0.0155493
-0.196443
0.0270648
-0.237749
1.60036
-0.000632649
-2.05075e-05
1.60165
-0.00320355
-0.000178863
1.60377
-0.00608945
-0.000376098
1.60707
-0.00908509
-0.000762287
1.61152
-0.0141924
-0.000635309
1.61782
-0.0186915
-0.00108131
1.62822
-0.0255388
-0.00137643
1.63961
-0.0349618
-0.00165371
1.6565
-0.0454054
-0.00194506
1.67767
-0.0549881
-0.00239854
1.69389
-0.0543388
-0.00330832
1.71694
-0.0377235
-0.00578837
1.74683
-0.0698523
-0.00758774
1.78488
-0.060066
-0.0215653
1.8458
-0.0593395
-0.0529958
1.93303
-0.065672
-0.100893
2.03366
-0.0594044
-0.145704
2.1316
-0.0424199
-0.168671
2.22517
-0.0295869
-0.176932
2.31322
-0.0227348
-0.176443
2.39629
-0.0191333
-0.172089
2.47504
-0.0171147
-0.166149
2.55078
-0.0156004
-0.160656
2.62315
-0.0133594
-0.155164
2.69234
-0.0100231
-0.150608
2.75983
-0.00500955
-0.148931
2.82649
0.0011638
-0.14994
2.89308
0.00967914
-0.155177
2.96435
0.0149134
-0.168075
0.030541
-0.20585
1.60038
-0.00096023
-2.1348e-05
1.60149
-0.00417973
-0.000184768
1.6035
-0.0078608
-0.000385592
1.60668
-0.0117506
-0.000812553
1.61076
-0.0183537
-0.000536788
1.61628
-0.0238469
-0.00094662
1.62496
-0.0332706
-0.00104012
1.63709
-0.0465015
-0.000945665
1.65407
-0.0618868
-0.000676902
1.67745
-0.0774189
-0.000736975
1.70164
-0.0768949
-0.00167575
1.72178
-0.0518571
-0.006781
1.75146
-0.0896925
-0.0110025
1.79435
-0.0743498
-0.0347005
1.85798
-0.0725426
-0.0712399
1.9386
-0.0799995
-0.110866
2.02653
-0.0749725
-0.138246
2.11368
-0.0588868
-0.149837
2.19832
-0.0469435
-0.15173
2.27898
-0.0402107
-0.148082
2.35557
-0.0365626
-0.142101
2.42834
-0.0344982
-0.135391
2.49871
-0.0328094
-0.129967
2.56491
-0.0298524
-0.123554
2.62871
-0.0253571
-0.119876
2.69068
-0.0185899
-0.118277
2.75164
-0.0102347
-0.119238
2.81233
0.000951613
-0.124056
2.87711
0.00823014
-0.135787
0.027913
-0.169493
1.60036
-0.00127191
-2.32263e-05
1.60134
-0.005015
-0.000194891
1.60321
-0.00948799
-0.000400243
1.60661
-0.0145958
-0.000842534
1.60699
-0.0177237
-0.00164723
1.6144
-0.0324801
0.00050674
1.62226
-0.0402891
-0.000499499
1.63302
-0.05709
0.000249135
1.6509
-0.0802381
0.00168274
1.67947
-0.105919
0.00265942
1.71077
-0.108151
0.0020715
1.7512
-0.0850001
-0.0070623
1.76022
-0.0837438
-0.0180709
1.80535
-0.0810439
-0.0532351
1.86827
-0.0801246
-0.0897512
1.94198
-0.0911704
-0.115071
2.01963
-0.0897286
-0.127993
2.0969
-0.0769265
-0.13013
2.17224
-0.0674947
-0.125904
2.24456
-0.0622558
-0.118658
2.31356
-0.0595436
-0.110632
2.37988
-0.058238
-0.10329
2.44246
-0.0561251
-0.0963199
2.50209
-0.0526501
-0.0907699
2.55936
-0.046785
-0.0873546
2.61462
-0.0379713
-0.0859227
2.66862
-0.0271371
-0.0869121
2.72208
-0.0131038
-0.091335
2.77884
-0.00359363
-0.101716
0.0199465
-0.130698
1.60041
-0.00164071
-2.6266e-05
1.60124
-0.00567713
-0.000226113
1.60271
-0.0106704
-0.00045731
1.60536
-0.016701
-0.000825602
1.61246
-0.0228766
-0.00256541
1.61212
-0.0352293
0.00171114
1.61879
-0.0465821
0.000289667
1.62789
-0.0661424
0.00215368
1.64517
-0.0994048
0.00589783
1.67979
-0.142427
0.0100152
1.73119
-0.162601
0.0103614
1.74879
-0.0938708
-0.00564175
1.78754
-0.0993655
-0.0298287
1.81841
-0.0605979
-0.0781632
1.87768
-0.07969
-0.1058
1.9449
-0.0988022
-0.116667
2.01247
-0.102077
-0.117229
2.07961
-0.0949279
-0.111269
2.14536
-0.0899701
-0.101565
2.20879
-0.0877489
-0.0907962
2.27029
-0.0875084
-0.0810202
2.32803
-0.0866603
-0.0720206
2.38275
-0.0850426
-0.0643759
2.43503
-0.0808249
-0.0593351
2.48483
-0.0732322
-0.0560328
2.53239
-0.0619357
-0.0547174
2.57839
-0.0482141
-0.0556168
2.62348
-0.0311132
-0.0594202
2.67096
-0.0191536
-0.0681173
0.00785687
-0.0917364
1.60022
-0.00181863
-3.76674e-05
1.60131
-0.00658519
-0.000274596
1.60265
-0.0114394
-0.000855713
1.60471
-0.0180574
-0.00104784
1.60855
-0.0255819
-0.00145297
1.60777
-0.0364019
0.000431404
1.61008
-0.0515793
0.00254568
1.6182
-0.0746027
0.00515646
1.6387
-0.123797
0.013284
1.66824
-0.0445724
0.024483
-0.0494101
-0.0432255
-0.0405509
1.72711
-0.0659175
0.0289993
-0.0573342
-0.0554309
-0.0534552
1.75192
-0.0293282
0.000343587
-0.0306245
-0.0235054
-0.0261693
1.78892
-0.0209139
-0.051213
-0.0287865
-0.0179703
-0.0311542
1.83212
-0.0069366
-0.108123
-0.00871016
-0.00827748
-0.0153136
1.88711
-0.0698686
-0.122982
1.94515
-0.0989464
-0.118106
2.00142
-0.108358
-0.107781
2.05751
-0.109085
-0.0947041
2.11346
-0.111292
-0.0801048
2.16883
-0.114702
-0.0664232
2.22112
-0.117065
-0.0543331
2.27099
-0.118754
-0.0441209
2.31829
-0.117732
-0.0366044
2.36299
-0.112555
-0.0314387
2.40491
-0.102756
-0.0281852
2.44425
-0.0884586
-0.0268286
2.48162
-0.0714577
-0.0273541
2.51763
-0.051158
-0.0301655
2.55495
-0.036647
-0.0367488
-0.00678288
-0.0544437
1.60022
-0.00199266
-5.45233e-05
1.60084
-0.00687925
-0.000506595
1.60199
-0.0127842
-0.000661888
1.60319
-0.0190963
-0.00103083
1.6063
-0.0257029
-0.00234712
1.60683
-0.0379129
0.000497192
1.60351
-0.053351
0.0046829
1.60776
-0.0802398
0.0092358
0.403185
-0.0293384
0.0272227
0.400809
0.404517
0.401897
-0.0389292
-0.0294741
-0.037632
-0.00760443
0.407257
-0.0513882
0.0103869
-0.0113291
0.428242
-0.079949
0.0145486
-0.417365
-0.00709988
-0.438464
0.445835
-0.0372209
0.00759444
-0.000414073
-0.448362
0.453086
-0.0218896
-0.00332232
0.00880029
-0.457036
0.460115
0.000951397
-0.0197293
1.88615
-0.0173704
-0.141504
-0.462975
-0.464338
-0.467011
-0.468336
1.92411
-0.0768749
-0.120791
1.96581
-0.102477
-0.101451
2.01335
-0.119175
-0.0828114
2.06195
-0.132071
-0.0635046
2.11039
-0.143028
-0.0471972
2.15773
-0.151375
-0.0334043
2.20274
-0.155814
-0.0229009
2.24468
-0.154851
-0.015141
2.28312
-0.147599
-0.00970088
2.31795
-0.134398
-0.00620634
2.34953
-0.116178
-0.00436481
2.37844
-0.0953385
-0.00397339
2.40528
-0.071655
-0.00521415
2.43219
-0.0545967
-0.0091392
-0.022487
-0.0203569
1.60013
-0.00207262
-6.38037e-05
1.60075
-0.00711582
-0.000603167
1.60083
-0.0127912
-0.00115185
1.5996
-0.0196335
7.64936e-05
1.60377
-0.0270694
-0.00246251
1.60308
-0.0362904
0.00014464
1.59735
-0.0506623
0.00417544
0.39722
-0.0726688
0.0155864
0.395296
0.397737
0.394938
-0.00535314
0.395063
-0.0289182
0.00708659
0.393139
-0.0633028
0.0222169
-0.0168188
0.0581329
-0.393309
0.0397665
-0.0370155
-0.412309
0.0972015
0.109702
0.108413
0.109127
0.108738
-0.025987
-0.0338923
-0.0320116
-0.0315976
-0.00490273
-0.112582
0.0123332
0.115185
-0.0140632
0.00404241
-0.115742
-0.00257291
0.00647268
0.116102
-0.00619523
0.00194625
-0.117064
0.00169589
-0.00285277
0.00545325
-0.00388226
0.11666
1.74547
0.0536504
-0.150118
-0.445958
-0.413401
-0.450131
-0.4185
1.7807
-0.0457014
-0.103332
1.83054
-0.0978304
-0.0752886
1.88999
-0.132545
-0.0563183
1.95265
-0.158531
-0.0385324
2.01387
-0.177673
-0.0243791
2.0699
-0.190379
-0.0129855
2.11898
-0.195573
-0.00422791
2.16081
-0.192613
0.00244246
2.19603
-0.181703
0.00728371
2.22555
-0.164167
0.0106595
2.25033
-0.141678
0.0129685
2.27132
-0.117115
0.0144634
2.28934
-0.0904522
0.0151083
2.30604
-0.0713641
0.0142044
-0.0376898
0.00971501
1.60005
-0.00207298
-6.89728e-05
1.60034
-0.00713134
-0.000470434
1.60141
-0.0127059
-0.00180673
1.60056
-0.0190624
-0.00145137
1.60091
-0.0264909
-0.00166708
1.60118
-0.0354338
0.000315108
1.5958
-0.0456864
0.00253468
0.394024
-0.057245
0.0191012
0.393078
0.392913
0.393492
0.385111
-0.0216875
0.0104129
-0.00744086
0.0276287
-0.00682678
0.0151641
-0.0936059
0.0915804
-0.0146809
0.00838003
-0.00733376
0.0122946
-0.0250223
0.0268885
-0.0141689
0.00736499
0.00229841
0.000531555
-0.00773583
0.00842518
-0.00216767
-0.000281847
-0.000443018
-0.000341016
-0.00028687
0.00166978
7.77083e-05
-0.00616786
0.00613448
-0.00161094
1.0435e-06
-6.68174e-05
-9.72853e-06
-2.71057e-05
-0.00601991
0.00075848
-0.00105926
0.00125681
-0.000861277
0.00592396
1.13387
-0.150165
0.0223629
-0.267279
-0.167482
-0.256238
-0.131469
1.36976
-0.179531
-0.0101733
1.56269
-0.194758
-0.0256383
1.72007
-0.207272
-0.0304493
1.84356
-0.218909
-0.0253902
1.9379
-0.229113
-0.0173372
2.00797
-0.235579
-0.00845889
2.05931
-0.235241
-0.000177159
2.09716
-0.226903
0.00695272
2.12541
-0.210771
0.0128657
2.14651
-0.18837
0.0177581
2.16202
-0.161688
0.021993