/*--------------------------------*- C++ -*----------------------------------*\
| =========                 |                                                 |
| \\      /  F ield         | OpenFOAM: The Open Source CFD Toolbox           |
|  \\    /   O peration     | Version:  2512                                  |
|   \\  /    A nd           | Website:  www.openfoam.com                      |
|    \\/     M anipulation  |                                                 |
\*---------------------------------------------------------------------------*/
FoamFile
{
    version     2.0;
    format      ascii;
    arch        "LSB;label=32;scalar=64";
    class       volVectorField;
    location    "160";
    object      U;
}
// * * * * * * * * * * * * * * * * * * * * * * * * * * * * * * * * * * * * * //

dimensions      [0 1 -1 0 0 0 0];

internalField   nonuniform List<vector> 
90398
(
(20.001 -0.00151773 -7.4254e-05)
(20.0115 -0.00484988 -0.000349943)
(20.0353 -0.00862605 -0.000672076)
(20.0746 -0.0131389 -0.00107208)
(20.1317 -0.0187046 -0.00159108)
(20.2106 -0.025683 -0.00223563)
(20.3175 -0.0343451 -0.00281395)
(20.4598 -0.0447591 -0.00341152)
(20.6434 -0.0559506 -0.00427965)
(20.8706 -0.06639 -0.00530739)
(21.1333 -0.0721959 -0.00635409)
(21.4071 -0.0694616 -0.0054766)
(21.6558 -0.0631117 0.00131577)
(21.8549 -0.0626337 0.0237031)
(22.006 -0.0738371 0.0632533)
(22.2711 -0.079566 0.0589792)
(22.9914 -0.0500664 -0.0877678)
(24.1613 0.00509638 -0.296195)
(25.5329 0.0580162 -0.457083)
(26.9111 0.0982909 -0.547456)
(28.2145 0.126638 -0.586805)
(29.4256 0.145931 -0.596867)
(30.5483 0.15892 -0.592211)
(31.5961 0.168102 -0.581474)
(32.5764 0.1751 -0.568936)
(33.5227 0.181926 -0.559449)
(34.3976 0.187098 -0.553479)
(35.4004 0.196588 -0.566887)
(36.0524 0.193575 -0.57367)
(37.9863 0.208623 -0.788284)
(20.001 -0.00449495 -8.87373e-05)
(20.0112 -0.0143784 -0.000377132)
(20.0344 -0.0255924 -0.000706854)
(20.0727 -0.0390092 -0.00110874)
(20.1282 -0.0556192 -0.00159656)
(20.2052 -0.0765736 -0.00214104)
(20.31 -0.102791 -0.00254014)
(20.4507 -0.134726 -0.0028806)
(20.6342 -0.169844 -0.00330858)
(20.865 -0.202979 -0.00382375)
(21.1354 -0.221244 -0.00480938)
(21.4164 -0.211344 -0.00372987)
(21.6652 -0.188686 0.00359043)
(21.8567 -0.183264 0.0244766)
(22.0227 -0.210713 0.0497524)
(22.3271 -0.227257 0.0270882)
(23.0173 -0.155797 -0.0993093)
(24.0898 -0.0170748 -0.268722)
(25.3542 0.122849 -0.401803)
(26.6462 0.234699 -0.48045)
(27.8861 0.316633 -0.517418)
(29.0497 0.374157 -0.528833)
(30.1345 0.413884 -0.526453)
(31.15 0.442145 -0.517452)
(32.1016 0.46353 -0.506209)
(33.0196 0.483355 -0.496984)
(33.8687 0.498949 -0.49151)
(34.8379 0.523023 -0.501496)
(35.4718 0.518499 -0.511082)
(37.3304 0.548549 -0.70609)
(20.001 -0.00732814 -9.05179e-05)
(20.0106 -0.0234678 -0.000379249)
(20.0325 -0.0417913 -0.000705372)
(20.0688 -0.063746 -0.00108744)
(20.1213 -0.0910731 -0.00150977)
(20.1945 -0.125818 -0.00188006)
(20.295 -0.1701 -0.00205029)
(20.4321 -0.225092 -0.00199109)
(20.6154 -0.287372 -0.00174946)
(20.8537 -0.348056 -0.00147476)
(21.1418 -0.380951 -0.0025739)
(21.4403 -0.357428 -0.00177766)
(21.6892 -0.309101 0.00635507)
(21.869 -0.289802 0.0223084)
(22.0562 -0.319969 0.0264845)
(22.4374 -0.329028 -0.0269788)
(23.1554 -0.223344 -0.147804)
(24.1609 -0.0360284 -0.277417)
(25.3128 0.15491 -0.370985)
(26.4935 0.312826 -0.42409)
(27.639 0.432543 -0.447538)
(28.7248 0.519059 -0.452845)
(29.7445 0.580174 -0.447911)
(30.7039 0.624434 -0.438085)
(31.6056 0.65849 -0.427065)
(32.4759 0.689343 -0.41803)
(33.2812 0.714515 -0.412622)
(34.1971 0.7489 -0.420896)
(34.7989 0.746743 -0.429909)
(36.5362 0.779951 -0.605963)
(20.0009 -0.00994528 -9.42824e-05)
(20.0097 -0.0318645 -0.000391462)
(20.0298 -0.056766 -0.000714472)
(20.063 -0.0866491 -0.00107464)
(20.111 -0.124076 -0.00140625)
(20.1781 -0.172234 -0.00155866)
(20.2713 -0.235034 -0.00136065)
(20.4015 -0.315518 -0.000615137)
(20.5826 -0.411371 0.000877371)
(20.8327 -0.510724 0.00276203)
(21.1531 -0.562082 0.00150668)
(21.4833 -0.509047 0.000843396)
(21.7322 -0.417072 0.00756986)
(21.8948 -0.37106 0.0119327)
(22.1165 -0.390984 -0.0129429)
(22.5817 -0.374815 -0.0897412)
(23.3259 -0.241009 -0.192648)
(24.2715 -0.0341625 -0.281448)
(25.3171 0.172923 -0.337864)
(26.3848 0.347444 -0.365322)
(27.4271 0.483416 -0.373363)
(28.4218 0.584357 -0.370257)
(29.3617 0.657762 -0.36091)
(30.25 0.712576 -0.349103)
(31.0869 0.756145 -0.337601)
(31.8949 0.796531 -0.328513)
(32.6421 0.830523 -0.323006)
(33.4868 0.875743 -0.329874)
(34.045 0.875583 -0.337664)
(35.6185 0.918144 -0.491874)
(20.0008 -0.0122634 -0.000100392)
(20.0086 -0.0393014 -0.000411812)
(20.0263 -0.0700174 -0.000736923)
(20.0554 -0.10691 -0.0010524)
(20.0973 -0.153444 -0.00129644)
(20.1556 -0.214162 -0.001214)
(20.2374 -0.2959 -0.000437286)
(20.355 -0.40549 0.00163119)
(20.5285 -0.545534 0.00548697)
(20.7955 -0.706077 0.0113309)
(21.174 -0.784403 0.00984283)
(21.5571 -0.672514 0.0053541)
(21.8055 -0.505242 0.00476345)
(21.9446 -0.407635 -0.0121955)
(22.2023 -0.410691 -0.0665624)
(22.7281 -0.383598 -0.143973)
(23.4852 -0.246462 -0.219382)
(24.375 -0.0467177 -0.272158)
(25.3239 0.151327 -0.297472)
(26.2846 0.320919 -0.302364)
(27.2236 0.456347 -0.295887)
(28.1226 0.559379 -0.283856)
(28.9752 0.636542 -0.269535)
(29.783 0.696853 -0.255508)
(30.5448 0.747399 -0.243118)
(31.2786 0.796457 -0.233649)
(31.9557 0.839524 -0.227851)
(32.7132 0.896181 -0.233114)
(33.2166 0.899995 -0.239452)
(34.5917 0.956874 -0.36912)
(20.0006 -0.0141931 -0.000109045)
(20.0072 -0.0455252 -0.000431787)
(20.0221 -0.0811055 -0.000775047)
(20.0463 -0.123758 -0.00106293)
(20.0805 -0.17784 -0.00114615)
(20.1268 -0.24949 -0.000687815)
(20.1915 -0.349543 0.00107772)
(20.287 -0.492452 0.00556597)
(20.44 -0.695824 0.0137089)
(20.729 -0.956846 0.0303594)
(21.2097 -1.06904 0.029664)
(21.682 -0.845348 0.0180628)
(21.9184 -0.551216 0.000543163)
(22.0235 -0.356423 -0.0473754)
(22.2927 -0.35125 -0.119026)
(22.8602 -0.350067 -0.182919)
(23.6255 -0.24462 -0.229395)
(24.4618 -0.0832385 -0.253756)
(25.3195 0.0790547 -0.25565)
(26.1781 0.222723 -0.243064)
(27.0157 0.341858 -0.22437)
(27.8182 0.436124 -0.20444)
(28.5807 0.510549 -0.18559)
(29.3033 0.573066 -0.168992)
(29.9833 0.629797 -0.1549)
(30.6345 0.688468 -0.14395)
(31.2316 0.742932 -0.136662)
(31.888 0.813562 -0.139181)
(32.3262 0.825656 -0.143086)
(33.4736 0.901977 -0.24594)
(20.0005 -0.0156973 -0.000123906)
(20.0057 -0.0503221 -0.000475123)
(20.0175 -0.0895934 -0.000808704)
(20.0361 -0.136536 -0.00108514)
(20.0611 -0.196006 -0.00105881)
(20.0923 -0.275332 -0.000142499)
(20.1321 -0.390943 0.00318756)
(20.1879 -0.567021 0.0115601)
(20.2951 -0.874469 0.0299445)
(20.6016 -1.31523 0.0672572)
(21.2571 -1.45558 0.0666062)
(21.8923 -1.03491 0.0384268)
(22.14 -0.588438 -0.0143311)
(22.2094 -0.261731 -0.109798)
(22.4407 -0.292559 -0.185101)
(23.0172 -0.320402 -0.220229)
(23.7639 -0.237594 -0.231633)
(24.5254 -0.115597 -0.227164)
(25.2818 0.000558549 -0.208093)
(26.0361 0.104708 -0.181412)
(26.7731 0.194308 -0.154295)
(27.481 0.268165 -0.129917)
(28.1548 0.330099 -0.108824)
(28.7928 0.387178 -0.0905233)
(29.3901 0.444532 -0.0746282)
(29.9551 0.508831 -0.0616256)
(30.4666 0.572347 -0.0520925)
(31.0125 0.655264 -0.0511591)
(31.3773 0.677212 -0.0521441)
(32.277 0.77296 -0.127382)
(20.0003 -0.016736 -0.000142653)
(20.0041 -0.0536257 -0.000539927)
(20.0127 -0.0952436 -0.000924969)
(20.0254 -0.144512 -0.00111637)
(20.0406 -0.206581 -0.000870715)
(20.0543 -0.288571 0.000513913)
(20.0605 -0.412139 0.0058255)
(20.0453 -0.605534 0.0193227)
(20.0282 -1.0411 0.0627013)
(20.2066 -1.38389 0.0574676)
(21.0179 -1.97732 0.054939)
(22.1594 -1.33245 -0.00426319)
(22.5155 -0.434244 -0.0602887)
(22.4643 0.0900287 -0.0678262)
(22.6925 -0.119474 -0.187837)
(23.1683 -0.325414 -0.218545)
(23.7937 -0.323227 -0.221702)
(24.4019 -0.267429 -0.206419)
(25.0168 -0.210107 -0.17615)
(25.6533 -0.148873 -0.141351)
(26.2936 -0.0861038 -0.109979)
(26.9215 -0.0264602 -0.0833658)
(27.5274 0.0312594 -0.0596575)
(28.1032 0.0920535 -0.0375318)
(28.6387 0.159377 -0.0168567)
(29.1353 0.238295 0.00135591)
(29.5729 0.319045 0.0158778)
(30.0153 0.420419 0.0223708)
(30.3121 0.458986 0.0253959)
(30.968 0.579227 -0.0208229)
(20.0002 -0.017294 -0.000167728)
(20.0026 -0.0553695 -0.000624564)
(20.008 -0.0980013 -0.00108931)
(20.015 -0.14778 -0.00141841)
(20.0211 -0.209262 -0.00116023)
(20.0166 -0.288323 0.000798067)
(19.9873 -0.403326 0.00716818)
(19.8722 -0.594318 0.0322536)
(19.7708 -0.798795 0.0370647)
(19.5558 -1.99125 0.133016)
(21.1504 -3.52611 0.244763)
(23.108 -2.39022 0.674408)
(22.1349 -0.844775 0.635979)
(21.7094 0.344256 0.42224)
(20.3026 0.497449 -0.115515)
(20.9571 0.173074 -0.0961756)
(21.7085 0.0395171 -0.0488983)
(22.3635 -0.0452168 0.00227354)
(23.0343 -0.118155 0.0486354)
(23.7642 -0.168458 0.0779639)
(24.5265 -0.196194 0.0865399)
(25.2897 -0.206407 0.0826991)
(26.0272 -0.199204 0.0769369)
(26.7138 -0.171108 0.0750456)
(27.3289 -0.120751 0.0779175)
(27.8668 -0.0456672 0.0837321)
(28.3167 0.0407854 0.090269)
(28.721 0.153602 0.0939419)
(28.9902 0.203532 0.0957042)
(29.4506 0.345576 0.0740424)
(20.0001 -0.0173778 -0.000198475)
(20.0012 -0.0555844 -0.000730663)
(20.0038 -0.0979811 -0.00128771)
(20.0059 -0.146638 -0.00175918)
(20.0048 -0.204473 -0.00173396)
(19.9855 -0.275027 -0.000152471)
(19.932 -0.367523 0.00733052)
(19.7042 -0.496777 0.0378662)
(19.4041 -0.654014 0.0664012)
(18.4605 -1.55867 0.0939637)
(19.813 -6.33233 -0.368317)
(9.57169 -11.3791 -1.83099)
(13.9759 -5.09359 -0.646879)
(15.5295 -0.940592 -0.123373)
(13.7468 -0.0384707 0.622872)
(15.6349 -0.609243 0.513569)
(17.4003 -0.898172 0.487173)
(18.8495 -1.05369 0.45411)
(20.1948 -1.1279 0.398028)
(21.5124 -1.13693 0.318823)
(22.7669 -1.09934 0.23217)
(23.9144 -1.03007 0.160162)
(24.9242 -0.936918 0.115282)
(25.7776 -0.823103 0.0965549)
(26.47 -0.691768 0.0957746)
(27.0125 -0.543257 0.104189)
(27.4197 -0.393103 0.115694)
(27.722 -0.225623 0.126455)
(27.9127 -0.137043 0.135057)
(28.095 0.0568177 0.14312)
(20 -0.0170192 -0.000234769)
(20 -0.0543817 -0.000853248)
(20.0002 -0.0954255 -0.00153183)
(19.9987 -0.141647 -0.00217957)
(19.9926 -0.194195 -0.00233321)
(19.968 -0.253672 -0.00108086)
(19.9076 -0.3135 0.0056467)
(19.6842 -0.35194 0.0339211)
(19.3231 -0.273149 0.0691359)
(17.4575 0.143598 0.146074)
(10.5891 0.819655 -6.20099)
(16.3101 -0.693841 -1.48595)
(16.9526 -1.14807 -0.117723)
(17.6021 -3.4279 0.759995)
(19.2779 -3.0535 0.410765)
(20.8255 -2.76832 0.180089)
(22.0771 -2.52103 0.0228088)
(23.1848 -2.28628 -0.0740605)
(24.1953 -2.06598 -0.122864)
(25.0805 -1.86167 -0.133568)
(25.8237 -1.6678 -0.114233)
(26.4279 -1.47764 -0.075601)
(26.8971 -1.28547 -0.0285629)
(27.2334 -1.08927 0.0183)
(27.4484 -0.887557 0.0596346)
(27.5627 -0.694007 0.094091)
(27.5709 -0.49305 0.122548)
(27.5466 -0.378895 0.146531)
(27.2894 -0.160254 0.187177)
(19.9999 -0.0162622 -0.000275865)
(19.9991 -0.0519094 -0.000999731)
(19.9974 -0.090695 -0.00182739)
(19.9934 -0.133528 -0.00268389)
(19.9846 -0.18021 -0.00335919)
(19.9629 -0.228604 -0.003057)
(19.9143 -0.265285 0.001599)
(19.7918 -0.243717 0.0195409)
(19.5866 -0.030473 0.0490209)
(19.1294 1.23974 0.180181)
(21.8774 2.47771 0.208451)
(23.3132 -0.223595 0.0456257)
(23.3045 -2.25162 0.0241459)
(23.4264 -3.51939 -0.0218412)
(22.2581 -2.74539 -0.355318)
(23.0547 -2.38185 -0.46698)
(23.9043 -2.21115 -0.521999)
(24.6083 -2.0821 -0.525477)
(25.2406 -1.9536 -0.480473)
(25.824 -1.8363 -0.405519)
(26.3334 -1.72793 -0.319565)
(26.7542 -1.61396 -0.232828)
(27.0819 -1.48416 -0.152175)
(27.3144 -1.33381 -0.0813607)
(27.4457 -1.16362 -0.0202366)
(27.4706 -0.976253 0.0312952)
(27.4099 -0.78903 0.0744442)
(27.2288 -0.593483 0.112155)
(27.0669 -0.4745 0.146394)
(26.4804 -0.266394 0.214815)
(19.9998 -0.0151548 -0.000321603)
(19.9983 -0.0483281 -0.0011594)
(19.9953 -0.0841601 -0.00215732)
(19.9898 -0.123 -0.00334817)
(19.9806 -0.163983 -0.00453937)
(19.9647 -0.203545 -0.00518533)
(19.9384 -0.225133 -0.00342026)
(19.8957 -0.202329 0.00444521)
(19.8822 0.0119474 0.0313727)
(19.9214 0.443294 0.0706282)
(20.912 0.638277 0.080892)
(21.881 -0.323941 -0.0462601)
(22.1792 -1.44461 -0.106404)
(22.132 -2.35009 -0.172169)
(22.3852 -2.09135 -0.529768)
(23.1257 -1.92439 -0.565733)
(23.9364 -1.88137 -0.549923)
(24.6341 -1.84369 -0.502701)
(25.2437 -1.79578 -0.43021)
(25.7836 -1.75391 -0.346017)
(26.242 -1.70898 -0.263454)
(26.6077 -1.64109 -0.187918)
(26.8737 -1.5377 -0.121759)
(27.0352 -1.39762 -0.0650647)
(27.0882 -1.22885 -0.0144974)
(27.0265 -1.03973 0.0309895)
(26.8765 -0.849344 0.0719618)
(26.5837 -0.654595 0.111532)
(26.3413 -0.528269 0.149954)
(25.5272 -0.330879 0.239539)
(19.9997 -0.0137458 -0.000367863)
(19.9977 -0.0438105 -0.00132359)
(19.9937 -0.0761151 -0.00251036)
(19.9873 -0.110691 -0.00395776)
(19.9788 -0.146418 -0.00567579)
(19.9688 -0.179547 -0.00749136)
(19.9607 -0.198794 -0.00861793)
(19.967 -0.185251 -0.00766114)
(20.0285 -0.0807403 -0.002303)
(20.2877 0.0609609 0.00944974)
(20.8066 -0.113622 -0.0282602)
(21.3107 -0.645912 -0.0785061)
(21.5342 -1.21838 -0.129219)
(21.7333 -1.66015 -0.305304)
(22.1995 -1.68679 -0.450186)
(22.9642 -1.62879 -0.499641)
(23.7783 -1.61501 -0.489267)
(24.4836 -1.6206 -0.44623)
(25.0811 -1.63336 -0.382425)
(25.5931 -1.65019 -0.310505)
(26.0169 -1.65076 -0.240145)
(26.3413 -1.61215 -0.17576)
(26.5559 -1.5241 -0.119671)
(26.6539 -1.39006 -0.0706686)
(26.6371 -1.22174 -0.024924)
(26.4966 -1.03189 0.0192161)
(26.2654 -0.842444 0.0616194)
(25.8747 -0.654401 0.1054)
(25.5616 -0.527764 0.148678)
(24.5582 -0.347173 0.257763)
(19.9997 -0.0120836 -0.000414498)
(19.9973 -0.0385082 -0.00148854)
(19.9925 -0.0667499 -0.00283444)
(19.9856 -0.096744 -0.00458039)
(19.9778 -0.127589 -0.00686744)
(19.9721 -0.156416 -0.00975694)
(19.9754 -0.176587 -0.013171)
(20.0023 -0.177854 -0.01708)
(20.0859 -0.150349 -0.0215697)
(20.2967 -0.107784 -0.0269539)
(20.6715 -0.21871 -0.0564104)
(21.0688 -0.564722 -0.0955306)
(21.3251 -0.967712 -0.130141)
(21.6336 -1.25937 -0.267729)
(22.1853 -1.33178 -0.396815)
(22.9394 -1.32671 -0.451718)
(23.71 -1.35569 -0.448505)
(24.3803 -1.41425 -0.4126)
(24.945 -1.48248 -0.358916)
(25.4226 -1.54358 -0.299358)
(25.8099 -1.57291 -0.241259)
(26.092 -1.54869 -0.186452)
(26.2547 -1.46395 -0.135109)
(26.2889 -1.32744 -0.0869805)
(26.2017 -1.15771 -0.0404283)
(25.9838 -0.970765 0.00576171)
(25.675 -0.787056 0.051168)
(25.1953 -0.610148 0.0996266)
(24.8174 -0.488334 0.147475)
(23.6547 -0.328305 0.273062)
(19.9997 -0.0102028 -0.000456386)
(19.997 -0.0324923 -0.0016342)
(19.9916 -0.056257 -0.00314461)
(19.9842 -0.0814636 -0.00516523)
(19.9769 -0.107455 -0.00791408)
(19.9737 -0.132442 -0.0116619)
(19.9827 -0.15284 -0.0167651)
(20.0181 -0.165028 -0.0237727)
(20.1056 -0.168301 -0.0336493)
(20.2823 -0.178975 -0.0478994)
(20.5685 -0.277535 -0.0746706)
(20.8994 -0.511772 -0.106673)
(21.1826 -0.777846 -0.132983)
(21.5747 -0.967369 -0.253526)
(22.1864 -1.03904 -0.372159)
(22.9344 -1.0676 -0.427353)
(23.6679 -1.12496 -0.428069)
(24.3028 -1.21333 -0.398722)
(24.8358 -1.31134 -0.355487)
(25.2813 -1.39478 -0.307906)
(25.6339 -1.43647 -0.260374)
(25.8747 -1.41621 -0.212489)
(25.9856 -1.33101 -0.162541)
(25.9572 -1.19489 -0.111778)
(25.8004 -1.02934 -0.0604518)
(25.5106 -0.851934 -0.00818936)
(25.1311 -0.682007 0.0426057)
(24.5747 -0.523932 0.0959621)
(24.141 -0.413672 0.147609)
(22.8495 -0.27896 0.286421)
(19.9996 -0.00812554 -0.000492665)
(19.9967 -0.0258926 -0.00176536)
(19.9909 -0.0448305 -0.00341244)
(19.9831 -0.0649315 -0.00566005)
(19.9758 -0.0858053 -0.00879715)
(19.9738 -0.106457 -0.013228)
(19.9851 -0.125287 -0.0195556)
(20.0229 -0.141429 -0.0286192)
(20.1072 -0.157499 -0.0416417)
(20.2614 -0.186623 -0.0601415)
(20.4998 -0.263728 -0.0870019)
(20.7978 -0.412042 -0.117137)
(21.0972 -0.575493 -0.137715)
(21.5388 -0.691134 -0.242954)
(22.187 -0.750358 -0.356648)
(22.9311 -0.795085 -0.412789)
(23.6373 -0.868536 -0.418305)
(24.243 -0.973165 -0.396861)
(24.7493 -1.08718 -0.364494)
(25.1679 -1.18167 -0.328041)
(25.4896 -1.22788 -0.288583)
(25.6914 -1.20902 -0.24436)
(25.7529 -1.1268 -0.192845)
(25.6655 -0.998373 -0.13622)
(25.4445 -0.846703 -0.0774986)
(25.0892 -0.689164 -0.0179474)
(24.6478 -0.542173 0.0388862)
(24.0275 -0.409599 0.0970161)
(23.5482 -0.317177 0.15153)
(22.158 -0.210702 0.29996)
(19.9996 -0.00589898 -0.000519647)
(19.9965 -0.0188122 -0.00186153)
(19.9903 -0.0325892 -0.00361147)
(19.9821 -0.0472464 -0.0060305)
(19.9747 -0.0625748 -0.00945839)
(19.9731 -0.0781034 -0.0144062)
(19.985 -0.0932002 -0.0215461)
(20.0224 -0.108202 -0.0319187)
(20.1024 -0.125734 -0.0468435)
(20.2426 -0.154072 -0.0676124)
(20.4552 -0.208763 -0.0947054)
(20.7352 -0.299473 -0.124697)
(21.0473 -0.394818 -0.141906)
(21.5167 -0.456384 -0.229671)
(22.1873 -0.493017 -0.337174)
(22.9296 -0.533864 -0.393983)
(23.6181 -0.604927 -0.404986)
(24.2031 -0.706378 -0.392849)
(24.6896 -0.817185 -0.372651)
(25.0867 -0.907644 -0.348222)
(25.3811 -0.949931 -0.316817)
(25.546 -0.931298 -0.274528)
(25.5605 -0.858018 -0.219454)
(25.4187 -0.748346 -0.155584)
(25.1408 -0.623339 -0.0881863)
(24.7282 -0.497253 -0.0208506)
(24.2348 -0.382839 0.0415013)
(23.5638 -0.282112 0.103527)
(23.0492 -0.213277 0.15993)
(21.5865 -0.135 0.314651)
(19.9996 -0.00359684 -0.000546252)
(19.9963 -0.0114539 -0.00194731)
(19.9899 -0.0198457 -0.00377992)
(19.9814 -0.0288093 -0.00632995)
(19.9739 -0.0382529 -0.00997329)
(19.9722 -0.0479824 -0.015294)
(19.984 -0.0578177 -0.0229845)
(20.0204 -0.0682571 -0.0341697)
(20.097 -0.0809124 -0.0502744)
(20.229 -0.100246 -0.0722318)
(20.4286 -0.132423 -0.0991397)
(20.7017 -0.17977 -0.129201)
(21.0227 -0.224852 -0.142501)
(21.508 -0.246068 -0.213073)
(22.1961 -0.257731 -0.313358)
(22.9412 -0.28272 -0.367933)
(23.621 -0.336998 -0.381499)
(24.1937 -0.417879 -0.378249)
(24.6661 -0.506232 -0.372555)
(25.0449 -0.577211 -0.362998)
(25.3131 -0.608572 -0.340588)
(25.4425 -0.592084 -0.299287)
(25.4132 -0.536981 -0.239348)
(25.2238 -0.459165 -0.16739)
(24.8988 -0.373837 -0.090842)
(24.439 -0.289997 -0.0156183)
(23.9047 -0.216674 0.0515951)
(23.1952 -0.152236 0.116635)
(22.6549 -0.11299 0.173369)
(21.1414 -0.0595573 0.332328)
(19.9996 -0.00122069 -0.000549908)
(19.9962 -0.00387499 -0.00197131)
(19.9897 -0.0067105 -0.00384126)
(19.981 -0.00975433 -0.00645242)
(19.9733 -0.0129839 -0.0102004)
(19.9715 -0.016349 -0.0156978)
(19.9832 -0.0198292 -0.0236738)
(20.0191 -0.0236223 -0.0352734)
(20.0941 -0.028296 -0.0520071)
(20.2227 -0.0351529 -0.0744318)
(20.418 -0.0456113 -0.101091)
(20.6904 -0.0597536 -0.130645)
(21.0164 -0.071741 -0.137937)
(21.5214 -0.0741312 -0.194504)
(22.2384 -0.0738847 -0.288335)
(22.9952 -0.0812735 -0.336518)
(23.6715 -0.102863 -0.350286)
(24.2339 -0.136599 -0.356395)
(24.6924 -0.173131 -0.365438)
(25.0532 -0.201802 -0.370643)
(25.2973 -0.213684 -0.35656)
(25.3965 -0.205842 -0.313911)
(25.3324 -0.183298 -0.246748)
(25.1077 -0.153278 -0.165635)
(24.7468 -0.121603 -0.0803999)
(24.2523 -0.09114 0.00177982)
(23.6889 -0.0654633 0.0722663)
(22.95 -0.0425446 0.140481)
(22.3916 -0.0310326 0.193721)
(20.8377 -0.0100056 0.359111)
(20.0011 -0.00155788 -0.000246099)
(20.0117 -0.00492506 -0.00106017)
(20.0357 -0.00873346 -0.00198622)
(20.0754 -0.0132771 -0.00306539)
(20.1331 -0.0188983 -0.00450617)
(20.2129 -0.0259339 -0.00635028)
(20.3209 -0.0346346 -0.00886094)
(20.4646 -0.0450462 -0.0118081)
(20.65 -0.0562922 -0.0152252)
(20.8793 -0.0662968 -0.0186432)
(21.145 -0.0719291 -0.0209941)
(21.4278 -0.0689692 -0.0213284)
(21.7045 -0.0649039 -0.0109658)
(21.9754 -0.0696138 0.0205411)
(22.4566 -0.0857023 -0.00939494)
(23.5017 -0.091273 -0.272636)
(25.0513 -0.067364 -0.742882)
(26.6047 -0.0344713 -1.08974)
(27.9862 -0.0129568 -1.22398)
(29.2397 -0.00273368 -1.25052)
(30.4047 0.00190859 -1.23434)
(31.5049 0.00437495 -1.20269)
(32.5533 0.00648202 -1.16745)
(33.5603 0.00957907 -1.13526)
(34.5316 0.0140106 -1.11086)
(35.4834 0.0211137 -1.09784)
(36.3923 0.0291158 -1.10155)
(37.3755 0.0423621 -1.13496)
(38.1447 0.0461879 -1.21584)
(39.6361 0.0760699 -1.52274)
(20.0011 -0.00458788 -0.000264621)
(20.0114 -0.0145433 -0.00108865)
(20.0348 -0.0258154 -0.00201321)
(20.0733 -0.0392764 -0.00305788)
(20.1293 -0.0559756 -0.00443285)
(20.2069 -0.0769858 -0.00617304)
(20.3125 -0.103169 -0.00841044)
(20.454 -0.134828 -0.0108585)
(20.6389 -0.169723 -0.0136538)
(20.8707 -0.2013 -0.0160963)
(21.1428 -0.219407 -0.0180675)
(21.4346 -0.209285 -0.0177591)
(21.7134 -0.190128 -0.0100181)
(21.9944 -0.197962 0.00220821)
(22.4824 -0.24319 -0.0550829)
(23.4386 -0.270219 -0.299195)
(24.8258 -0.219344 -0.69602)
(26.2495 -0.134308 -0.979679)
(27.5652 -0.072786 -1.09905)
(28.7776 -0.0402587 -1.1271)
(29.9082 -0.0241386 -1.11456)
(30.9752 -0.0153008 -1.08581)
(31.9905 -0.00821933 -1.05252)
(32.9649 0.000447314 -1.02148)
(33.9021 0.0132568 -0.996669)
(34.8183 0.033453 -0.982038)
(35.6928 0.0569841 -0.983819)
(36.6355 0.0924083 -1.0114)
(37.3752 0.10804 -1.08978)
(38.8072 0.181393 -1.37136)
(20.001 -0.00746264 -0.000273331)
(20.0108 -0.0237118 -0.00110809)
(20.0329 -0.0421209 -0.00203337)
(20.0694 -0.0641432 -0.00303399)
(20.1225 -0.0915904 -0.00429661)
(20.1964 -0.126376 -0.00579501)
(20.2978 -0.170512 -0.00744862)
(20.4358 -0.224861 -0.00883732)
(20.6205 -0.286272 -0.0102417)
(20.8592 -0.343994 -0.0109531)
(21.1481 -0.376361 -0.01294)
(21.4596 -0.3535 -0.0135137)
(21.7443 -0.307177 -0.0120212)
(22.0537 -0.307191 -0.0315053)
(22.6066 -0.375106 -0.14545)
(23.5596 -0.419789 -0.408899)
(24.7837 -0.357236 -0.711449)
(26.0357 -0.247035 -0.896434)
(27.2385 -0.163179 -0.971164)
(28.3713 -0.114985 -0.98286)
(29.4376 -0.0895251 -0.964636)
(30.4468 -0.0753469 -0.934214)
(31.4082 -0.064634 -0.901091)
(32.3301 -0.0504503 -0.870598)
(33.2132 -0.0289872 -0.845644)
(34.0758 0.00269731 -0.830567)
(34.8977 0.0413297 -0.831276)
(35.7813 0.0954626 -0.855458)
(36.474 0.126935 -0.928178)
(37.8153 0.228824 -1.18449)
(20.0009 -0.0101299 -0.000288011)
(20.0099 -0.0322073 -0.00114973)
(20.0302 -0.0572256 -0.00208091)
(20.0636 -0.0871807 -0.00303005)
(20.1123 -0.124818 -0.00409779)
(20.1802 -0.173073 -0.00513717)
(20.2746 -0.235471 -0.00564101)
(20.4061 -0.314659 -0.00496345)
(20.5888 -0.408191 -0.00329162)
(20.8382 -0.501315 -0.000255434)
(21.1581 -0.551922 -0.00247204)
(21.5009 -0.501076 -0.00727411)
(21.7945 -0.411332 -0.0227039)
(22.1397 -0.395491 -0.0904102)
(22.7624 -0.483495 -0.264428)
(23.7042 -0.538378 -0.51927)
(24.7726 -0.473273 -0.710042)
(25.8744 -0.364443 -0.80886)
(26.9537 -0.278597 -0.837194)
(27.987 -0.226047 -0.825803)
(28.9684 -0.197092 -0.796284)
(29.9007 -0.180434 -0.760647)
(30.7907 -0.167058 -0.726031)
(31.6416 -0.147973 -0.694879)
(32.4556 -0.118755 -0.670481)
(33.2485 -0.0747156 -0.656114)
(34.0012 -0.0204728 -0.656614)
(34.807 0.0532147 -0.678577)
(35.4373 0.0993577 -0.744255)
(36.6552 0.231802 -0.971702)
(20.0008 -0.0124916 -0.000310468)
(20.0087 -0.039726 -0.00121723)
(20.0267 -0.0705939 -0.00215979)
(20.0561 -0.107627 -0.00304324)
(20.0987 -0.154138 -0.00376913)
(20.1581 -0.214885 -0.00399697)
(20.2417 -0.295819 -0.00265814)
(20.3613 -0.402825 0.00167968)
(20.5376 -0.537647 0.00988121)
(20.8028 -0.684989 0.0217484)
(21.1783 -0.762705 0.0185936)
(21.5711 -0.65436 0.00497805)
(21.8756 -0.490744 -0.0442496)
(22.2553 -0.444347 -0.180294)
(22.9179 -0.558719 -0.397327)
(23.7963 -0.629385 -0.580133)
(24.7534 -0.583277 -0.680727)
(25.7273 -0.495215 -0.71303)
(26.6835 -0.422232 -0.699963)
(27.6071 -0.375814 -0.664135)
(28.4903 -0.349786 -0.62107)
(29.3326 -0.335387 -0.57885)
(30.1361 -0.321035 -0.540968)
(30.9026 -0.296877 -0.508946)
(31.634 -0.257968 -0.485283)
(32.3424 -0.199824 -0.472)
(33.011 -0.128351 -0.472707)
(33.7218 -0.0341244 -0.492534)
(34.2753 0.0278193 -0.550115)
(35.3411 0.190265 -0.744465)
(20.0007 -0.0144828 -0.000343973)
(20.0074 -0.0460518 -0.00131276)
(20.0225 -0.0817839 -0.00232947)
(20.0471 -0.124623 -0.0032019)
(20.082 -0.178716 -0.00348865)
(20.13 -0.250405 -0.00261056)
(20.1975 -0.349354 0.00167889)
(20.2969 -0.487359 0.0123279)
(20.4563 -0.679283 0.03342)
(20.7428 -0.914255 0.0683493)
(21.2176 -1.02937 0.0659174)
(21.6862 -0.812154 0.0342894)
(22.0077 -0.530571 -0.0804983)
(22.4157 -0.431894 -0.304826)
(23.0577 -0.58373 -0.51522)
(23.8621 -0.696806 -0.613864)
(24.7222 -0.689756 -0.639144)
(25.5746 -0.63647 -0.619221)
(26.4062 -0.589104 -0.571064)
(27.2145 -0.55912 -0.512642)
(27.9922 -0.544542 -0.456644)
(28.7359 -0.535389 -0.40773)
(29.4424 -0.520848 -0.365723)
(30.1152 -0.49159 -0.332134)
(30.7533 -0.441217 -0.308418)
(31.3655 -0.366164 -0.295287)
(31.9376 -0.274542 -0.295138)
(32.5391 -0.158019 -0.311587)
(33.0038 -0.0784035 -0.359173)
(33.8933 0.112044 -0.516478)
(20.0005 -0.0160136 -0.000388382)
(20.0059 -0.0509781 -0.00145791)
(20.0179 -0.0904581 -0.00252708)
(20.0369 -0.137524 -0.00340167)
(20.0629 -0.197003 -0.00337615)
(20.0964 -0.276309 -0.00110386)
(20.1407 -0.389806 0.0073068)
(20.205 -0.558043 0.0291067)
(20.327 -0.840628 0.0748622)
(20.633 -1.21975 0.16343)
(21.2705 -1.37456 0.172425)
(21.8753 -0.961656 0.105341)
(22.2653 -0.523415 -0.136015)
(22.7105 -0.346081 -0.470178)
(23.2182 -0.562205 -0.628014)
(23.9051 -0.734666 -0.63609)
(24.6461 -0.77437 -0.593508)
(25.3638 -0.765552 -0.529805)
(26.0664 -0.755946 -0.452406)
(26.7595 -0.755205 -0.375873)
(27.4332 -0.759872 -0.31023)
(28.0767 -0.762368 -0.255168)
(28.6883 -0.751848 -0.210009)
(29.2666 -0.716794 -0.175239)
(29.8077 -0.652508 -0.150987)
(30.318 -0.55766 -0.137041)
(30.7867 -0.443433 -0.134483)
(31.2697 -0.303663 -0.145685)
(31.6378 -0.205301 -0.181135)
(32.3344 0.00893167 -0.298365)
(20.0004 -0.0170765 -0.000449092)
(20.0043 -0.0543138 -0.00163825)
(20.0131 -0.0963132 -0.00285329)
(20.0264 -0.146073 -0.00376663)
(20.0428 -0.208188 -0.00343024)
(20.0595 -0.29028 0.000189042)
(20.0732 -0.410751 0.0140144)
(20.0763 -0.595782 0.0520401)
(20.1 -0.980428 0.154189)
(20.2844 -1.48586 0.248637)
(21.0433 -2.03725 0.380707)
(22.1722 -1.5312 0.250971)
(22.5389 -0.658275 0.0340515)
(22.9834 -0.0725975 -0.34507)
(23.3082 -0.403786 -0.729891)
(23.7271 -0.725138 -0.651716)
(24.2872 -0.832344 -0.554197)
(24.8574 -0.885371 -0.455532)
(25.4521 -0.931696 -0.355583)
(26.0682 -0.972721 -0.267484)
(26.6775 -1.00696 -0.196019)
(27.2612 -1.02732 -0.137856)
(27.8087 -1.01972 -0.0907792)
(28.3132 -0.974067 -0.0541772)
(28.7702 -0.889038 -0.0274504)
(29.1855 -0.767814 -0.00992353)
(29.555 -0.626004 -0.0019487)
(29.9202 -0.460712 -0.00485685)
(30.19 -0.34235 -0.0254577)
(30.6865 -0.108496 -0.0995549)
(20.0002 -0.0176551 -0.000530969)
(20.0027 -0.0561031 -0.0018907)
(20.0084 -0.099134 -0.00327608)
(20.0161 -0.149637 -0.00442944)
(20.0234 -0.211591 -0.00406448)
(20.0232 -0.291171 0.000777556)
(20.0044 -0.404145 0.0191786)
(19.9251 -0.585573 0.0814303)
(19.8301 -0.894617 0.177987)
(19.7227 -1.92947 0.5638)
(21.0308 -2.95978 1.04671)
(22.8292 -2.39719 0.452728)
(23.1276 -0.8355 0.277544)
(23.4841 0.515944 -0.282875)
(21.3935 0.396035 -0.64958)
(21.873 -0.303211 -0.424535)
(22.5409 -0.63911 -0.288027)
(23.2442 -0.849577 -0.206874)
(24.0094 -1.01557 -0.142125)
(24.8013 -1.14741 -0.0905198)
(25.5481 -1.24295 -0.0499654)
(26.2093 -1.29368 -0.0139324)
(26.7762 -1.28979 0.0194677)
(27.2551 -1.22854 0.0487395)
(27.6558 -1.11734 0.0726212)
(27.9928 -0.966749 0.090905)
(28.2713 -0.797383 0.103385)
(28.5234 -0.6087 0.109536)
(28.6995 -0.473399 0.105)
(28.9952 -0.226034 0.0749614)
(20.0001 -0.0177516 -0.000628124)
(20.0013 -0.05636 -0.00221646)
(20.0041 -0.0991411 -0.00387423)
(20.0068 -0.148459 -0.00532662)
(20.0068 -0.207235 -0.00528712)
(19.9927 -0.279101 -0.00080586)
(19.9511 -0.371742 0.0196277)
(19.7841 -0.500551 0.0977469)
(19.5035 -0.740992 0.25111)
(18.5462 -1.80688 0.847279)
(21.0999 -5.80197 3.14775)
(25.3609 -5.56565 -3.83004)
(18.5808 0.207898 -2.65787)
(18.8404 1.89525 -1.36934)
(12.0061 0.743657 1.48369)
(15.6579 -0.291501 0.787685)
(18.5098 -0.844954 0.386456)
(20.6615 -1.16513 0.151803)
(22.3691 -1.37528 0.0347036)
(23.7178 -1.51784 -0.0120912)
(24.7317 -1.60483 -0.0167729)
(25.4718 -1.63183 0.00507465)
(26.0145 -1.59328 0.039637)
(26.4187 -1.49221 0.0763253)
(26.7216 -1.34118 0.110016)
(26.9468 -1.15473 0.13927)
(27.108 -0.955935 0.16438)
(27.2238 -0.745 0.18563)
(27.2882 -0.595695 0.20275)
(27.364 -0.338121 0.218413)
(20 -0.0173974 -0.000741169)
(20.0001 -0.0551844 -0.00259279)
(20.0005 -0.0966653 -0.00459442)
(19.9995 -0.143555 -0.00655733)
(19.9944 -0.197123 -0.00721062)
(19.9746 -0.257974 -0.00378213)
(19.9254 -0.321727 0.0143758)
(19.7593 -0.368698 0.0870693)
(19.4244 -0.386049 0.249006)
(17.618 -0.135518 1.04529)
(1.39657 0.543147 -2.77255)
(15.1687 -3.13211 -0.00643667)
(18.8853 -2.42377 -0.320992)
(21.3172 -2.06465 -0.456406)
(22.8526 -1.92328 -0.477486)
(23.9006 -1.895 -0.416324)
(24.6525 -1.91714 -0.321318)
(25.1911 -1.93625 -0.221209)
(25.5772 -1.91109 -0.126563)
(25.8516 -1.82449 -0.0430287)
(26.0376 -1.67957 0.0281873)
(26.1522 -1.49055 0.0881491)
(26.203 -1.27365 0.138971)
(26.2008 -1.05285 0.184166)
(26.1439 -0.828686 0.22569)
(26.0709 -0.672259 0.270436)
(25.892 -0.417999 0.33104)
(19.9999 -0.0166369 -0.000870633)
(19.9991 -0.0527202 -0.00302772)
(19.9975 -0.092029 -0.00548197)
(19.9939 -0.13575 -0.00803697)
(19.9859 -0.183867 -0.00999048)
(19.9675 -0.234267 -0.00906077)
(19.9278 -0.275793 0.00278542)
(19.8362 -0.271637 0.0523745)
(19.6423 -0.152854 0.163186)
(19.3465 0.789275 0.663085)
(21.2294 1.32226 1.04994)
(22.9876 4.12893 -2.87696)
(19.7164 -0.785934 -1.64341)
(21.079 -3.06527 -2.02961)
(23.0119 -2.28515 -1.26788)
(23.5576 -1.92507 -1.10543)
(24.098 -1.878 -0.947763)
(24.4904 -1.92802 -0.785862)
(24.8168 -1.99699 -0.613746)
(25.0977 -2.05943 -0.45343)
(25.3208 -2.08193 -0.314541)
(25.4755 -2.04087 -0.196558)
(25.5658 -1.92899 -0.0985786)
(25.5843 -1.75611 -0.0148987)
(25.5417 -1.54171 0.0581847)
(25.4433 -1.30634 0.123531)
(25.2999 -1.07495 0.185122)
(25.0919 -0.848904 0.245022)
(24.8988 -0.691635 0.315492)
(24.4871 -0.454526 0.418875)
(19.9998 -0.0155147 -0.00101136)
(19.9983 -0.0491381 -0.00350918)
(19.9953 -0.0855477 -0.00644793)
(19.9899 -0.125246 -0.00989507)
(19.9812 -0.167402 -0.0134742)
(19.9673 -0.209079 -0.0157945)
(19.9458 -0.236893 -0.0118715)
(19.9169 -0.227402 0.00816163)