/*--------------------------------*- C++ -*----------------------------------*\
| =========                 |                                                 |
| \\      /  F ield         | OpenFOAM: The Open Source CFD Toolbox           |
|  \\    /   O peration     | Version:  2512                                  |
|   \\  /    A nd           | Website:  www.openfoam.com                      |
|    \\/     M anipulation  |                                                 |
\*---------------------------------------------------------------------------*/
FoamFile
{
    version     2.0;
    format      ascii;
    arch        "LSB;label=32;scalar=64";
    class       volVectorField;
    location    "160";
    object      U;
}
// * * * * * * * * * * * * * * * * * * * * * * * * * * * * * * * * * * * * * //

dimensions      [0 1 -1 0 0 0 0];

internalField   nonuniform List<vector> 
84826
(
(20 -0.000208141 0.000207221)
(19.9998 -0.000668303 0.000672161)
(19.9995 -0.00130326 0.00122785)
(19.9995 -0.00229308 0.00193136)
(20.0007 -0.00387893 0.00284562)
(20.0048 -0.00638676 0.00403008)
(20.0141 -0.0102039 0.00552481)
(20.0327 -0.0156733 0.00731207)
(20.0651 -0.0227176 0.00924384)
(20.1154 -0.0301046 0.0110252)
(20.1837 -0.0353924 0.0122274)
(20.2607 -0.0335105 0.0122555)
(20.3236 -0.0227997 0.0107381)
(20.3493 -0.00800235 0.00793232)
(20.3326 0.00397614 0.00472831)
(20.2899 0.00897578 0.00227354)
(20.2453 0.00764072 0.00132459)
(20.2136 0.00425474 0.00157673)
(20.1947 0.00166022 0.00220094)
(20.1819 -0.000202477 0.0027653)
(20.1717 -0.00194382 0.00328777)
(20.1646 -0.00347113 0.00382892)
(20.1603 -0.00453338 0.00432809)
(20.1576 -0.00516977 0.00470716)
(20.1553 -0.00554639 0.00495356)
(20.153 -0.00573822 0.00511129)
(20.1511 -0.00574009 0.00522873)
(20.1496 -0.00557712 0.00532308)
(20.1493 -0.00540326 0.00537136)
(20.1485 -0.00519766 0.00534016)
(20 -0.000604405 0.00021125)
(19.9997 -0.00194307 0.000686061)
(19.999 -0.00379741 0.00125699)
(19.9985 -0.00670257 0.00198755)
(19.9988 -0.0113884 0.00295132)
(20.0015 -0.0188634 0.00422453)
(20.0091 -0.0303835 0.00587341)
(20.0257 -0.0471217 0.00791729)
(20.057 -0.0691223 0.010233)
(20.1083 -0.0927548 0.0124771)
(20.1821 -0.110588 0.0141281)
(20.2686 -0.105166 0.0143158)
(20.3393 -0.0710997 0.012714)
(20.3657 -0.0242389 0.00932008)
(20.3431 0.0135506 0.00534836)
(20.2924 0.0285397 0.00240535)
(20.2427 0.0232126 0.00151995)
(20.2103 0.0121883 0.00208793)
(20.1922 0.00430053 0.00295386)
(20.1798 -0.0011772 0.00368126)
(20.1699 -0.00625029 0.0043834)
(20.163 -0.0106045 0.00513109)
(20.1592 -0.0135827 0.00583026)
(20.1569 -0.0154535 0.00638444)
(20.1549 -0.0167665 0.0067832)
(20.1528 -0.0176546 0.00706557)
(20.1511 -0.0179239 0.0072739)
(20.1497 -0.0174401 0.00742734)
(20.1493 -0.0166104 0.00752736)
(20.1487 -0.0150359 0.0075609)
(19.9999 -0.000947188 0.000219226)
(19.9994 -0.00304946 0.000714133)
(19.9981 -0.0059811 0.00131669)
(19.9964 -0.0106178 0.00210423)
(19.9949 -0.0181934 0.0031731)
(19.9948 -0.0304878 0.00463732)
(19.9986 -0.0498861 0.0066175)
(20.0109 -0.0789087 0.0092159)
(20.0391 -0.118609 0.0123826)
(20.0919 -0.16331 0.0156897)
(20.1773 -0.200279 0.0184415)
(20.2853 -0.191672 0.0190171)
(20.3731 -0.128229 0.0173627)
(20.4008 -0.042532 0.0127449)
(20.3649 0.02667 0.00697869)
(20.2963 0.0514936 0.00294401)
(20.236 0.0379924 0.00234581)
(20.2027 0.0164539 0.00374375)
(20.187 0.00212708 0.00521103)
(20.1757 -0.00783001 0.00631972)
(20.1662 -0.0168083 0.00737515)
(20.1602 -0.0238709 0.00845649)
(20.1573 -0.028213 0.00941612)
(20.1556 -0.0309201 0.0101756)
(20.1538 -0.0333551 0.0107534)
(20.1521 -0.0358293 0.0111931)
(20.151 -0.0377943 0.0115067)
(20.1501 -0.0386793 0.011683)
(20.1502 -0.0385824 0.01176)
(20.1489 -0.0370622 0.0116529)
(19.9999 -0.00120771 0.000229628)
(19.9989 -0.00389233 0.000752302)
(19.9967 -0.00766919 0.00139871)
(19.9934 -0.0137236 0.00226686)
(19.9891 -0.0238027 0.00348916)
(19.9846 -0.0405799 0.00524182)
(19.9822 -0.0679757 0.00774507)
(19.9867 -0.110824 0.0112592)
(20.0084 -0.172972 0.0159121)
(20.0615 -0.248165 0.0211887)
(20.1664 -0.318649 0.0260126)
(20.3129 -0.305558 0.0275483)
(20.43 -0.199404 0.0262449)
(20.4594 -0.0628917 0.0196505)
(20.3999 0.0475041 0.0104505)
(20.2995 0.0799433 0.00457725)
(20.2219 0.0506667 0.00481575)
(20.1888 0.0150827 0.00770474)
(20.1776 -0.00698509 0.0101591)
(20.1683 -0.0235249 0.012093)
(20.1599 -0.0386342 0.0141122)
(20.1557 -0.0493859 0.0161434)
(20.1544 -0.0545462 0.0178648)
(20.1531 -0.0563601 0.0192234)
(20.151 -0.0574972 0.0203283)
(20.149 -0.0590093 0.0212529)
(20.1481 -0.0605527 0.0219689)
(20.148 -0.0613889 0.0224003)
(20.1486 -0.0614561 0.0225796)
(20.1483 -0.0592248 0.0223196)
(19.9998 -0.00135863 0.000241732)
(19.9984 -0.00438025 0.00079757)
(19.9951 -0.00867663 0.00149964)
(19.9895 -0.0156812 0.00246999)
(19.9815 -0.0276229 0.00389042)
(19.971 -0.0481718 0.00603279)
(19.9593 -0.0832781 0.00928063)
(19.9508 -0.141582 0.0141878)
(19.9594 -0.232796 0.0212098)
(20.0073 -0.354264 0.0299806)
(20.1441 -0.486856 0.0382188)
(20.3577 -0.470707 0.0414828)
(20.5209 -0.299433 0.0407984)
(20.5503 -0.0866846 0.0306551)
(20.4513 0.0846057 0.0148988)
(20.2987 0.114535 0.00716845)
(20.1974 0.0553446 0.0110394)
(20.168 0.00264558 0.0174693)
(20.1633 -0.0268509 0.0214296)
(20.1559 -0.0519389 0.0241583)
(20.1495 -0.077018 0.0271139)
(20.1494 -0.0960812 0.0301114)
(20.1522 -0.106895 0.0326885)
(20.1536 -0.112036 0.0348714)
(20.1532 -0.114595 0.0369266)
(20.1528 -0.116106 0.0389827)
(20.1539 -0.116949 0.0409489)
(20.1561 -0.117061 0.0426487)
(20.159 -0.117087 0.0439642)
(20.1622 -0.113617 0.0446374)
(19.9998 -0.00138146 0.000254887)
(19.9978 -0.00444943 0.000846031)
(19.9932 -0.00886061 0.0016136)
(19.9852 -0.0161918 0.00270638)
(19.9727 -0.0290387 0.00436267)
(19.9543 -0.0520414 0.00698502)
(19.9294 -0.0935954 0.011218)
(19.9003 -0.168197 0.0180802)
(19.8838 -0.296544 0.0287931)
(19.912 -0.490042 0.0428224)
(20.0995 -0.733374 0.056803)
(20.4262 -0.71083 0.066833)
(20.6606 -0.463743 0.0732441)
(20.6861 -0.127979 0.0578385)
(20.5154 0.147477 0.0289023)
(20.2761 0.145993 0.0175848)
(20.148 0.0334023 0.0287498)
(20.1327 -0.0363607 0.0432333)
(20.1405 -0.0664529 0.0532768)
(20.1401 -0.093424 0.0615766)
(20.1456 -0.122354 0.0700396)
(20.1633 -0.145821 0.078142)
(20.1848 -0.162138 0.085144)
(20.2025 -0.173751 0.0912188)
(20.2146 -0.182234 0.0968041)
(20.223 -0.187722 0.102114)
(20.2289 -0.190487 0.107073)
(20.232 -0.191106 0.111454)
(20.2331 -0.192408 0.115305)
(20.231 -0.188209 0.117765)
(19.9997 -0.00126914 0.000267691)
(19.9972 -0.00407215 0.000893324)
(19.9912 -0.00814362 0.00172132)
(19.9806 -0.0150403 0.00294978)
(19.9632 -0.0274778 0.0048776)
(19.9354 -0.0507393 0.00805199)
(19.8928 -0.0954222 0.0134828)
(19.8328 -0.183954 0.022902)
(19.7684 -0.354302 0.0383732)
(19.7534 -0.673185 0.0610873)
(19.9972 -1.10634 0.0787013)
(20.5006 -0.996457 0.110734)
(20.8511 -0.725718 0.147599)
(20.8961 -0.205873 0.122625)
(20.5929 0.244731 0.0812385)
(20.1997 0.13675 0.0725498)
(20.0763 -0.0975177 0.0897605)
(20.134 -0.225209 0.111408)
(20.1921 -0.285807 0.135657)
(20.2073 -0.332124 0.167037)
(20.1982 -0.367321 0.202593)
(20.1685 -0.387075 0.236028)
(20.1104 -0.396758 0.263015)
(20.0226 -0.402978 0.282664)
(19.9127 -0.407203 0.295424)
(19.7907 -0.408051 0.302075)
(19.6653 -0.404797 0.30361)
(19.5396 -0.399472 0.3007)
(19.4298 -0.392215 0.296784)
(19.2862 -0.388132 0.280823)
(19.9997 -0.00102868 0.000278715)
(19.9966 -0.00326527 0.000935395)
(19.9895 -0.00654233 0.00181504)
(19.9764 -0.0121832 0.00315714)
(19.9541 -0.0226579 0.00534944)
(19.9163 -0.0429472 0.00917071)
(19.8523 -0.0846846 0.015906)
(19.7486 -0.175243 0.0288739)
(19.5944 -0.377669 0.0476581)
(19.4691 -0.860734 0.0886183)
(19.7204 -1.22174 0.0285539)
(20.5418 -1.59855 0.0221377)
(21.1297 -0.98552 0.116214)
(21.3518 -0.499929 0.0456072)
(21.0429 0.382875 0.285641)
(20.2676 0.251286 0.361993)
(19.8782 -0.0594864 0.458842)
(19.5774 -0.242677 0.493956)
(19.1411 -0.362582 0.481363)
(18.5958 -0.469288 0.447724)
(18.0318 -0.552711 0.403178)
(17.4921 -0.60724 0.350259)
(16.9931 -0.644928 0.292879)
(16.551 -0.678757 0.236208)
(16.1808 -0.711302 0.183608)
(15.8894 -0.738961 0.136544)
(15.6731 -0.757743 0.09528)
(15.5264 -0.771237 0.0608866)
(15.4271 -0.769318 0.0318647)
(15.3959 -0.78292 -0.00198345)
(19.9996 -0.000681921 0.000286954)
(19.9962 -0.00210007 0.000965936)
(19.9882 -0.00418212 0.00188697)
(19.9731 -0.0078162 0.00331179)
(19.9469 -0.0147649 0.0056932)
(19.9001 -0.0285033 0.0100793)
(19.8162 -0.0586767 0.0181336)
(19.6563 -0.127582 0.0348441)
(19.3758 -0.312542 0.058551)
(18.9105 -0.825738 0.106375)
(19.0884 -1.63422 -0.00508442)
(20.6957 -2.50785 0.187337)
(21.1048 -2.32179 0.429284)
(22.1514 -2.0662 0.328394)
(14.6938 -0.672827 0.845001)
(12.8952 -1.03703 0.5225)
(12.0457 -1.43467 0.279348)
(11.759 -1.55712 0.0113256)
(11.5231 -1.57681 -0.216451)
(11.3712 -1.57739 -0.36839)
(11.3803 -1.54706 -0.463432)
(11.4943 -1.49506 -0.530955)
(11.6926 -1.43885 -0.575382)
(11.9681 -1.38874 -0.595855)
(12.2956 -1.34545 -0.599233)
(12.6522 -1.30315 -0.592328)
(13.0104 -1.25722 -0.580772)
(13.3704 -1.2084 -0.563267)
(13.6569 -1.15877 -0.553614)
(14.1092 -1.07486 -0.52398)
(19.9996 -0.000264296 0.000291412)
(19.996 -0.000701306 0.000981801)
(19.9874 -0.00132883 0.00192271)
(19.9714 -0.00248 0.00338882)
(19.9429 -0.00480738 0.00586587)
(19.891 -0.009646 0.0104971)
(19.7948 -0.0208597 0.0192332)
(19.5952 -0.0475171 0.0389248)
(19.196 -0.126129 0.0659207)
(18.279 -0.365115 0.119062)
(17.7472 -1.20329 -0.205373)
(20.6254 -3.40431 -0.409681)
(21.2005 -6.1175 0.607987)
(11.5575 -1.40843 -1.04991)
(-1.02966 1.44141 -3.49045)
(2.84357 0.907769 -3.01986)
(6.45246 0.381242 -2.40102)
(9.04719 0.0624387 -2.02514)
(10.6219 -0.14496 -1.76986)
(11.6936 -0.287471 -1.56199)
(12.5554 -0.370976 -1.39402)
(13.2664 -0.414601 -1.26406)
(13.8379 -0.439209 -1.16054)
(14.3016 -0.45497 -1.07302)
(14.6919 -0.464166 -0.996887)
(15.0294 -0.46604 -0.930174)
(15.3175 -0.460122 -0.872692)
(15.5746 -0.446278 -0.818992)
(15.7551 -0.432915 -0.782369)
(16.0727 -0.389814 -0.721481)
(19.9996 0.000179648 0.00029167)
(19.996 0.000787004 0.000981738)
(19.9874 0.00172229 0.00191991)
(19.9714 0.00328063 0.00338054)
(19.943 0.00605161 0.00584884)
(19.8909 0.0113976 0.0104804)
(19.7945 0.0229267 0.0192404)
(19.5942 0.0491684 0.0389701)
(19.1929 0.124494 0.0661278)
(18.264 0.347993 0.119884)
(17.3739 0.564458 -0.26459)
(19.7351 0.500602 -0.643665)
(-2.4297 2.41132 0.384891)
(-0.68902 -1.30186 -3.7972)
(3.944 -1.13312 -3.26173)
(7.65107 -0.70142 -2.5969)
(10.1632 -0.464133 -2.15445)
(11.6228 -0.330343 -1.84226)
(12.5537 -0.233962 -1.59108)
(13.2573 -0.161078 -1.38973)
(13.8084 -0.107252 -1.23419)
(14.231 -0.0632901 -1.11091)
(14.5631 -0.0245342 -1.00902)
(14.8419 0.00872579 -0.922867)
(15.0891 0.0367974 -0.849402)
(15.3072 0.0606082 -0.787669)
(15.5108 0.0846315 -0.732362)
(15.655 0.0980512 -0.694289)
(15.9257 0.123586 -0.636907)
(19.9996 0.000600302 0.00028737)
(19.9962 0.00219012 0.000967653)
(19.9881 0.00459341 0.00188184)
(19.9731 0.00866008 0.00328041)
(19.9469 0.0161715 0.00565559)
(19.8999 0.0305096 0.0100645)
(19.8156 0.0611776 0.0181786)
(19.6538 0.130158 0.0349953)
(19.3685 0.3139 0.059135)
(18.8779 0.82129 0.10872)
(18.5107 1.61608 -0.0355124)
(20.4579 3.33569 -0.247745)
(19.9535 6.53156 0.237863)
(10.0757 4.25996 0.740746)
(13.0539 0.592289 0.602565)
(12.1564 0.9662 0.229229)
(12.2891 1.37494 0.0367774)
(12.7234 1.49479 -0.127875)
(13.0436 1.4841 -0.244717)
(13.2938 1.44223 -0.30696)
(13.541 1.37528 -0.335577)
(13.7645 1.28956 -0.351273)
(13.9413 1.20334 -0.356093)
(14.0757 1.1279 -0.353141)
(14.1871 1.06296 -0.345059)
(14.2886 1.00497 -0.334504)
(14.3809 0.950697 -0.323597)
(14.4675 0.905225 -0.31258)
(14.5333 0.852972 -0.303266)
(14.6178 0.808669 -0.293165)
(19.9997 0.000953989 0.000279723)
(19.9966 0.00335546 0.000936601)
(19.9894 0.00692968 0.00181304)
(19.9763 0.012966 0.003141)
(19.954 0.0239306 0.00533761)
(19.916 0.0448058 0.00918505)
(19.8516 0.0872733 0.015985)
(19.7457 0.178581 0.029107)
(19.5874 0.382372 0.0483481)
(19.4393 0.868904 0.0915254)
(19.3985 1.37783 0.0413401)
(20.4631 2.15953 0.108244)
(21.1046 2.36314 0.446184)
(22.2902 1.31678 0.410364)
(21.2598 -0.355624 0.419393)
(20.4602 -0.364852 0.401618)
(20.129 -0.214856 0.41873)
(19.984 -0.151507 0.414849)
(19.8226 -0.116812 0.397901)
(19.6369 -0.0658078 0.379762)
(19.4631 -0.0163799 0.360348)
(19.3005 0.0207954 0.33728)
(19.1351 0.0525025 0.313669)
(18.9656 0.0866393 0.291908)
(18.7971 0.124116 0.272845)
(18.6316 0.161184 0.255789)
(18.4721 0.193563 0.240405)
(18.2994 0.224651 0.224659)
(18.1629 0.242378 0.214616)
(17.8841 0.288025 0.190072)
(19.9997 0.00120238 0.000269722)
(19.9971 0.0041602 0.000895264)
(19.9912 0.00851349 0.00172356)
(19.9805 0.0157972 0.00295375)
(19.9631 0.0287444 0.00488955)
(19.9352 0.0526648 0.00808214)
(19.8922 0.0982759 0.0135618)
(19.8308 0.188099 0.0231283)
(19.7626 0.361807 0.0390293)
(19.7387 0.687227 0.063209)
(19.9659 1.1524 0.0854109)
(20.4878 1.15369 0.130113)
(20.9413 0.941091 0.204185)
(21.0532 0.261612 0.179709)
(20.7299 -0.292064 0.115803)
(20.3196 -0.279354 0.0773931)
(20.1438 -0.121726 0.0649964)
(20.1277 -0.0229677 0.0605718)
(20.1306 0.0403221 0.0595921)
(20.1241 0.0966657 0.064668)
(20.1236 0.136754 0.0743964)
(20.1294 0.156401 0.0858609)
(20.1324 0.164419 0.0978271)
(20.1293 0.170907 0.110201)
(20.1226 0.17944 0.122991)
(20.1153 0.187826 0.135322)
(20.1081 0.19413 0.146785)
(20.093 0.196335 0.156896)
(20.0822 0.202522 0.166307)
(20.0296 0.202268 0.176259)
(19.9998 0.00132446 0.00025736)
(19.9977 0.00453418 0.00084983)
(19.9931 0.00920285 0.00161818)
(19.9851 0.0168913 0.0027124)
(19.9727 0.0302176 0.00437297)
(19.9543 0.053876 0.0070095)
(19.9292 0.0964137 0.0112849)
(19.8995 0.172664 0.0182709)
(19.8812 0.304496 0.0293052)
(19.907 0.505976 0.0442745)
(20.0918 0.768286 0.060307)
(20.4367 0.78612 0.0761052)
(20.7241 0.54935 0.0926317)
(20.7836 0.137133 0.0752514)
(20.603 -0.201035 0.0369855)
(20.3486 -0.254299 0.0136851)
(20.2046 -0.182574 0.012956)
(20.1688 -0.127757 0.0189618)
(20.1591 -0.10024 0.0231726)
(20.1441 -0.0793414 0.0265129)
(20.1327 -0.0631555 0.0300724)
(20.1299 -0.0538262 0.0332678)
(20.1303 -0.0477675 0.0355493)
(20.1299 -0.0399506 0.0371771)
(20.1288 -0.0290183 0.038568)
(20.1292 -0.0170152 0.03976)
(20.1321 -0.00618161 0.0408597)
(20.1364 0.0020995 0.0419708)
(20.14 0.0106645 0.0428579)
(20.1504 0.0197636 0.0451047)
(19.9998 0.00131247 0.000244641)
(19.9983 0.00445812 0.000801992)
(19.995 0.00897886 0.00150494)
(19.9895 0.0162991 0.00247697)
(19.9816 0.0286756 0.00390165)
(19.9713 0.0498425 0.00605624)
(19.9596 0.0859043 0.00933683)
(19.9511 0.145831 0.0143341)
(19.9596 0.240171 0.0215575)
(20.0082 0.367809 0.0308573)
(20.1482 0.511409 0.0400189)
(20.3768 0.513955 0.0452776)
(20.5718 0.343412 0.0472102)
(20.6213 0.0901425 0.0353622)
(20.5181 -0.117589 0.015128)
(20.3568 -0.174413 0.00172902)
(20.2462 -0.136318 -0.000917606)
(20.2033 -0.0942515 -0.000233428)
(20.1856 -0.0687556 -0.000376716)
(20.1691 -0.0470115 -0.00039953)
(20.1564 -0.0252628 0.000708872)
(20.151 -0.00699009 0.0024806)
(20.1491 0.00699836 0.00423609)
(20.1468 0.0184931 0.00582513)
(20.1431 0.02873 0.00739067)
(20.1395 0.0374175 0.0090138)
(20.1371 0.0436898 0.0107058)
(20.1355 0.0473024 0.0123825)
(20.1347 0.0494929 0.0138148)
(20.1311 0.0509983 0.0159565)
(19.9999 0.00117246 0.000232847)
(19.9988 0.00395887 0.000757315)
(19.9967 0.00791954 0.00140478)
(19.9934 0.0142356 0.00227447)
(19.9893 0.024681 0.00350008)
(19.9851 0.0419883 0.00526155)
(19.983 0.0702066 0.00778773)
(19.9881 0.114432 0.0113593)
(20.0108 0.179021 0.0161311)
(20.066 0.25849 0.0216629)
(20.176 0.335302 0.02691)
(20.3344 0.330159 0.0290166)
(20.4711 0.220939 0.0281975)
(20.5132 0.060888 0.0202638)
(20.4524 -0.0724246 0.00851597)
(20.3459 -0.122127 -0.000259716)
(20.261 -0.108479 -0.00320827)
(20.2176 -0.0838406 -0.00304889)
(20.1955 -0.0672518 -0.00235733)
(20.1782 -0.0533473 -0.00142553)
(20.1645 -0.0394664 -3.54719e-05)
(20.1565 -0.0283957 0.00151834)
(20.1521 -0.021522 0.00283849)
(20.1482 -0.0175334 0.00384995)
(20.1438 -0.0146357 0.00468255)
(20.1396 -0.0120555 0.00546522)
(20.1367 -0.00996138 0.00625023)
(20.1348 -0.00853967 0.00700429)
(20.1336 -0.00751641 0.0076288)
(20.1344 -0.00511084 0.00840447)
(19.9999 0.000922488 0.000222714)
(19.9993 0.00310031 0.000719684)
(19.998 0.00616845 0.00132338)
(19.9965 0.0110011 0.00211239)
(19.9951 0.0188541 0.00318396)
(19.9954 0.0315534 0.00465441)
(19.9998 0.051577 0.00664995)
(20.013 0.0816197 0.00928185)
(20.0428 0.123018 0.0125088)
(20.0986 0.170424 0.0159269)
(20.1894 0.210851 0.018817)
(20.3069 0.205447 0.0194786)
(20.4078 0.138827 0.0176618)
(20.4442 0.0397305 0.0120036)
(20.4081 -0.0432844 0.00459868)
(20.3351 -0.0785137 -0.00116368)
(20.2691 -0.0741659 -0.00357043)
(20.228 -0.0589314 -0.00381355)
(20.2038 -0.0469753 -0.00355637)
(20.1856 -0.0370223 -0.00325883)
(20.1712 -0.0272561 -0.00277966)
(20.1615 -0.0191066 -0.00214427)
(20.1555 -0.0135705 -0.00152421)
(20.1508 -0.00985869 -0.000990981)
(20.1463 -0.00667384 -0.000501153)
(20.1422 -0.00340865 1.60631e-05)
(20.1391 -0.000264705 0.000580835)
(20.137 0.00242925 0.00116985)
(20.1359 0.00447417 0.00166482)
(20.134 0.0068187 0.00237404)
(20 0.000589264 0.000214945)
(19.9996 0.00197331 0.000691959)
(19.999 0.00391059 0.00126416)
(19.9986 0.00693576 0.0019963)
(19.9991 0.0117927 0.00296242)
(20.0022 0.0195185 0.00424004)
(20.0105 0.0314232 0.00589866)
(20.0283 0.0487759 0.00796012)
(20.0615 0.0717574 0.010299)
(20.1162 0.0968597 0.0125731)
(20.1953 0.116391 0.0142265)
(20.2898 0.112129 0.0143118)
(20.3701 0.0759337 0.0123613)
(20.403 0.022123 0.00812035)
(20.3809 -0.0231049 0.00295876)
(20.3268 -0.0437431 -0.00120255)
(20.2723 -0.0432572 -0.00329659)
(20.2334 -0.0356616 -0.00382799)
(20.2082 -0.0290972 -0.0037927)
(20.1895 -0.0236217 -0.00360017)
(20.1748 -0.0182529 -0.00322856)
(20.1642 -0.0136812 -0.00269646)
(20.1571 -0.0105527 -0.00212962)
(20.1518 -0.00851071 -0.00161951)
(20.1472 -0.00682103 -0.00116998)
(20.1431 -0.00511037 -0.000743719)
(20.1398 -0.00349409 -0.000317836)
(20.1374 -0.00221383 0.000108823)
(20.1359 -0.00139569 0.000456999)
(20.1343 -0.000544404 0.000935838)
(20 0.000202804 0.000211288)
(19.9997 0.000677688 0.000678783)
(19.9995 0.00134016 0.00123605)
(19.9996 0.0023701 0.00194148)
(20.0011 0.00401337 0.00285826)
(20.0056 0.00660544 0.00404654)
(20.0158 0.0105508 0.00554872)
(20.0356 0.0162228 0.0073454)
(20.0701 0.0235832 0.00928394)
(20.1238 0.0314313 0.0110581)
(20.1974 0.037223 0.0122046)
(20.2817 0.0356056 0.0120574)
(20.3527 0.0241473 0.0101271)
(20.384 0.00716794 0.00654952)
(20.368 -0.00718774 0.00232734)
(20.3223 -0.0140136 -0.00115511)
(20.2732 -0.0142179 -0.00307749)
(20.2358 -0.0119317 -0.00369302)
(20.2102 -0.00976227 -0.00373102)
(20.1913 -0.00789286 -0.00359098)
(20.1763 -0.00607209 -0.00331311)
(20.1652 -0.00452956 -0.00290226)
(20.1576 -0.00348006 -0.00244139)
(20.152 -0.00279991 -0.00200769)
(20.1473 -0.00222759 -0.00162499)
(20.1431 -0.00161989 -0.00127485)
(20.1398 -0.00100742 -0.000934729)
(20.1373 -0.000468435 -0.000594536)
(20.1357 -7.36855e-05 -0.000307366)
(20.1337 0.000411081 8.78008e-05)
(20 -0.000206734 0.000627684)
(19.9998 -0.000658112 0.00198002)
(19.9996 -0.00127875 0.00356941)
(19.9997 -0.00224408 0.00557662)
(20.0011 -0.00378717 0.00819418)
(20.0054 -0.00622045 0.0116145)
(20.0149 -0.00991339 0.0159676)
(20.0336 -0.0151671 0.0212839)
(20.066 -0.0219177 0.0272505)
(20.1159 -0.0290106 0.0328956)
(20.1836 -0.0339389 0.0366904)
(20.2596 -0.0320446 0.0367168)
(20.3219 -0.0216544 0.0320452)
(20.3474 -0.00747332 0.0238634)
(20.3316 0.00379998 0.0151556)
(20.2906 0.00836538 0.00927303)
(20.2479 0.00710044 0.00764916)
(20.2176 0.00400957 0.00886291)
(20.1992 0.00164486 0.0106839)
(20.1867 -5.61753e-05 0.0121205)
(20.1769 -0.00161799 0.0133381)
(20.17 -0.00293701 0.0145027)
(20.1658 -0.00379322 0.0154459)
(20.1633 -0.00424561 0.0159945)
(20.161 -0.00446329 0.0161971)
(20.1588 -0.00453 0.0161838)
(20.1569 -0.00444505 0.0160737)
(20.1553 -0.00423245 0.015884)
(20.1549 -0.0040127 0.0156249)
(20.1537 -0.00376322 0.0149516)
(20 -0.000600646 0.000638334)
(19.9997 -0.0019148 0.0020175)
(19.9992 -0.00372912 0.00364865)
(19.9987 -0.00656408 0.00572953)
(19.9993 -0.0111237 0.00848169)
(20.0022 -0.0183749 0.0121434)
(20.0101 -0.0295148 0.0169174)
(20.027 -0.0455813 0.0229137)
(20.0583 -0.0666409 0.0299084)
(20.1094 -0.0892888 0.0368938)
(20.1824 -0.105914 0.0421171)
(20.2678 -0.10048 0.0428297)
(20.3376 -0.0672487 0.0377126)
(20.3637 -0.0222179 0.0282092)
(20.342 0.0132343 0.0178143)
(20.2934 0.0268044 0.0110034)
(20.246 0.0218315 0.00970334)
(20.2149 0.0118769 0.0116774)
(20.1972 0.00476775 0.0139493)
(20.1851 -0.000219675 0.0155981)
(20.1754 -0.00482449 0.0170542)
(20.1689 -0.00869957 0.0184995)
(20.1652 -0.0112549 0.0196797)
(20.163 -0.0127598 0.0204152)
(20.161 -0.0137322 0.0207405)
(20.1589 -0.0143368 0.0207991)
(20.1572 -0.0144048 0.0207041)
(20.1559 -0.0138372 0.0204818)
(20.1555 -0.0129718 0.0202182)
(20.1546 -0.0115016 0.019521)
(19.9999 -0.000941246 0.00065967)
(19.9994 -0.00300501 0.0020933)
(19.9982 -0.00587285 0.00381021)
(19.9967 -0.0103947 0.00604335)
(19.9955 -0.0177594 0.00907508)
(19.9957 -0.0296696 0.0132439)
(20.0001 -0.0484061 0.01892)
(20.0128 -0.0762336 0.0263987)
(20.0413 -0.11414 0.0356596)
(20.0939 -0.156887 0.0457444)
(20.1782 -0.191439 0.0542781)
(20.2843 -0.182651 0.0564868)
(20.3707 -0.120262 0.0504477)
(20.3977 -0.0377047 0.03818)
(20.363 0.0268373 0.0238367)
(20.2977 0.0490786 0.0149632)
(20.2408 0.0367186 0.0146487)
(20.2091 0.0174386 0.0184081)
(20.1936 0.00469563 0.0215531)
(20.1825 -0.00406554 0.0234872)
(20.1732 -0.0117975 0.025225)
(20.1675 -0.0176726 0.0269446)
(20.1647 -0.0210618 0.0282758)
(20.1631 -0.0229887 0.0290451)
(20.1613 -0.0247199 0.0293765)
(20.1596 -0.0265093 0.0293971)
(20.1585 -0.0278735 0.0291564)
(20.1576 -0.0283349 0.0286164)
(20.1577 -0.0279869 0.0279887)
(20.1561 -0.0264409 0.0266428)
(19.9999 -0.00120006 0.000688819)
(19.999 -0.00383495 0.00219801)
(19.9969 -0.00752721 0.00403528)
(19.9938 -0.0134276 0.00648644)
(19.9898 -0.0232175 0.00992898)
(19.9859 -0.0394459 0.0148646)
(19.9843 -0.0658524 0.0219563)
(19.9897 -0.106832 0.0318734)
(20.0121 -0.16599 0.0450878)
(20.0651 -0.237721 0.0608839)
(20.1683 -0.303662 0.0751951)
(20.312 -0.289406 0.0800163)
(20.4267 -0.183342 0.0731847)
(20.4543 -0.0518852 0.0565373)
(20.3966 0.0497812 0.0346072)
(20.3019 0.0789753 0.0221784)
(20.2297 0.0537785 0.0243517)
(20.1984 0.0228214 0.0313083)
(20.1872 0.0031053 0.0357517)
(20.178 -0.0118429 0.0382909)
(20.1701 -0.0250932 0.0408484)
(20.1662 -0.0339833 0.0433148)
(20.1649 -0.0375924 0.0450532)
(20.1637 -0.0381365 0.0460263)
(20.1618 -0.0380446 0.0466107)
(20.16 -0.0382868 0.0469738)
(20.1591 -0.0385852 0.0470195)
(20.1589 -0.0383509 0.0465223)
(20.1593 -0.0375661 0.0456982)
(20.1589 -0.0351456 0.0435621)
(19.9998 -0.00134947 0.000724639)
(19.9984 -0.00431488 0.0023211)
(19.9953 -0.00851274 0.00430351)
(19.99 -0.0153286 0.00702902)
(19.9826 -0.0269103 0.0110024)
(19.9728 -0.0467475 0.0169687)
(19.9623 -0.0804907 0.0260645)
(19.9555 -0.136054 0.0396276)
(19.9656 -0.222638 0.0592263)
(20.0138 -0.338105 0.0841872)
(20.148 -0.462549 0.108614)
(20.3585 -0.441809 0.119358)
(20.5167 -0.263955 0.114169)
(20.5417 -0.0604191 0.0901794)
(20.4459 0.0932902 0.053117)
(20.3047 0.118577 0.0354772)
(20.2118 0.0692858 0.0443095)
(20.1835 0.0271521 0.0571728)
(20.1776 0.00425503 0.0630587)
(20.1704 -0.0158879 0.0658427)
(20.1649 -0.0366667 0.0690124)
(20.165 -0.052581 0.0718653)
(20.1674 -0.0616093 0.0732602)
(20.1681 -0.0659322 0.0736563)
(20.1668 -0.0680722 0.0738843)
(20.1652 -0.0692221 0.0743072)
(20.1646 -0.0696008 0.0747283)
(20.1648 -0.0691485 0.0746921)
(20.1658 -0.0683136 0.0742846)
(20.1648 -0.0648965 0.0717771)
(19.9998 -0.00137185 0.000763108)
(19.9978 -0.00437574 0.00245519)
(19.9934 -0.00868493 0.00458349)
(19.9858 -0.0158163 0.00760988)
(19.974 -0.0282443 0.0122071)
(19.9568 -0.0503967 0.0194479)
(19.9338 -0.090193 0.0311576)
(19.9076 -0.161113 0.0499733)
(19.8941 -0.282593 0.0789097)
(19.9232 -0.465806 0.118598)
(20.109 -0.702948 0.162783)
(20.4348 -0.660174 0.18885)
(20.6617 -0.387746 0.194184)
(20.6756 -0.0693239 0.157302)
(20.5115 0.182332 0.0894812)
(20.2955 0.18016 0.0625841)
(20.1832 0.077208 0.0828129)
(20.1678 0.0135875 0.106006)
(20.1698 -0.0104409 0.117613)
(20.1624 -0.026617 0.125761)
(20.158 -0.0416238 0.134301)
(20.1628 -0.0513164 0.140516)
(20.1707 -0.0559437 0.142938)
(20.1761 -0.0581253 0.142583)
(20.1786 -0.0593928 0.141133)
(20.18 -0.0597733 0.139537)
(20.1819 -0.0592425 0.137986)
(20.1838 -0.0581815 0.136183)
(20.1855 -0.057911 0.134739)
(20.1875 -0.0567649 0.129694)
(19.9997 -0.00125875 0.000799724)
(19.9973 -0.00400327 0.00258932)
(19.9916 -0.007964 0.00486709)
(19.9814 -0.0146744 0.00816069)
(19.9648 -0.0267108 0.0133968)
(19.9387 -0.0490111 0.0220662)
(19.8989 -0.0915891 0.0369702)
(19.8435 -0.175449 0.0627928)
(19.785 -0.336623 0.105225)
(19.7706 -0.641775 0.168017)
(20.0184 -1.08912 0.24751)
(20.5351 -0.892459 0.319142)
(20.8678 -0.56698 0.376)
(20.8872 -0.0932779 0.321197)
(20.6009 0.333242 0.201234)
(20.2476 0.289067 0.174447)
(20.1187 0.107051 0.204315)
(20.1394 -0.0115404 0.220347)
(20.1661 -0.0778494 0.22344)
(20.17 -0.124943 0.23478)
(20.1726 -0.154045 0.255195)
(20.1784 -0.163956 0.276831)
(20.1788 -0.161711 0.294316)
(20.1692 -0.154531 0.307466)
(20.1513 -0.14479 0.316832)
(20.1287 -0.132013 0.322841)
(20.1035 -0.116297 0.325898)
(20.0753 -0.099057 0.325888)
(20.049 -0.0835843 0.32563)
(20.0071 -0.0692091 0.314847)
(19.9997 -0.00101891 0.000831968)
(19.9967 -0.00320356 0.00270417)
(19.9899 -0.00639316 0.00513485)
(19.9774 -0.0118454 0.00867884)
(19.9562 -0.0219771 0.0144396)
(19.9206 -0.0415475 0.0242553)
(19.8607 -0.0811956 0.0425314)
(19.7633 -0.166917 0.0764615)
(19.6189 -0.356453 0.136489)
(19.4823 -0.846485 0.233266)
(19.6015 -1.44218 0.266667)
(20.4902 -1.8169 0.38251)
(21.0157 -0.926877 0.67287)
(21.1229 -0.597498 0.767394)
(20.8358 0.601984 0.594709)
(20.2594 0.479509 0.626977)
(20.0959 0.293285 0.76317)
(20.1035 0.225585 0.830061)
(20.0522 0.207165 0.848859)
(19.9166 0.192727 0.859004)
(19.7337 0.184583 0.863035)
(19.5249 0.184094 0.853059)
(19.2957 0.182417 0.829674)
(19.059 0.172907 0.797575)
(18.8307 0.156335 0.760002)
(18.6238 0.137181 0.718511)
(18.4468 0.119669 0.674515)
(18.2983 0.102338 0.629724)
(18.1906 0.0949454 0.588744)
(18.059 0.0604278 0.530315)
(19.9996 -0.000672752 0.000856016)
(19.9963 -0.00205405 0.00278933)
(19.9886 -0.00407164 0.00532532)
(19.9742 -0.00758617 0.00910721)
(19.9493 -0.0142773 0.0153184)
(19.9054 -0.0273124 0.0260238)
(19.8269 -0.055956 0.046944)
(19.6763 -0.121393 0.0878181)
(19.4029 -0.296181 0.165022)
(18.865 -0.824213 0.307993)
(18.7086 -2.05051 0.2936)
(20.4237 -3.36555 0.275037)
(21.0246 -1.39284 1.65616)
(21.8277 -2.4578 2.20671)
(15.8669 1.38429 1.03995)
(15.1246 0.636917 0.909915)
(14.8275 0.0280292 0.997519)
(14.7365 -0.269698 0.925041)
(14.6274 -0.409981 0.788981)
(14.5904 -0.469636 0.66219)
(14.6965 -0.471779 0.551103)
(14.9374 -0.436813 0.451547)
(15.2396 -0.395445 0.361611)
(15.5583 -0.365101 0.280213)
(15.8862 -0.34503 0.208123)
(16.2134 -0.329949 0.144438)
(16.5283 -0.314793 0.0875215)
(16.8261 -0.300163 0.0399125)
(17.0783 -0.281432 -0.00638812)
(17.3856 -0.255852 -0.0444312)
(19.9996 -0.000256274 0.000868924)
(19.9961 -0.000672082 0.00283658)
(19.9879 -0.00126535 0.0054278)
(19.9725 -0.00235449 0.00933547)
(19.9455 -0.00454306 0.0158553)
(19.8968 -0.00908588 0.027397)
(19.807 -0.0194958 0.049939)
(19.6203 -0.0432204 0.0950923)
(19.2203 -0.118383 0.182325)
(18.0937 -0.373584 0.349814)
(16.2224 -1.63648 0.0222239)
(19.6797 -10.9758 -3.52614)
(14.8682 -8.21658 12.5495)
(12.0366 -6.87713 -1.20193)
(8.24008 2.6209 -3.25654)
(11.096 1.9651 -2.72064)
(13.3538 1.35997 -2.06122)
(14.924 0.949925 -1.71753)
(15.9048 0.659957 -1.52402)
(16.5586 0.433483 -1.36693)
(17.0564 0.262702 -1.24152)
(17.4448 0.136411 -1.14988)
(17.7401 0.0429078 -1.07762)
(17.9667 -0.0280684 -1.01307)
(18.1492 -0.0820584 -0.953638)
(18.302 -0.121242 -0.900172)
(18.429 -0.147042 -0.85407)
(18.5364 -0.161575 -0.810359)
(18.6112 -0.170231 -0.783316)
(18.7129 -0.159073 -0.727045)
(19.9996 0.000185816 0.000869697)
(19.9961 0.000796768 0.00283745)
(19.9879 0.0017231 0.00543397)
(19.9725 0.00324395 0.00934114)
(19.9456 0.0059705 0.0157974)
(19.8967 0.0111572 0.0272262)
(19.8068 0.0220762 0.0497775)
(19.6194 0.0456929 0.0950151)
(19.2177 0.118175 0.182648)
(18.0806 0.360216 0.351967)
(15.5902 0.81311 -0.0798407)
(-0.908557 -1.33923 1.93697)
(9.86524 -3.61345 -3.47023)
(12.9856 -2.9988 -2.94856)
(15.1804 -2.36628 -2.2526)
(16.5647 -1.93917 -1.82918)
(17.3271 -1.64551 -1.55924)
(17.7733 -1.42272 -1.3504)
(18.0809 -1.24464 -1.19299)
(18.2987 -1.1007 -1.08323)
(18.4447 -0.978318 -1.00166)
(18.5417 -0.872057 -0.93328)
(18.6133 -0.78 -0.872813)
(18.6726 -0.699978 -0.819512)
(18.7218 -0.6302 -0.7743)
(18.7629 -0.565727 -0.73279)
(18.7888 -0.517508 -0.706369)
(18.8196 -0.441904 -0.655804)
(19.9996 0.00060587 0.000858985)
(19.9963 0.00217369 0.00278528)
(19.9885 0.0045665 0.00534793)
(19.9742 0.00856633 0.00912895)
(19.9493 0.0158352 0.0152841)
(19.9053 0.0295128 0.025938)
(19.8264 0.0587638 0.0469464)
(19.6743 0.124542 0.088095)
(19.3968 0.298548 0.166343)
(18.8368 0.822018 0.314033)
(17.8027 2.11543 0.222553)
(19.2912 9.3823 -2.54996)
(16.0095 10.4783 12.3103)
(7.01575 2.61017 0.725979)
(18.342 -2.20719 0.942497)
(17.6358 -1.42139 0.649051)
(17.5359 -0.777719 0.628081)
(17.6059 -0.434318 0.556556)
(17.6184 -0.256458 0.469912)
(17.605 -0.151436 0.412953)
(17.5995 -0.0927724 0.370701)
(17.6102 -0.0708085 0.329147)
(17.6064 -0.0629095 0.291166)
(17.595 -0.0587923 0.26184)
(17.584 -0.0550282 0.240154)
(17.5795 -0.0524857 0.22266)
(17.5793 -0.0520737 0.206019)
(17.5794 -0.0497706 0.188649)
(17.5794 -0.0557624 0.172819)
(17.5554 -0.0471216 0.148664)
(19.9997 0.000958886 0.00083843)
(19.9967 0.00333431 0.00270492)
(19.9898 0.00682888 0.00515713)