/*--------------------------------*- C++ -*----------------------------------*\
| =========                 |                                                 |
| \\      /  F ield         | OpenFOAM: The Open Source CFD Toolbox           |
|  \\    /   O peration     | Version:  2512                                  |
|   \\  /    A nd           | Website:  www.openfoam.com                      |
|    \\/     M anipulation  |                                                 |
\*---------------------------------------------------------------------------*/
FoamFile
{
    version     2.0;
    format      ascii;
    arch        "LSB;label=32;scalar=64";
    class       volScalarField;
    location    "300";
    object      k;
}
// * * * * * * * * * * * * * * * * * * * * * * * * * * * * * * * * * * * * * //

dimensions      [0 2 -2 0 0 0 0];

internalField   nonuniform List<scalar> 
84826
(
0.231932
0.224217
0.216974
0.210159
0.203734
0.197666
0.191933
0.186502
0.18141
0.176631
0.172163
0.168
0.164081
0.160375
0.156813
0.153361
0.149997
0.146746
0.143598
0.140551
0.137603
0.134758
0.132015
0.129372
0.126824
0.124367
0.121998
0.119712
0.117506
0.115376
0.231933
0.224219
0.216979
0.210169
0.20375
0.197692
0.191969
0.186552
0.181474
0.176712
0.172265
0.168122
0.164224
0.160531
0.156976
0.153524
0.150151
0.146892
0.143734
0.140675
0.137719
0.134868
0.13212
0.129471
0.126917
0.124454
0.122079
0.119786
0.117573
0.115437
0.231933
0.224221
0.216984
0.210177
0.203766
0.197718
0.192011
0.186612
0.181562
0.176835
0.172435
0.16834
0.16449
0.16083
0.157293
0.153843
0.150456
0.147179
0.144
0.140926
0.137958
0.135094
0.132333
0.129672
0.127108
0.124635
0.12225
0.119947
0.117725
0.115579
0.231934
0.224223
0.216987
0.210185
0.20378
0.197743
0.192052
0.186675
0.181664
0.176994
0.172674
0.168667
0.164897
0.161296
0.157791
0.154349
0.150947
0.147643
0.144441
0.141344
0.138351
0.135464
0.13268
0.129997
0.127411
0.124917
0.122511
0.120189
0.117947
0.115783
0.231934
0.224224
0.21699
0.210191
0.203791
0.197765
0.192091
0.186742
0.181781
0.177193
0.172894
0.168926
0.165299
0.161804
0.158371
0.154953
0.151538
0.148208
0.144977
0.141849
0.138825
0.135914
0.133117
0.130433
0.127861
0.125399
0.123046
0.120798
0.118651
0.116596
0.231934
0.224224
0.216992
0.210195
0.2038
0.197784
0.192127
0.186813
0.181916
0.177312
0.173118
0.169348
0.165868
0.162529
0.1592
0.155812
0.152373
0.149008
0.145748
0.142629
0.139755
0.1372
0.135011
0.133211
0.131793
0.130738
0.130011
0.129556
0.129325
0.129187
0.231934
0.224224
0.216992
0.210197
0.203807
0.197799
0.192161
0.186903
0.181995
0.177456
0.173719
0.170567
0.168386
0.168301
0.165505
0.162416
0.15925
0.156384
0.155709
0.158251
0.163641
0.171219
0.180382
0.190605
0.201346
0.212206
0.22284
0.233033
0.242251
0.250962
0.231934
0.224224
0.216992
0.210198
0.203812
0.197812
0.192194
0.186989
0.182052
0.177662
0.173561
0.167138
0.162269
0.169668
0.431774
0.421635
0.4297
0.457029
0.48854
0.519107
0.546719
0.570384
0.590177
0.606517
0.619627
0.629611
0.636604
0.640654
0.641143
0.639602
0.231934
0.224223
0.216991
0.210198
0.203814
0.197821
0.19222
0.18704
0.182154
0.17794
0.174389
0.175563
0.210182
0.848364
2.7764
2.46334
2.2126
2.00268
1.82687
1.68058
1.55758
1.45236
1.36102
1.28077
1.20957
1.14728
1.09403
1.04646
1.00366
0.962996
0.231935
0.224225
0.216994
0.210203
0.203821
0.197831
0.19224
0.187043
0.182211
0.178265
0.175866
0.180719
1.00157
3.39642
3.11901
2.7435
2.46167
2.22269
2.02178
1.8527
1.70758
1.58093
1.46919
1.36978
1.28077
1.20068
1.12836
1.06272
1.00352
0.948749
0.231936
0.224228
0.216998
0.210207
0.203826
0.19783
0.192239
0.187042
0.182209
0.178263
0.176303
0.180527
3.55984
3.2036
2.73823
2.45325
2.20403
1.99118
1.81041
1.65481
1.51969
1.40175
1.29849
1.20788
1.12822
1.05811
0.99624
0.941917
0.893154
0.231937
0.224225
0.216994
0.210202
0.203819
0.197819
0.192218
0.187037
0.182151
0.177934
0.174815
0.175351
0.385216
1.78776
2.50495
2.26956
2.06884
1.89678
1.74619
1.61472
1.50022
1.39931
1.30877
1.22714
1.15332
1.08659
1.02644
0.972273
0.924109
0.880215
0.231935
0.224223
0.216991
0.210197
0.20381
0.197809
0.192191
0.186985
0.182047
0.177654
0.173774
0.169242
0.172796
0.292397
0.475236
0.482745
0.513452
0.548771
0.579044
0.602139
0.61724
0.624764
0.62594
0.621996
0.614195
0.603685
0.591277
0.577875
0.56356
0.549525
0.231934
0.224224
0.216991
0.210196
0.203805
0.197796
0.192157
0.186898
0.181989
0.177446
0.173696
0.170525
0.168365
0.169573
0.16695
0.163963
0.161043
0.161749
0.164694
0.16912
0.174208
0.179233
0.183768
0.18766
0.19091
0.193521
0.195554
0.197109
0.198238
0.199165
0.231934
0.224224
0.216991
0.210193
0.203798
0.19778
0.192123
0.186807
0.181907
0.177301
0.1731
0.169319
0.16583
0.162533
0.159194
0.155795
0.152353
0.149013
0.145833
0.142861
0.140107
0.137556
0.135175
0.132935
0.130815
0.128799
0.126876
0.125035
0.123285
0.121608
0.231934
0.224223
0.216989
0.210189
0.203789
0.197762
0.192086
0.186736
0.181771
0.177179
0.172875
0.168899
0.165259
0.161756
0.158312
0.154891
0.151481
0.14817
0.14497
0.141882
0.138906
0.136044
0.133291
0.130641
0.128089
0.125628
0.123252
0.120958
0.11874
0.116595
0.231934
0.224222
0.216987
0.210184
0.203778
0.19774
0.192047
0.186669
0.181654
0.17698
0.172654
0.168638
0.164859
0.16125
0.157744
0.154304
0.150912
0.147627
0.144449
0.141382
0.138422
0.135569
0.13282
0.130171
0.127615
0.125147
0.122762
0.120457
0.118227
0.116071
0.231933
0.224221
0.216983
0.210176
0.203764
0.197715
0.192006
0.186604
0.181551
0.176819
0.172412
0.16831
0.164452
0.160788
0.15725
0.153805
0.15043
0.147165
0.144008
0.140961
0.13802
0.135186
0.132454
0.129821
0.127281
0.12483
0.122463
0.120175
0.117964
0.115825
0.231933
0.224219
0.216979
0.210168
0.203749
0.197689
0.191964
0.186544
0.181462
0.176694
0.172239
0.168089
0.164183
0.160487
0.156933
0.153487
0.150123
0.146872
0.143729
0.140695
0.137767
0.134944
0.132223
0.129599
0.127067
0.124623
0.122263
0.119982
0.117777
0.115645
0.231932
0.224217
0.216974
0.210159
0.203733
0.197663
0.191927
0.186493
0.181395
0.17661
0.172134
0.167964
0.164038
0.160329
0.15677
0.153325
0.149968
0.146725
0.143591
0.140566
0.137647
0.134831
0.132117
0.129499
0.126973
0.124534
0.122179
0.119903
0.117703
0.115574
0.238838
0.237493
0.236013
0.234425
0.23275
0.231007
0.22922
0.227417
0.225636
0.223923
0.222277
0.220594
0.218752
0.216817
0.214917
0.213082
0.211259
0.209418
0.207576
0.205735
0.203898
0.202066
0.200241
0.198425
0.196615
0.194822
0.193047
0.191289
0.189551
0.187843
0.238838
0.237493
0.236013
0.234425
0.23275
0.231008
0.229222
0.227427
0.225667
0.223998
0.222431
0.220833
0.219066
0.217176
0.215298
0.213474
0.211655
0.209813
0.207964
0.206116
0.204268
0.202421
0.200579
0.198741
0.196914
0.195102
0.193305
0.191524
0.189763
0.188029
0.238839
0.237493
0.236013
0.234425
0.232751
0.23101
0.229229
0.227453
0.225742
0.22419
0.222839
0.221467
0.21989
0.218115
0.216292
0.214493
0.212673
0.21082
0.208951
0.207071
0.205186
0.203301
0.201415
0.199535
0.197667
0.195812
0.193971
0.192147
0.190342
0.188567
0.238839
0.237493
0.236013
0.234425
0.232751
0.231014
0.229244
0.227506
0.225903
0.224617
0.223744
0.222876
0.22167
0.220119
0.218398
0.216628
0.214782
0.212884
0.210949
0.208996
0.207029
0.205055
0.203073
0.2011
0.199134
0.19718
0.19524
0.193318
0.191414
0.18954
0.23884
0.237494
0.236013
0.234425
0.232753
0.231021
0.229272
0.227609
0.226227
0.225498
0.225419
0.225339
0.22487
0.223772
0.222266
0.220527
0.21857
0.216516
0.214426
0.212327
0.210214
0.208086
0.205948
0.20381
0.201674
0.199548
0.197434
0.195341
0.193271
0.191239
0.23884
0.237496
0.236015
0.234426
0.232756
0.231034
0.229323
0.227796
0.226834
0.2269
0.228129
0.228882
0.229447
0.229291
0.228429
0.22688
0.224854
0.222559
0.220179
0.217799
0.215442
0.213124
0.21085
0.208635
0.206476
0.204375
0.202338
0.200365
0.19846
0.196596
0.23884
0.237496
0.236018
0.23443
0.232761
0.231053
0.229403
0.228117
0.227842
0.229133
0.232668
0.236306
0.238425
0.240431
0.241295
0.241471
0.241285
0.240815
0.240228
0.239699
0.239287
0.239068
0.239128
0.239598
0.240553
0.24203
0.244079
0.24669
0.249718
0.253314
0.23884
0.237496
0.236018
0.234434
0.23277
0.231082
0.229512
0.228592
0.229121
0.232606
0.234606
0.244296
0.249999
0.286796
0.445711
0.450057
0.45466
0.461059
0.469995
0.481978
0.496196
0.511658
0.527732
0.543782
0.559357
0.57435
0.588495
0.6013
0.612247
0.621046
0.23884
0.237496
0.236018
0.234435
0.232778
0.231109
0.229636
0.229132
0.230549
0.237987
0.246941
0.282216
0.363937
1.67451
3.28726
2.70804
2.36313
2.14498
2.01379
1.94714
1.90938
1.88328
1.86251
1.84083
1.81405
1.77902
1.73356
1.67919
1.61751
1.55179
0.23884
0.237496
0.236018
0.234436
0.232782
0.231123
0.229719
0.229424
0.231765
0.24305
0.266507
0.802792
5.0632
6.40836
3.65437
3.15792
2.79871
2.49205
2.24804
2.05811
1.90433
1.77389
1.65943
1.55638
1.46215
1.37539
1.29534
1.22104
1.15366
1.0899
0.23884
0.237496
0.236018
0.234436
0.232782
0.231124
0.22972
0.229424
0.231763
0.243034
0.268358
3.94939
3.63563
3.12838
2.74105
2.41001
2.14121
1.92538
1.74762
1.59842
1.47185
1.36389
1.27146
1.19221
1.12442
1.0662
1.01734
0.974235
0.23884
0.237496
0.236015
0.234435
0.232778
0.231109
0.229635
0.229128
0.230535
0.237937
0.255184
0.617285
5.23956
4.09739
3.32343
2.76772
2.44442
2.22439
2.06371
1.94212
1.82926
1.72073
1.61871
1.52456
1.43966
1.36459
1.29951
1.24415
1.19821
1.16133
0.238839
0.237496
0.236015
0.234434
0.23277
0.231081
0.229509
0.228582
0.229098
0.232543
0.237646
0.259869
0.276395
0.578134
0.495006
0.497883
0.498956
0.496988
0.491578
0.484232
0.475975
0.467692
0.459987
0.45318
0.44769
0.443737
0.4413
0.439733
0.438962
0.439558
0.238839
0.237496
0.236017
0.23443
0.23276
0.231052
0.229399
0.228107
0.227821
0.22908
0.232532
0.235986
0.238067
0.240916
0.241964
0.241935
0.241577
0.241126
0.240556
0.23982
0.238808
0.23751
0.235987
0.234377
0.232789
0.23129
0.229947
0.228828
0.227892
0.227486
0.23884
0.237496
0.236015
0.234426
0.232755
0.231032
0.229319
0.227787
0.226813
0.226861
0.228038
0.228705
0.229189
0.229095
0.228227
0.226674
0.22465
0.222384
0.220023
0.217636
0.215236
0.212843
0.210474
0.208137
0.205845
0.203601
0.201399
0.199249
0.197152
0.195118
0.238839
0.237494
0.236013
0.234425
0.232752
0.231019
0.229269
0.227601
0.22621
0.225465
0.225362
0.225235
0.224718
0.223614
0.222048
0.220233
0.218229
0.216177
0.214119
0.21208
0.210058
0.208056
0.206079
0.204132
0.202206
0.200301
0.198408
0.196522
0.194647
0.192787
0.238839
0.237493
0.236013
0.234425
0.23275
0.231012
0.22924
0.227498
0.225888
0.224592
0.223704
0.222816
0.221595
0.220034
0.218272
0.216451
0.214562
0.212654
0.210733
0.208817
0.206908
0.205009
0.203119
0.201249
0.199394
0.197555
0.195731
0.193919
0.192122
0.190345
0.238839
0.237493
0.236013
0.234424
0.23275
0.231008
0.229224
0.227445
0.225729
0.224168
0.222809
0.221433
0.219855
0.218075
0.216225
0.214392
0.212539
0.210684
0.208825
0.206974
0.205133
0.203306
0.201491
0.199693
0.197913
0.196149
0.1944
0.192667
0.190951
0.189254
0.238838
0.237493
0.236013
0.234424
0.232749
0.231006
0.229218
0.227419
0.225653
0.223978
0.222406
0.220808
0.219046
0.217154
0.215257
0.213406
0.211564
0.209725
0.207887
0.206057
0.204237
0.202429
0.200635
0.198852
0.197084
0.195334
0.193599
0.191879
0.190175
0.188491
0.238838
0.237492
0.236012
0.234424
0.232748
0.231004
0.229215
0.227408
0.225623
0.223904
0.222255
0.220574
0.218739
0.216804
0.214888
0.213031
0.211192
0.209358
0.207528
0.205706
0.203893
0.202094
0.200309
0.198538
0.196778
0.195038
0.193315
0.191607
0.189915
0.188245
0.239048
0.238077
0.237093
0.236095
0.235083
0.234063
0.233049
0.232065
0.231166
0.230395
0.229732
0.229007
0.228031
0.226885
0.225745
0.224651
0.223546
0.222401
0.221231
0.220042
0.21884
0.217626
0.216405
0.215179
0.213946
0.212712
0.211484
0.210257
0.209033
0.207824
0.239049
0.238077
0.237094
0.236096
0.235085
0.234066
0.233058
0.232089
0.231227
0.230532
0.229997
0.229416
0.228557
0.227491
0.226393
0.225321
0.224224
0.223076
0.221902
0.220706
0.219495
0.218272
0.21704
0.215801
0.214556
0.213313
0.212072
0.210832
0.209595
0.208371
0.239049
0.238078
0.237094
0.236097
0.235087
0.234074
0.233079
0.232147
0.231375
0.230872
0.230665
0.230438
0.229857
0.228975
0.227976
0.22695
0.225861
0.224707
0.223512
0.22229
0.22105
0.219799
0.218538
0.217271
0.216
0.214733
0.213467
0.212202
0.210938
0.209688
0.239049
0.238078
0.237094
0.236098
0.235092
0.234087
0.233116
0.232255
0.231663
0.231547
0.23175
0.232008
0.231935
0.231475
0.230726
0.229814
0.228746
0.227579
0.226353
0.22509
0.223803
0.222501
0.221185
0.219867
0.218546
0.217229
0.215911
0.214594
0.213278
0.211972
0.23905
0.238079
0.237095
0.2361
0.235098
0.234107
0.233177
0.232443
0.232187
0.232495
0.233429
0.234428
0.235075
0.235239
0.235069
0.234467
0.233449
0.232229
0.230926
0.229593
0.228245
0.226889
0.225524
0.224163
0.222803
0.221444
0.220083
0.218718
0.217347
0.215976
0.239051
0.23808
0.237097
0.236103
0.235107
0.234136
0.233272
0.232753
0.232901
0.233962
0.23631
0.238459
0.240146
0.241078
0.241481
0.241413
0.240698
0.239498
0.238101
0.236646
0.235178
0.233717
0.23226
0.230816
0.229372
0.227925
0.226481
0.225044
0.223613
0.22219
0.239051
0.238081
0.237099
0.236108
0.235118
0.234173
0.233408
0.233241
0.233926
0.236288
0.241132
0.246606
0.250019
0.252636
0.254274
0.254859
0.254915
0.25444
0.253826
0.253316
0.252964
0.25274
0.252519
0.252243
0.251861
0.251365
0.250769
0.250085
0.24935
0.248533
0.239051
0.238082
0.237102
0.236113
0.235132
0.23422
0.233576
0.233724
0.235215
0.2399
0.243402
0.257533
0.268366
0.276428
0.314016
0.319436
0.322128
0.324102
0.325924
0.328125
0.330863
0.334034
0.337555
0.341314
0.34528
0.349435
0.353716
0.357973
0.362032
0.365751
0.239051
0.238083
0.237104
0.236118
0.235147
0.234261
0.233757
0.234205
0.236653
0.245319
0.255141
0.297321
0.482988
0.508049
1.63869
1.35107
1.17422
1.05967
0.978701
0.920412
0.874106
0.833391
0.793713
0.755258
0.719648
0.686405
0.655234
0.625798
0.598133
0.571456
0.239051
0.238083
0.237105
0.236122
0.235156
0.234288
0.233877
0.234532
0.237956
0.250698
0.272717
0.784983
9.19934
5.00232
3.32055
2.5152
2.04404
1.72657
1.49391
1.32034
1.18512
1.0763
0.986342
0.910483
0.845628
0.789564
0.740668
0.697626
0.659681
0.625586
0.239051
0.238083
0.237105
0.23612
0.235153
0.234287
0.233875
0.234529
0.237949
0.250688
0.274246
4.96158
3.47506
2.65171
2.16475
1.83013
1.58158
1.39157
1.24083
1.11932
1.0187
0.934043
0.861955
0.799979
0.746303
0.69952
0.658694
0.62275
0.23905
0.238082
0.237101
0.236116
0.235144
0.23426
0.233755
0.234199
0.236639
0.245276
0.260206
0.649518
12.2298
4.9155
1.70159
1.40752
1.20896
1.0635
0.948773
0.855476
0.77749
0.71181
0.655978
0.60828
0.568011
0.533945
0.505302
0.481515
0.462076
0.447138
0.239049
0.238081
0.237098
0.236113
0.235131
0.234219
0.233574
0.233717
0.235196
0.239842
0.246477
0.276127
0.299981
0.325441
0.317972
0.325961
0.330778
0.333543
0.33449
0.333921
0.331986
0.329034
0.325255
0.320937
0.316452
0.311988
0.307806
0.304007
0.300744
0.298289
0.23905
0.238081
0.237099
0.236108
0.235117
0.234172
0.233404
0.23323
0.233907
0.236241
0.241002
0.246226
0.249553
0.25232
0.253986
0.254503
0.254347
0.253763
0.253023
0.252197
0.251243
0.250137
0.248867
0.247483
0.246026
0.244503
0.242954
0.2414
0.239884
0.238433
0.239051
0.23808
0.237097
0.236103
0.235106
0.234134
0.233269
0.232744
0.232885
0.233931
0.236233
0.238288
0.239917
0.240881
0.241246
0.24112
0.240368
0.239217
0.237888
0.236481
0.23503
0.23356
0.232079
0.230604
0.229131
0.227655
0.226167
0.224678
0.223195
0.221724
0.23905
0.238079
0.237095
0.2361
0.235097
0.234106
0.233174
0.232435
0.23217
0.232469
0.233383
0.234343
0.234957
0.235112
0.234901
0.234219
0.233178
0.231982
0.230731
0.22946
0.22818
0.226892
0.2256
0.224314
0.223031
0.22175
0.220461
0.219156
0.217844
0.21653
0.239049
0.238078
0.237094
0.236098
0.235091
0.234085
0.233112
0.232248
0.23165
0.231525
0.231719
0.231961
0.231875
0.231406
0.230623
0.229667
0.228582
0.227419
0.226217
0.224993
0.223758
0.222514
0.221259
0.220003
0.218743
0.217482
0.216222
0.214953
0.213681
0.212413
0.239049
0.238077
0.237094
0.236096
0.235086
0.234072
0.233075
0.23214
0.231363
0.230852
0.230639
0.230412
0.229839
0.22896
0.227942
0.226889
0.22579
0.224636
0.223456
0.222262
0.221059
0.21985
0.218635
0.217417
0.216193
0.214973
0.213752
0.212529
0.211307
0.210088
0.239048
0.238077
0.237093
0.236095
0.235084
0.234064
0.233055
0.232082
0.231215
0.230515
0.229977
0.229402
0.228558
0.227498
0.226386
0.225293
0.224186
0.223034
0.221869
0.220692
0.219505
0.218311
0.217113
0.215909
0.2147
0.213492
0.212285
0.211077
0.209869
0.208668
0.239048
0.238077
0.237093
0.236094
0.235082
0.234061
0.233045
0.232058
0.231154
0.230379
0.229716
0.228999
0.228041
0.226904
0.225753
0.224641
0.223526
0.222376
0.221214
0.220042
0.21886
0.217672
0.216479
0.215284
0.214082
0.212879
0.21168
0.210479
0.209279
0.208087
0.239057
0.23811
0.237169
0.236233
0.235305
0.23439
0.233498
0.232659
0.231915
0.231301
0.230793
0.230239
0.229485
0.228595
0.227714
0.226871
0.226019
0.225137
0.224233
0.223312
0.222379
0.221437
0.220489
0.219537
0.218583
0.217625
0.216667
0.215711
0.214757
0.213813
0.239057
0.23811
0.237169
0.236234
0.235306
0.234393
0.233507
0.232683
0.231974
0.23143
0.23104
0.230621
0.229981
0.229166
0.228334
0.227519
0.226682
0.225803
0.224901
0.22398
0.223046
0.222102
0.221152
0.220197
0.219237
0.218276
0.217313
0.216353
0.215393
0.214443
0.239058
0.238111
0.237169
0.236235
0.235309
0.234401
0.233529
0.232739
0.232113
0.231744
0.23165
0.231555
0.23118
0.230543
0.229819
0.229063
0.228246
0.227374
0.226468
0.225539
0.224595
0.223641
0.222682
0.221719
0.220751
0.219782
0.218813
0.217844
0.216874
0.215914
0.239058
0.238111
0.23717
0.236236
0.235313
0.234413
0.233566
0.232841
0.232379
0.232361
0.232661
0.233012
0.233108
0.232851
0.232369
0.231733
0.230956
0.230095
0.229186
0.228248
0.22729
0.226321
0.225346
0.224366
0.223383
0.222398
0.221414
0.220429
0.21944
0.218458
0.239058
0.238111
0.23717
0.236238
0.23532
0.234433
0.233624
0.233013
0.232847
0.23322
0.234128
0.235107
0.235817
0.236096
0.236115
0.235753
0.23506
0.234221
0.23331
0.232374
0.231429
0.230483
0.229534
0.228585
0.227637
0.226687
0.225734
0.224771
0.223796
0.222811
0.239059
0.238111
0.237171
0.236241
0.235328
0.23446
0.233711
0.23329
0.233509
0.234496
0.236502
0.238587
0.240114
0.24108
0.24159
0.241721
0.241377
0.240677
0.239809
0.238878
0.237929
0.236974
0.23601
0.235047
0.234076
0.233102
0.232121
0.231129
0.230121
0.229103
0.239059
0.238113
0.237172
0.236244
0.235338
0.234494
0.233832
0.233707
0.23438
0.236392
0.240377
0.244864
0.247925
0.250142
0.251461
0.252035
0.252117
0.251708
0.251091
0.250475
0.249933
0.24945
0.248982
0.248502
0.247976
0.247395
0.246744
0.246009
0.245194
0.244261
0.23906
0.238114
0.237175
0.236247
0.235349
0.234532
0.233976
0.234166
0.235454
0.239302
0.242581
0.254252
0.263178
0.267897
0.281213
0.282427
0.282676
0.282538
0.282134
0.281764
0.281538
0.281351
0.281147
0.280834
0.280381
0.279742
0.278894
0.277807
0.276517
0.274844
0.23906
0.238115
0.237177
0.236252
0.235363
0.234567
0.234123
0.234561
0.236604
0.243254
0.25084
0.280652
0.356696
0.363561
0.510327
0.466584
0.432639
0.405407
0.383252
0.365175
0.350045
0.337282
0.326379
0.317023
0.308891
0.301763
0.29545
0.289778
0.284634
0.279863
0.23906
0.238116
0.237179
0.236258
0.235374
0.234595
0.23423
0.234832
0.237572
0.247276
0.261548
0.673902
15.7687
8.15039
2.35131
1.80365
1.4588
1.22378
1.05263
0.925447
0.826088
0.746645
0.682481
0.629405
0.58492
0.547214
0.514937
0.487039
0.462678
0.441301
0.23906
0.238115
0.237179
0.236256
0.235369
0.234594
0.234227
0.234828
0.237563
0.247258
0.262939
0.740971
10.3401
9.17109
2.47115
1.92372
1.57016
1.32756
1.15096
1.01688
0.911432
0.826643
0.75655
0.697225
0.646682
0.602818
0.564345
0.530282
0.499875
0.472538
0.239058
0.238113
0.237175
0.236249
0.235358
0.234565
0.23412
0.234556
0.236589
0.243204
0.253251
0.507051
8.50612
9.55984
0.529779
0.491873
0.459289
0.431849
0.40859
0.388635
0.371326
0.356198
0.342839
0.330897
0.320263
0.310657
0.301981
0.294079
0.286879
0.280313
0.239058
0.238113
0.237173
0.236247
0.235349
0.234532
0.233974
0.23416
0.235437
0.239246
0.244702
0.264353
0.278422
0.287836
0.280163
0.281893
0.282657
0.282875
0.282435
0.281554
0.280309
0.278711
0.276807
0.274634
0.272295
0.269838
0.267341
0.264824
0.262357
0.259967
0.239058
0.238112
0.237172
0.236244
0.235338
0.234493
0.233829
0.233698
0.234362
0.23635
0.240255
0.244516
0.247463
0.249746
0.251102
0.251677
0.251843
0.251587
0.251111
0.25053
0.249864
0.249098
0.248222
0.247257
0.246216
0.245103
0.243934
0.242714
0.24147
0.240203
0.239059
0.238111
0.237171
0.23624
0.235328
0.234459
0.233708
0.233282
0.233494
0.234467
0.236432
0.238427
0.239903
0.24086
0.24134
0.241451
0.24115
0.240573
0.239839
0.239009
0.238111
0.237161
0.236169
0.235158
0.234128
0.233087
0.232026
0.230948
0.229857
0.228759
0.239058
0.238111
0.23717
0.236238
0.235319
0.234432
0.233621
0.233006
0.232832
0.233196
0.234086
0.235029
0.235706
0.235962
0.235951
0.235547
0.23486
0.234065
0.233214
0.232334
0.231436
0.230525
0.229602
0.228672
0.227736
0.226793
0.225839
0.224866
0.22388
0.222886
0.239058
0.238111
0.23717
0.236236
0.235313
0.234412
0.233563
0.232835
0.232366
0.232339
0.232631
0.232966
0.233051
0.232777
0.23227
0.231611
0.230833
0.229989
0.229111
0.228208
0.22729
0.22636
0.225422
0.224476
0.223522
0.222561
0.221599
0.220627
0.21965
0.218674
0.239058
0.23811
0.237169
0.236234
0.235308
0.234399
0.233526
0.232733
0.232102
0.231726
0.231625
0.231527
0.231156
0.230521
0.229785
0.229014
0.228194
0.227328
0.226441
0.225537
0.224623
0.2237
0.222771
0.221836
0.220894
0.219948
0.218999
0.218048
0.217094
0.216143
0.239057
0.23811
0.237169
0.236233
0.235305
0.234391
0.233504
0.232677
0.231963
0.231414
0.231021
0.230605
0.229976
0.229167
0.228327
0.2275
0.226657
0.225782
0.224891
0.223987
0.223073
0.222151
0.221223
0.220291
0.219353
0.218411
0.217467
0.216522
0.215576
0.214634
0.239057
0.23811
0.237168
0.236232
0.235304
0.234388
0.233494
0.232652
0.231905
0.231287
0.230777
0.23023
0.229491
0.228609
0.227723
0.226868
0.22601
0.22513
0.224234
0.223327
0.222411
0.221488
0.22056
0.219628
0.218693
0.217753
0.216812
0.215869
0.214925
0.213987
0.239058
0.238112
0.237174
0.236243
0.235324
0.23442
0.233538
0.232709
0.23196
0.231314
0.23075
0.230157
0.229426
0.228605
0.227794
0.22701
0.226224
0.225416
0.224596
0.223766
0.222929
0.222089
0.221247
0.220406
0.219565
0.218725
0.217887
0.217051
0.216218
0.215397
0.239058
0.238112
0.237174
0.236244
0.235325
0.234422
0.233546
0.23273
0.232008
0.231417
0.230943
0.230456
0.229815
0.229056
0.228286
0.227528
0.226756
0.225956
0.225142
0.224315
0.223481
0.222644
0.221804
0.220964
0.220125
0.219286
0.218447
0.217612
0.216779
0.215957
0.239058
0.238112
0.237174
0.236245
0.235327
0.234429
0.233564
0.232776
0.23212
0.231663
0.231413
0.231182
0.230751
0.230138
0.229464
0.228762
0.228019
0.227232
0.226426
0.225603
0.22477
0.223933
0.223095
0.222256
0.221418
0.22058
0.219743
0.218907
0.218074
0.217251
0.239058
0.238112
0.237175
0.236246
0.235331
0.23444
0.233596
0.232858
0.23233
0.23214
0.232291
0.232481
0.232448
0.232113
0.231615
0.23101
0.230311
0.22954
0.228739
0.227915
0.227078
0.226235
0.22539
0.224546
0.223703
0.22286
0.222019
0.221179
0.220341
0.219511
0.239058
0.238113
0.237175
0.236248
0.235336
0.234456
0.233644
0.232995
0.232695
0.232901
0.233505
0.234211
0.234649
0.234813
0.23469
0.234288
0.233678
0.23296
0.232185
0.231379
0.230562
0.229741
0.228921
0.228104
0.227289
0.226477
0.225665
0.224853
0.224037
0.223219
0.239058
0.238113
0.237176
0.23625
0.235343
0.234478
0.233713
0.233209
0.23329
0.233941
0.235334
0.236888
0.237988
0.238679
0.239027
0.239089
0.238765
0.238217
0.237534
0.236789
0.236021
0.235245
0.234464
0.23368
0.232891
0.232099
0.231301
0.230493
0.229671
0.228839
0.239058
0.238113
0.237177
0.236252
0.235351
0.234505
0.233807
0.233525
0.233944
0.235343
0.238193
0.241011
0.243171
0.244662
0.245549
0.246085
0.246306
0.24629
0.245958
0.24544
0.244838
0.244203
0.243555
0.242894
0.242217
0.24152
0.240799
0.240042
0.239245
0.2384
0.239059
0.238113
0.237179
0.236255
0.23536
0.234535
0.233919
0.233934
0.234805
0.237365
0.242752
0.249506
0.253706
0.256491
0.258021
0.258677
0.259023
0.259158
0.25914
0.259031
0.258871
0.258723
0.258556
0.258328
0.258017
0.257587
0.257015
0.256277
0.255387
0.254277
0.239059
0.238115
0.237181
0.236259
0.23537
0.234563
0.234024
0.234248
0.235625
0.239841
0.244444
0.261056
0.27664
0.282061
0.290304
0.290373
0.289498
0.287317
0.284723
0.282013
0.279303
0.276689
0.274117
0.271618
0.269193
0.26683
0.2645
0.262183
0.259883
0.25754
0.23906
0.238116
0.237183
0.236265
0.235379
0.234583
0.234096
0.234441
0.236258
0.242091
0.249959
0.298966
0.467906
0.460219
0.434534
0.416599
0.39854
0.381955
0.36705
0.353797
0.341999
0.331464
0.321854
0.313154
0.305281
0.298084
0.291478
0.285379
0.279714
0.274421
0.239059
0.238115
0.237182
0.236263
0.235377
0.234583
0.234095
0.234438
0.236252
0.242067
0.250317
0.312829
0.551663
0.579018
0.39728
0.390335
0.380013
0.369046
0.3584
0.348421
0.339062
0.330343
0.322081
0.314331
0.307017
0.300136
0.293621
0.287436
0.281555
0.275954
0.239058
0.238113
0.237178
0.236257
0.235367
0.234562
0.234022
0.234244
0.235613
0.239795
0.246031
0.271472
0.29528
0.300757
0.285879
0.287138
0.28739
0.286215
0.284276
0.281972
0.279459
0.276825
0.274124
0.271385
0.268638
0.26591
0.263197
0.260512
0.257866
0.25526
0.239058
0.238113
0.237177
0.236255
0.23536
0.234535
0.233918
0.233926
0.23479
0.23732
0.242579
0.248873
0.252875
0.255738
0.257357
0.258111
0.258598
0.258915
0.259062
0.259081
0.258889
0.258483
0.257893
0.257139
0.256238
0.255203
0.254038
0.252752
0.251371
0.249897
0.239058
0.238113
0.237176
0.236252
0.235351
0.234504
0.233804
0.233517
0.233928
0.235311
0.238091
0.24073
0.242809
0.244313
0.245206
0.245766
0.246071
0.246192
0.246085
0.245728
0.245184
0.244501
0.243719
0.242866
0.241961
0.241014
0.240031
0.239011
0.237964
0.236895
0.239058
0.238113
0.237176
0.23625
0.235343
0.234477
0.233711
0.233203
0.233277
0.233916
0.235279
0.236761
0.237812
0.238478
0.238805
0.238861
0.238572
0.2381
0.237509
0.236841
0.236121
0.235363
0.234581
0.233781
0.232966
0.232141
0.231296
0.230433
0.22955
0.228656
0.239058
0.238113
0.237175
0.236247
0.235336
0.234454
0.233642
0.232989
0.232683
0.23288
0.23347
0.234144
0.234555
0.234697
0.234535
0.234113
0.233514
0.23283
0.232099
0.231338
0.230558
0.229765
0.228965
0.22816
0.22735
0.226536
0.225716
0.224887
0.22405
0.223213
0.239058
0.238112
0.237174
0.236246
0.23533
0.234438
0.233593
0.232853
0.232319
0.232121
0.232264
0.232441
0.23239
0.232042
0.231529
0.230914
0.230221
0.229468
0.228694
0.227899
0.227091
0.226276
0.225457
0.224634
0.223809
0.222978
0.222148
0.221312
0.220475
0.219642
0.239058
0.238112
0.237174
0.236244
0.235326
0.234427
0.233561
0.23277
0.23211
0.231647
0.231391
0.231154
0.230724
0.230112
0.229431
0.228723
0.227981
0.227204
0.226414
0.22561
0.224799
0.223984
0.223165
0.222344
0.221521
0.220695
0.219868
0.219038
0.218211
0.217389
0.239058
0.238112
0.237174
0.236243
0.235324
0.234421
0.233543
0.232724
0.231999
0.231403
0.230925
0.230438
0.229803
0.229048
0.228275
0.227512
0.226739
0.225944
0.225141
0.224328
0.22351
0.222688
0.221864
0.221038
0.220212
0.219384
0.218555
0.217726
0.216899
0.216079
0.239058
0.238112
0.237173
0.236243
0.235322
0.234418
0.233535
0.232703
0.231951
0.231302
0.230735
0.230145
0.229424
0.228609
0.227796
0.227008
0.22622
0.225416
0.224605
0.223786
0.222963
0.222136
0.221307
0.220478
0.219649
0.21882
0.217989
0.217159
0.21633
0.21551
0.239058
0.238112
0.237174
0.236244
0.235325
0.23442
0.233536
0.232696
0.231918
0.231218
0.230574
0.229912
0.229162
0.228353
0.227551
0.226767
0.225983
0.225186
0.224382
0.223573
0.222762
0.22195
0.22114
0.220332
0.219528
0.218727
0.21793
0.217137
0.216348
0.215572
0.239058
0.238112
0.237174
0.236244
0.235326
0.234422
0.233542
0.232712
0.231955
0.231294
0.230713
0.230126
0.229441
0.228679
0.227909
0.227146
0.226374
0.225582
0.224785
0.22398
0.223172
0.222363
0.221557
0.220752
0.219951
0.219153
0.218359
0.217568
0.216781
0.216008
0.239058
0.238112
0.237174
0.236245
0.235327
0.234428
0.233556
0.232747
0.232039
0.231472
0.231046
0.230642
0.230112
0.22946
0.228762
0.228042
0.227295
0.226518
0.22573
0.224932
0.22413
0.223326
0.222524
0.221725
0.22093
0.220137
0.219349
0.218562
0.21778
0.21701
0.239058
0.238113
0.237175
0.236246
0.23533
0.234436
0.23358
0.23281
0.232192
0.231811
0.231694
0.23164
0.231392
0.23094
0.230366
0.229718
0.229009
0.228249
0.227471
0.226677
0.225877
0.225074
0.224274
0.223477
0.222683
0.221894
0.221108
0.220325
0.219544
0.218776
0.239058
0.238113
0.237175
0.236248
0.235335
0.234449
0.233618
0.232909
0.232451
0.232402
0.232691
0.233056
0.233245
0.233163
0.232815
0.232299
0.231654
0.230927
0.230162
0.229373
0.228576
0.227777
0.226983
0.226196
0.225415
0.224641
0.223871
0.223105
0.222341
0.221585
0.239058
0.238113
0.237176
0.236249
0.23534
0.234465
0.233669
0.23306
0.232865
0.233192
0.234002
0.23496
0.235616
0.235964
0.236033
0.235786
0.235292
0.234677
0.23397
0.233225
0.232466
0.231703
0.230945
0.230195
0.229451
0.228711
0.227973
0.227232
0.22649
0.225747
0.239058
0.238113
0.237176
0.236251
0.235346
0.234486
0.233736
0.233276
0.233427
0.234224
0.235903
0.237776
0.239118
0.240003
0.240495
0.240718
0.240699
0.240378
0.239836
0.239174
0.238454
0.23771
0.23696
0.236213
0.235471
0.234729
0.23399
0.233243
0.232488
0.231723
0.239059
0.238114
0.237179
0.236253
0.235353
0.234508
0.233813
0.233548
0.234004
0.235502
0.238645
0.241794
0.244154
0.245618
0.246528
0.247166
0.247522
0.247656
0.247567
0.247228
0.246744
0.246171
0.245558
0.244918
0.24425
0.243553
0.242821
0.242047
0.241225
0.24034
0.239059
0.238116
0.237182
0.236257
0.235359
0.234527
0.233886
0.233818
0.234597
0.23696
0.24193
0.24814
0.252117
0.254352
0.255887
0.256971
0.257673
0.257875
0.257731
0.257225
0.25646
0.255543
0.254545
0.253502
0.252405
0.251266
0.250084
0.248855
0.247584
0.246249
0.23906
0.238116
0.237184
0.236262
0.235365
0.23454
0.233934
0.234008
0.235008
0.238198
0.245274
0.255706
0.263678
0.266617
0.268655
0.269587
0.269803
0.268892
0.267465
0.26575
0.263878
0.261936
0.259932
0.257924
0.255898
0.253882
0.251883