/*--------------------------------*- C++ -*----------------------------------*\
| =========                 |                                                 |
| \\      /  F ield         | OpenFOAM: The Open Source CFD Toolbox           |
|  \\    /   O peration     | Version:  2512                                  |
|   \\  /    A nd           | Website:  www.openfoam.com                      |
|    \\/     M anipulation  |                                                 |
\*---------------------------------------------------------------------------*/
FoamFile
{
    version     2.0;
    format      ascii;
    arch        "LSB;label=32;scalar=64";
    class       volScalarField;
    location    "300";
    object      k;
}
// * * * * * * * * * * * * * * * * * * * * * * * * * * * * * * * * * * * * * //

dimensions      [0 2 -2 0 0 0 0];

internalField   nonuniform List<scalar> 
90398
(
0.231945
0.224241
0.216998
0.210168
0.203737
0.197675
0.191942
0.186543
0.181467
0.176694
0.172233
0.168052
0.164077
0.160294
0.156668
0.153177
0.149795
0.146558
0.14345
0.140463
0.13759
0.134829
0.132176
0.129623
0.127164
0.124796
0.122514
0.120313
0.118189
0.116141
0.231945
0.224242
0.217004
0.210181
0.203757
0.197703
0.191982
0.186594
0.18153
0.176768
0.172323
0.168157
0.164196
0.160423
0.156803
0.153314
0.149931
0.146697
0.143592
0.140607
0.137737
0.13498
0.13233
0.129781
0.127327
0.124965
0.122688
0.120493
0.118376
0.116335
0.231946
0.224245
0.217013
0.210197
0.203782
0.19774
0.192028
0.186662
0.181623
0.176889
0.172485
0.168355
0.164427
0.160683
0.157085
0.153609
0.150232
0.147013
0.143923
0.140953
0.138098
0.135357
0.132724
0.130191
0.127755
0.125409
0.12315
0.120972
0.118872
0.116848
0.231946
0.224247
0.217021
0.210212
0.203805
0.197775
0.192075
0.186734
0.181735
0.17706
0.172733
0.168671
0.164808
0.16112
0.157566
0.154118
0.150766
0.147576
0.144514
0.141571
0.138744
0.136033
0.133431
0.13093
0.128525
0.12621
0.123981
0.121832
0.119759
0.117761
0.231947
0.224248
0.217026
0.210226
0.203825
0.197808
0.192126
0.186819
0.181878
0.177299
0.173058
0.169121
0.165392
0.161816
0.158352
0.154976
0.151692
0.148584
0.145602
0.142735
0.139981
0.137341
0.134808
0.132375
0.130037
0.127788
0.125624
0.123539
0.121529
0.119594
0.231952
0.224249
0.217028
0.210238
0.203844
0.197835
0.19219
0.18692
0.182042
0.177502
0.173507
0.169693
0.16602
0.162614
0.159299
0.156048
0.152884
0.149905
0.147059
0.144334
0.141726
0.139235
0.136849
0.13456
0.132361
0.130247
0.12821
0.126246
0.124351
0.122524
0.231956
0.224258
0.217029
0.210246
0.203862
0.197865
0.192252
0.187031
0.182135
0.177932
0.176268
0.173829
0.169949
0.166118
0.162669
0.159383
0.15628
0.153376
0.150614
0.147983
0.145486
0.143121
0.140872
0.138729
0.136683
0.134723
0.132839
0.131024
0.12927
0.127575
0.231956
0.224266
0.217042
0.210269
0.203884
0.197898
0.192315
0.187068
0.182296
0.17776
0.1776
0.197153
0.185887
0.171701
0.207867
0.197815
0.190219
0.183732
0.178129
0.173209
0.168832
0.164907
0.161364
0.158141
0.155193
0.15248
0.149968
0.147627
0.145438
0.14339
0.231956
0.224266
0.217056
0.21029
0.203919
0.197928
0.192368
0.187134
0.182001
0.174305
0.37055
0.971131
0.827083
0.575659
0.51767
0.458616
0.421925
0.391321
0.365578
0.343494
0.324196
0.307125
0.291919
0.278311
0.266105
0.255149
0.245328
0.236543
0.228735
0.221812
0.231956
0.224266
0.217053
0.210285
0.20393
0.197948
0.192407
0.18722
0.182307
0.17533
1.42058
4.07876
3.00625
2.0273
1.6769
1.41412
1.21393
1.05512
0.92847
0.825649
0.740941
0.670519
0.611476
0.561585
0.519151
0.482869
0.451699
0.424805
0.401508
0.381392
0.231956
0.224266
0.217054
0.210285
0.20393
0.197946
0.192404
0.187209
0.18233
0.176236
3.98683
3.64633
3.15644
2.09962
1.8295
1.59822
1.40884
1.25353
1.12371
1.0135
0.919052
0.837431
0.766397
0.704303
0.649903
0.602227
0.560495
0.524072
0.492527
0.231957
0.224267
0.217056
0.21029
0.203918
0.197925
0.192359
0.187119
0.182054
0.175459
0.424139
2.51508
2.68339
1.99799
0.932971
0.899733
0.877383
0.861448
0.846841
0.831338
0.814134
0.795129
0.774254
0.751549
0.727058
0.701013
0.673696
0.645653
0.617666
0.58974
0.231957
0.224266
0.217043
0.210269
0.203883
0.197894
0.192303
0.187067
0.182243
0.177451
0.182735
0.212006
0.202132
0.189818
0.178798
0.17591
0.174177
0.174959
0.182341
0.19485
0.210587
0.228341
0.247286
0.266668
0.285913
0.304621
0.322407
0.339217
0.353916
0.368768
0.231956
0.224258
0.21703
0.210246
0.20386
0.19786
0.19224
0.187004
0.182108
0.177742
0.174176
0.170538
0.166986
0.163518
0.160037
0.156435
0.152848
0.149393
0.146204
0.143634
0.1419
0.141159
0.141532
0.143075
0.145777
0.149538
0.154258
0.159855
0.166164
0.173251
0.231952
0.22425
0.217029
0.210238
0.203842
0.19783
0.192178
0.186896
0.182017
0.177456
0.173263
0.169346
0.165719
0.162226
0.158692
0.155096
0.151484
0.147996
0.144638
0.14142
0.138363
0.13549
0.132824
0.130401
0.128255
0.12642
0.124927
0.123797
0.123075
0.122722
0.231947
0.224249
0.217026
0.210226
0.203824
0.197803
0.192115
0.186799
0.181839
0.17723
0.172976
0.16896
0.165158
0.161485
0.157852
0.154239
0.150671
0.147253
0.143951
0.140772
0.137722
0.134796
0.13199
0.129299
0.12672
0.124253
0.121896
0.119653
0.117526
0.115524
0.231946
0.224247
0.217021
0.210212
0.203803
0.197771
0.192067
0.186718
0.181706
0.177005
0.172638
0.168527
0.164605
0.160844
0.157174
0.153573
0.150039
0.146651
0.143384
0.140241
0.13722
0.134317
0.131524
0.128838
0.126252
0.123761
0.12136
0.119045
0.116813
0.114662
0.231946
0.224244
0.217013
0.210196
0.20378
0.197737
0.192022
0.186651
0.181602
0.176852
0.172419
0.168249
0.164271
0.160464
0.156776
0.153186
0.149677
0.146312
0.143069
0.13995
0.136951
0.134069
0.131296
0.128627
0.126057
0.12358
0.121192
0.118889
0.116665
0.11452
0.231945
0.224242
0.217004
0.21018
0.203756
0.197702
0.19198
0.186589
0.181518
0.176743
0.172275
0.168073
0.164066
0.160234
0.156538
0.152955
0.149465
0.146116
0.14289
0.139785
0.1368
0.13393
0.131169
0.128511
0.125951
0.123484
0.121106
0.118812
0.116597
0.114461
0.231945
0.224241
0.216998
0.210168
0.203737
0.197677
0.191944
0.186544
0.181464
0.176678
0.172195
0.16798
0.163961
0.160119
0.156419
0.152839
0.149357
0.146013
0.142794
0.139698
0.136719
0.133855
0.1311
0.128448
0.125892
0.123431
0.121057
0.118768
0.116559
0.114428
0.23884
0.237497
0.236018
0.234427
0.23275
0.231013
0.229228
0.227431
0.225654
0.223911
0.22215
0.220312
0.218417
0.216562
0.214746
0.212937
0.211126
0.209311
0.207514
0.205731
0.203962
0.202209
0.200474
0.198757
0.197054
0.195373
0.193712
0.19207
0.190447
0.18885
0.23884
0.237497
0.236018
0.234428
0.232752
0.231016
0.229231
0.227443
0.225685
0.223984
0.222282
0.22049
0.218639
0.216813
0.215013
0.213211
0.211404
0.209594
0.207801
0.206022
0.204257
0.202509
0.200778
0.199064
0.197368
0.195694
0.19404
0.192404
0.190788
0.189198
0.23884
0.237497
0.236019
0.23443
0.232755
0.231021
0.229239
0.227473
0.225772
0.224191
0.222651
0.220983
0.219257
0.21751
0.215753
0.21397
0.212173
0.210379
0.208599
0.206831
0.205077
0.203341
0.201621
0.199921
0.198241
0.196583
0.194943
0.193323
0.191722
0.190146
0.23884
0.237497
0.23602
0.234432
0.232758
0.231029
0.229259
0.227541
0.225982
0.224709
0.223576
0.222244
0.220788
0.219196
0.217512
0.215748
0.213955
0.212171
0.210402
0.208644
0.206901
0.205176
0.203465
0.20178
0.200115
0.198471
0.196846
0.195241
0.193653
0.192091
0.23884
0.237497
0.236021
0.234434
0.232768
0.231047
0.229306
0.227695
0.226471
0.225927
0.225611
0.225035
0.224048
0.222763
0.22122
0.219466
0.217637
0.215819
0.214024
0.212251
0.210502
0.208777
0.207078
0.205409
0.203765
0.202146
0.200548
0.19897
0.197411
0.195874
0.23884
0.237497
0.236021
0.234437
0.232775
0.231086
0.229412
0.228019
0.227516
0.227884
0.228659
0.22893
0.228918
0.228145
0.226731
0.225056
0.223272
0.221486
0.219713
0.217966
0.216249
0.214569
0.212926
0.211318
0.209739
0.208188
0.20666
0.205149
0.203651
0.202168
0.238841
0.237497
0.236023
0.234443
0.232784
0.231127
0.229601
0.228681
0.229049
0.230917
0.234148
0.236186
0.237449
0.237835
0.236972
0.235359
0.233758
0.232232
0.230725
0.229214
0.227706
0.226213
0.224729
0.223251
0.22178
0.220314
0.218846
0.21737
0.215877
0.214362
0.238842
0.2375
0.236029
0.234458
0.232794
0.231159
0.22983
0.229562
0.231285
0.232197
0.240271
0.250986
0.253482
0.252571
0.272866
0.272063
0.270255
0.268056
0.265673
0.263205
0.26071
0.258193
0.255638
0.253042
0.250414
0.24776
0.245092
0.242412
0.239742
0.237036
0.238842
0.237502
0.236033
0.234467
0.232814
0.231186
0.230081
0.230282
0.230613
0.237114
0.333328
0.451676
0.418452
0.348091
0.975985
0.880272
0.794832
0.720417
0.657494
0.603466
0.556668
0.516076
0.480803
0.450132
0.423519
0.400546
0.380871
0.364198
0.350334
0.338929
0.238842
0.237502
0.236033
0.23447
0.232841
0.23123
0.230334
0.230996
0.232364
0.239311
0.746541
5.61389
2.49543
1.27865
1.85652
1.42212
1.1817
1.03213
0.932867
0.862635
0.810002
0.768533
0.73418
0.704384
0.67765
0.653159
0.630561
0.609466
0.590441
0.572108
0.238842
0.237501
0.236033
0.23447
0.23284
0.231227
0.230306
0.230935
0.232691
0.244025
2.16854
1.83283
1.41036
1.1655
1.00132
0.881095
0.787557
0.713049
0.654051
0.608587
0.575245
0.552657
0.539208
0.533055
0.532093
0.535217
0.540182
0.238842
0.237502
0.236032
0.234466
0.232811
0.231177
0.230029
0.230153
0.230988
0.240926
0.290078
0.971398
2.44715
2.72299
0.809468
0.858897
0.893373
0.930626
0.972833
1.01271
1.04622
1.07172
1.08671
1.08905
1.07786
1.05321
1.01318
0.962379
0.908909
0.848492
0.238842
0.2375
0.236028
0.234457
0.232791
0.231147
0.229786
0.229399
0.230819
0.232898
0.240197
0.24924
0.251766
0.251229
0.256145
0.258521
0.260862
0.266012
0.276944
0.292981
0.313657
0.33935
0.369732
0.404382
0.442491
0.483088
0.524637
0.565727
0.604604
0.640868
0.238841
0.237497
0.236022
0.234441
0.232781
0.231118
0.229565
0.228527
0.228671
0.230052
0.232208
0.233958
0.234925
0.234983
0.233528
0.231492
0.229367
0.227413
0.225919
0.225061
0.225016
0.226021
0.228328
0.232247
0.237994
0.245488
0.254701
0.265764
0.278512
0.293476
0.23884
0.237497
0.23602
0.234436
0.232772
0.231079
0.229388
0.227928
0.227245
0.227294
0.227664
0.227704
0.227476
0.22648
0.224828
0.222846
0.220665
0.218432
0.216182
0.213967
0.211816
0.209781
0.207912
0.206256
0.204851
0.203721
0.202884
0.202371
0.20228
0.202566
0.23884
0.237497
0.23602
0.234433
0.232766
0.231042
0.229291
0.227645
0.226307
0.225485
0.224897
0.224044
0.222917
0.221483
0.219765
0.217825
0.215781
0.213724
0.211679
0.209641
0.207601
0.205563
0.203535
0.201527
0.199543
0.197592
0.195678
0.193807
0.192
0.190257
0.23884
0.237497
0.236019
0.234431
0.232757
0.231025
0.229249
0.227512
0.225896
0.22449
0.223174
0.221708
0.22016
0.218486
0.216705
0.214824
0.212888
0.210938
0.208981
0.20701
0.205031
0.20305
0.201067
0.199096
0.197134
0.195182
0.193245
0.191321
0.189414
0.187532
0.23884
0.237497
0.236018
0.234429
0.232754
0.231018
0.229232
0.227454
0.225722
0.224074
0.222442
0.220709
0.218936
0.217139
0.215316
0.213449
0.211549
0.209639
0.207728
0.205811
0.203891
0.201973
0.200057
0.198147
0.196246
0.194353
0.19247
0.190597
0.188739
0.186898
0.23884
0.237497
0.236017
0.234427
0.232751
0.231014
0.229226
0.227429
0.225651
0.223908
0.222151
0.220322
0.218448
0.216593
0.214747
0.21288
0.210995
0.2091
0.207206
0.205311
0.203414
0.20152
0.199632
0.197748
0.195872
0.194009
0.192157
0.190318
0.188494
0.186691
0.23884
0.237497
0.236017
0.234426
0.232749
0.231012
0.229224
0.227421
0.225626
0.22385
0.222048
0.220182
0.218271
0.216394
0.214538
0.21267
0.210787
0.208895
0.207006
0.205116
0.203226
0.201341
0.199463
0.197593
0.195728
0.193878
0.192041
0.190219
0.188412
0.186629
0.239049
0.238078
0.237093
0.236093
0.23508
0.234061
0.23305
0.23207
0.231152
0.230298
0.229425
0.228419
0.227296
0.226183
0.225096
0.223993
0.222866
0.221723
0.220575
0.219422
0.218263
0.217103
0.215943
0.214782
0.213617
0.212455
0.211297
0.210141
0.208987
0.207844
0.239049
0.238078
0.237094
0.236094
0.235081
0.234065
0.233061
0.232098
0.231216
0.230429
0.229646
0.228721
0.227656
0.226583
0.225515
0.224419
0.223293
0.222151
0.221004
0.219851
0.218694
0.217536
0.216377
0.215217
0.214056
0.212898
0.211743
0.21059
0.209439
0.2083
0.239049
0.238078
0.237095
0.236096
0.235084
0.234074
0.233085
0.232164
0.231377
0.230768
0.230223
0.229495
0.228597
0.227629
0.226613
0.225534
0.224412
0.223274
0.222128
0.220976
0.219819
0.218662
0.217504
0.216347
0.215191
0.214039
0.21289
0.211742
0.210596
0.20946
0.239049
0.238078
0.237096
0.236099
0.235089
0.234089
0.233131
0.232294
0.231713
0.23151
0.231455
0.231219
0.23063
0.229872
0.228948
0.22788
0.226744
0.225597
0.224442
0.223281
0.222115
0.220951
0.219786
0.218627
0.217471
0.216321
0.215174
0.214029
0.212886
0.211752
0.239049
0.238079
0.237097
0.236102
0.235102
0.234114
0.233212
0.232538
0.232384
0.232696
0.233264
0.233617
0.233703
0.233473
0.232809
0.231795
0.23064
0.229469
0.228298
0.227129
0.225964
0.224803
0.223648
0.222503
0.221367
0.220236
0.219108
0.217982
0.216855
0.215733
0.239049
0.23808
0.237099
0.236106
0.235117
0.234154
0.233348
0.232983
0.233316
0.234533
0.236237
0.237508
0.238316
0.238626
0.238377
0.237593
0.23652
0.235387
0.234245
0.233111
0.231991
0.230889
0.2298
0.228728
0.227663
0.226601
0.225537
0.224464
0.223378
0.222279
0.239049
0.238079
0.237102
0.236112
0.235133
0.234214
0.233563
0.233627
0.234777
0.237417
0.241095
0.244232
0.246424
0.247676
0.247924
0.247661
0.247014
0.246198
0.245271
0.244276
0.243249
0.242207
0.241148
0.24008
0.238995
0.237891
0.236764
0.235605
0.234405
0.233151
0.23905
0.238079
0.2371
0.236113
0.235152
0.234287
0.233848
0.234373
0.236623
0.24223
0.245208
0.252124
0.257813
0.261821
0.281698
0.284668
0.284526
0.283273
0.28141
0.279101
0.27651
0.273749
0.270924
0.268067
0.265222
0.262421
0.259678
0.256985
0.254334
0.251669
0.23905
0.238081
0.237103
0.236115
0.235162
0.234351
0.234179
0.235082
0.236336
0.243569
0.2603
0.281855
0.502255
0.545296
1.12859
0.964888
0.841207
0.743984
0.666862
0.604392
0.552222
0.508542
0.471331
0.439309
0.411549
0.387374
0.366292
0.347945
0.3322
0.31862
0.239051
0.238082
0.237107
0.236125
0.235177
0.234405
0.234393
0.235673
0.237678
0.245425
0.304613
1.45606
9.5746
6.44815
2.09336
1.62203
1.33605
1.14743
1.01474
0.91687
0.841412
0.781484
0.732477
0.691289
0.655868
0.624808
0.597098
0.571892
0.548815
0.526772
0.239051
0.238082
0.237107
0.236125
0.235176
0.234401
0.234378
0.235621
0.237787
0.246858
1.07254
4.70193
2.39189
1.81498
1.48099
1.27373
1.13812
1.04486
0.978138
0.92908
0.892127
0.863706
0.841729
0.824776
0.811693
0.800988
0.791952
0.780628
0.23905
0.238081
0.237103
0.236114
0.235159
0.234339
0.234123
0.234955
0.236523
0.245487
0.265251
0.795618
10.0249
7.87941
1.16814
1.0471
0.952701
0.88425
0.839784
0.814776
0.805964
0.811189
0.828476
0.855242
0.888795
0.925446
0.961464
0.993076
1.01655
1.02901
0.239049
0.238079
0.2371
0.236111
0.235148
0.234272
0.233787
0.234223
0.236202
0.240972
0.245346
0.260118
0.267533
0.271839
0.273287
0.276241
0.277187
0.277539
0.278047
0.279222
0.281502
0.285557
0.292043
0.301713
0.315221
0.332213
0.352701
0.376504
0.403182
0.432866
0.239049
0.238078
0.237101
0.23611
0.235128
0.234199
0.233512
0.233498
0.234462
0.236661
0.239864
0.242879
0.244797
0.245831
0.2458
0.244915
0.243694
0.242416
0.241225
0.240194
0.239427
0.239039
0.239112
0.239723
0.240934
0.24275
0.245219
0.248387
0.252361
0.257003
0.239048
0.238079
0.237098
0.236104
0.235112
0.234141
0.233309
0.23286
0.233069
0.234022
0.235435
0.236476
0.237156
0.237349
0.236886
0.235845
0.23451
0.2331
0.231693
0.23032
0.228996
0.22774
0.226564
0.225496
0.224544
0.223716
0.223019
0.222462
0.222083
0.221825
0.239049
0.238078
0.237095
0.2361
0.235098
0.234104
0.233184
0.232459
0.232163
0.232319
0.232676
0.232875
0.232861
0.232455
0.23163
0.23046
0.229141
0.227795
0.226448
0.225112
0.223792
0.222487
0.221203
0.219948
0.218724
0.21753
0.21636
0.215208
0.214088
0.212995
0.239049
0.238078
0.237095
0.236097
0.235085
0.234081
0.233112
0.232243
0.231581
0.231211
0.230983
0.230561
0.22987
0.229037
0.228037
0.226887
0.225659
0.224407
0.223141
0.221865
0.220585
0.219305
0.218024
0.216752
0.215488
0.214233
0.212988
0.211744
0.210509
0.209285
0.239049
0.238078
0.237094
0.236094
0.23508
0.234067
0.23307
0.232128
0.231293
0.23059
0.22992
0.229102
0.228151
0.227144
0.226082
0.224946
0.22376
0.222549
0.221326
0.220092
0.218851
0.217606
0.216356
0.215105
0.213852
0.212603
0.211355
0.210107
0.208863
0.207624
0.239048
0.238077
0.237093
0.236093
0.235078
0.23406
0.233048
0.23207
0.231155
0.230306
0.229447
0.228471
0.227385
0.226297
0.225202
0.224064
0.22289
0.221688
0.220481
0.219263
0.218037
0.216805
0.215569
0.214327
0.21308
0.211834
0.210589
0.209344
0.208101
0.206865
0.239049
0.238077
0.237093
0.236092
0.235077
0.234057
0.23304
0.232047
0.231101
0.230199
0.229267
0.228225
0.227093
0.225973
0.224864
0.223725
0.222554
0.221357
0.220154
0.218941
0.21772
0.216494
0.215262
0.214027
0.212784
0.21154
0.210298
0.209056
0.207814
0.206583
0.239057
0.23811
0.237168
0.236231
0.235303
0.234388
0.233499
0.232656
0.231884
0.231179
0.230476
0.229675
0.228785
0.227899
0.227034
0.226156
0.22526
0.224352
0.223442
0.222528
0.221611
0.220692
0.219772
0.218852
0.217931
0.217007
0.216086
0.215165
0.214244
0.213333
0.239057
0.23811
0.237168
0.236232
0.235304
0.234392
0.233509
0.232682
0.231942
0.231295
0.23067
0.229943
0.229109
0.22826
0.227416
0.226549
0.225657
0.224751
0.223845
0.222934
0.22202
0.221104
0.220188
0.219271
0.218352
0.217433
0.216514
0.215597
0.21468
0.213772
0.239057
0.23811
0.237169
0.236233
0.235306
0.2344
0.233533
0.232743
0.232084
0.231587
0.231168
0.230626
0.229943
0.22919
0.228397
0.22755
0.226665
0.225768
0.224868
0.223961
0.223052
0.222141
0.22123
0.22032
0.219405
0.218494
0.217582
0.21667
0.215758
0.214854
0.239057
0.23811
0.237169
0.236235
0.235311
0.234415
0.233576
0.232858
0.232369
0.232197
0.232225
0.232081
0.231673
0.231105
0.230401
0.229577
0.22869
0.227794
0.226896
0.22599
0.225081
0.224172
0.223265
0.222358
0.221452
0.220547
0.219645
0.218742
0.217837
0.216939
0.239057
0.238111
0.23717
0.236238
0.235319
0.234438
0.233647
0.233065
0.232908
0.233201
0.233723
0.234097
0.234268
0.234116
0.233609
0.232829
0.23193
0.231037
0.230143
0.229245
0.228349
0.227457
0.226567
0.225682
0.224802
0.223924
0.223048
0.22217
0.221287
0.220407
0.239057
0.238112
0.237172
0.236241
0.235331
0.234473
0.233761
0.233423
0.233703
0.234648
0.23599
0.237126
0.237864
0.238198
0.238126
0.237513
0.236666
0.235808
0.234951
0.234103
0.233269
0.232452
0.231642
0.230846
0.23005
0.229258
0.228461
0.227652
0.226827
0.225986
0.239057
0.238111
0.237175
0.236245
0.235345
0.23452
0.233933
0.233989
0.234826
0.236839
0.239692
0.242301
0.244141
0.245107
0.245404
0.245127
0.244472
0.243758
0.243007
0.242248
0.241505
0.240779
0.24006
0.239339
0.238608
0.23786
0.237081
0.236259
0.235388
0.234458
0.239057
0.238112
0.237175
0.236247
0.23536
0.234577
0.234158
0.234532
0.236186
0.239981
0.242453
0.24869
0.253534
0.256531
0.261738
0.261448
0.260708
0.259951
0.259174
0.25837
0.257546
0.256715
0.255859
0.254946
0.253963
0.252888
0.251712
0.250424
0.249021
0.247489
0.239058
0.238113
0.237178
0.236255
0.235371
0.234631
0.234384
0.235101
0.237673
0.244243
0.249621
0.264682
0.280578
0.288252
0.309931
0.311438
0.313518
0.31575
0.318101
0.319674
0.320065
0.319153
0.31694
0.313636
0.30936
0.304302
0.298657
0.292601
0.286338
0.279893
0.23906
0.238114
0.23718
0.236262
0.235384
0.234673
0.23455
0.235528
0.238899
0.243401
0.261488
0.49838
2.96196
0.767979
0.937085
0.915835
0.876627
0.83489
0.793758
0.754175
0.715115
0.677134
0.641079
0.606701
0.574141
0.543499
0.514861
0.488233
0.463696
0.440886
0.239059
0.238114
0.23718
0.236261
0.235383
0.234669
0.234536
0.235489
0.238775
0.24376
0.2641
0.770751
15.9759
10.0417
2.07026
1.75814
1.50848
1.31362
1.16112
1.03999
0.942129
0.862686
0.797152
0.742149
0.695662
0.655584
0.620473
0.589065
0.560662
0.533736
0.239058
0.238113
0.237177
0.236254
0.235368
0.234621
0.234346
0.235009
0.237431
0.243621
0.252237
0.407778
8.16936
2.65967
0.371206
0.36704
0.368394
0.372475
0.378921
0.38695
0.396069
0.405982
0.416772
0.428439
0.440743
0.453292
0.465635
0.476993
0.486882
0.493604
0.239057
0.238111
0.237175
0.236246
0.235356
0.234564
0.234111
0.234426
0.235924
0.239379
0.24307
0.254873
0.261626
0.265299
0.261846
0.261709
0.2609
0.260054
0.259398
0.259001
0.258945
0.259315
0.260209
0.261691
0.26386
0.266803
0.27064
0.27548
0.281509
0.28873
0.239057
0.238111
0.237174
0.236243
0.235341
0.234507
0.233891
0.233863
0.234581
0.236353
0.23903
0.241575
0.243261
0.244081
0.244269
0.243734
0.242799
0.241799
0.240823
0.239915
0.239109
0.238438
0.237934
0.237621
0.237519
0.237637
0.237988
0.238567
0.23941
0.240443
0.239057
0.238111
0.237171
0.236239
0.235327
0.234462
0.233728
0.233327
0.233519
0.234298
0.235476
0.236479
0.237143
0.237408
0.237196
0.236446
0.235457
0.234441
0.233432
0.232449
0.231501
0.230597
0.229743
0.228954
0.228225
0.22756
0.226952
0.226401
0.225919
0.225489
0.239057
0.23811
0.237169
0.236236
0.235315
0.234429
0.233623
0.232999
0.23274
0.232922
0.233306
0.233573
0.23367
0.233389
0.232778
0.231899
0.230895
0.229886
0.228879
0.227885
0.226908
0.225953
0.225022
0.22412
0.223245
0.222398
0.221575
0.220768
0.21998
0.219212
0.239057
0.23811
0.237168
0.236233
0.235308
0.234407
0.233557
0.232813
0.23226
0.231964
0.231824
0.231548
0.231057
0.23043
0.229671
0.22879
0.227844
0.226882
0.225918
0.224952
0.223988
0.22303
0.222079
0.221137
0.220205
0.219283
0.218374
0.217471
0.216576
0.215693
0.239057
0.238109
0.237168
0.236231
0.235303
0.234394
0.233519
0.23271
0.232011
0.231438
0.230918
0.230296
0.22956
0.228771
0.227942
0.227056
0.226128
0.225182
0.224235
0.223283
0.22233
0.221378
0.220429
0.219482
0.218535
0.217594
0.216656
0.215722
0.214791
0.213868
0.239057
0.238109
0.237167
0.23623
0.235301
0.234386
0.233497
0.232656
0.231887
0.231188
0.230499
0.229724
0.228864
0.228
0.227135
0.226239
0.225315
0.224373
0.223429
0.222481
0.22153
0.220577
0.219624
0.218672
0.217718
0.216765
0.215812
0.214863
0.213915
0.212976
0.239057
0.238109
0.237167
0.23623
0.2353
0.234383
0.233488
0.232634
0.231837
0.23109
0.230335
0.229498
0.228593
0.227697
0.226816
0.225915
0.224991
0.224052
0.223109
0.222162
0.221212
0.22026
0.219307
0.218353
0.217399
0.216441
0.215485
0.21453
0.213575
0.21263
0.239058
0.238112
0.237173
0.236241
0.23532
0.234416
0.233537
0.232701
0.231922
0.231199
0.230485
0.229711
0.228879
0.228047
0.227228
0.226403
0.225567
0.224723
0.223882
0.223042
0.222202
0.221364
0.220528
0.219695
0.218863
0.218034
0.217207
0.216381
0.215558
0.214747
0.239058
0.238112
0.237173
0.236242
0.235321
0.234419
0.233546
0.232721
0.231967
0.231286
0.230629
0.22991
0.229121
0.228319
0.227519
0.226703
0.225872
0.225033
0.224198
0.223362
0.222526
0.221692
0.220861
0.220032
0.219206
0.218381
0.217557
0.216736
0.215917
0.21511
0.239058
0.238112
0.237173
0.236243
0.235324
0.234426
0.233565
0.232768
0.232073
0.231498
0.230987
0.23041
0.229732
0.229008
0.228253
0.227459
0.226641
0.225812
0.224987
0.224161
0.223334
0.22251
0.221688
0.220868
0.22005
0.219233
0.218418
0.217604
0.216793
0.215991
0.239058
0.238112
0.237174
0.236244
0.235328
0.234438
0.233598
0.232855
0.232279
0.23193
0.231729
0.231442
0.230986
0.23041
0.229735
0.228976
0.228174
0.227358
0.226548
0.225733
0.224917
0.224104
0.223294
0.222487
0.221683
0.220878
0.220076
0.219275
0.218475
0.217682
0.239058
0.238112
0.237175
0.236246
0.235334
0.234456
0.233652
0.233004
0.232656
0.232738
0.232996
0.233179
0.23315
0.232848
0.232303
0.231574
0.230768
0.229963
0.229161
0.228355
0.22755
0.226749
0.225954
0.225164
0.224377
0.223594
0.222812
0.222033
0.221252
0.220475
0.239057
0.238112
0.237175
0.236249
0.235342
0.234483
0.233734
0.23325
0.233302
0.233808
0.234643
0.23538
0.235825
0.235995
0.2358
0.235187
0.234418
0.233658
0.232896
0.232137
0.231387
0.230647
0.229919
0.229199
0.228483
0.227773
0.227063
0.226349
0.225625
0.224895
0.239058
0.238111
0.237176
0.236252
0.235352
0.234517
0.233851
0.233631
0.234059
0.235307
0.237109
0.238649
0.239807
0.240459
0.240596
0.240254
0.239675
0.239073
0.238432
0.237779
0.237131
0.236493
0.235862
0.235234
0.234605
0.233967
0.233317
0.232642
0.231936
0.231195
0.239059
0.238114
0.237175
0.236254
0.235363
0.234557
0.234002
0.23411
0.235064
0.237314
0.240947
0.244504
0.24694
0.248343
0.24878
0.248572
0.248173
0.247764
0.24729
0.246797
0.246294
0.245788
0.245254
0.244682
0.244066
0.243395
0.242665
0.24186
0.240976
0.240009
0.239059
0.238116
0.237179
0.236259
0.235372
0.234593
0.234148
0.234483
0.236009
0.239703
0.24276
0.251752
0.258082
0.262052
0.263922
0.263851
0.263466
0.26308
0.262675
0.262173
0.26155
0.260815
0.259896
0.258803
0.257531
0.256093
0.254487
0.252722
0.250817
0.248777
0.23906
0.238117
0.237183
0.236265
0.235384
0.234617
0.234243
0.234741
0.236687
0.241404
0.246782
0.266427
0.276141
0.281023
0.285838
0.288845
0.290207
0.290828
0.290903
0.290446
0.289458
0.28795
0.28589
0.28334
0.280375
0.277028
0.273369
0.269471
0.265424
0.261235
0.239059
0.238116
0.237183
0.236265
0.235383
0.234614
0.234233
0.234717
0.236627
0.241254
0.247463
0.272171
0.283525
0.337386
0.313082
0.323233
0.3313
0.338113
0.342933
0.344588
0.343087
0.339114
0.333365
0.326458
0.31885
0.310878
0.302827
0.294967
0.287573
0.280688
0.239059
0.238116
0.237179
0.236258
0.23537
0.234586
0.234123
0.234426
0.235873
0.239417
0.243695
0.258166
0.265975
0.270146
0.265169
0.265181
0.264515
0.263902
0.263832
0.264385
0.265468
0.267001
0.268882
0.270959
0.273024
0.274889
0.276397
0.27743
0.277985
0.277694
0.239059
0.238113
0.237175
0.236252
0.23536
0.234547
0.233971
0.234042
0.234908
0.237018
0.240648
0.244337
0.246681
0.24795
0.24823
0.247683
0.246845
0.246001
0.245241
0.244629
0.244171
0.243889
0.243794
0.243885
0.244153
0.244583
0.245168
0.245891
0.246788
0.24777
0.239058
0.238111
0.237175
0.23625
0.235348
0.234507
0.233823
0.233547
0.233907
0.235023
0.236779
0.238235
0.239345
0.23992
0.23999
0.239463
0.238658
0.237813
0.236968
0.236152
0.235389
0.234696
0.234088
0.233574
0.233155
0.232831
0.2326
0.232455
0.2324
0.232413
0.239057
0.238112
0.237174
0.236247
0.235338
0.234474
0.23371
0.233185
0.233138
0.233556
0.234298
0.234965
0.235362
0.235489
0.235173
0.234449
0.233558
0.232663
0.231777
0.230916
0.230088
0.229301
0.228559
0.227864
0.227212
0.226603
0.226031
0.225493
0.224988
0.22451
0.239057
0.238112
0.237174
0.236244
0.23533
0.234449
0.233633
0.232957
0.232541
0.232497
0.232672
0.232784
0.232643
0.232255
0.23163
0.230827
0.229943
0.229053
0.228171
0.227302
0.22645
0.225619
0.224814
0.224035
0.22328
0.222551
0.221845
0.221157
0.220488
0.219838
0.239057
0.238111
0.237173
0.236242
0.235325
0.234432
0.233583
0.232821
0.232201
0.231769
0.231459
0.231078
0.23055
0.22992
0.229196
0.228388
0.227538
0.226673
0.225817
0.224963
0.224117
0.223279
0.222453
0.221638
0.220836
0.220044
0.219266
0.218497
0.217739
0.216995
0.239057
0.238111
0.237172
0.236241
0.235321
0.23442
0.233553
0.232742
0.232018
0.23139
0.230808
0.230168
0.229444
0.228685
0.227899
0.227074
0.226225
0.225364
0.224508
0.223654
0.222804
0.221958
0.22112
0.220289
0.219464
0.218645
0.217832
0.217026
0.216227
0.215439
0.239057
0.238111
0.237172
0.23624
0.235318
0.234414
0.233536
0.2327
0.231923
0.231204
0.230498
0.229738
0.228922
0.228102
0.227283
0.226447
0.225594
0.224733
0.223875
0.223018
0.222164
0.221313
0.220466
0.219623
0.218784
0.21795
0.217118
0.216291
0.215469
0.214659
0.239057
0.238111
0.237172
0.23624
0.235318
0.234411
0.233528
0.232682
0.231884
0.231128
0.230374
0.229567
0.228714
0.227869
0.227037
0.226196
0.225342
0.224481
0.223622
0.222764
0.221908
0.221054
0.220204
0.219357
0.218514
0.217673
0.216835
0.216
0.215168
0.214349
0.239058
0.238112
0.237173
0.236241
0.235321
0.234415
0.233532
0.232683
0.231878
0.231115
0.230363
0.229577
0.228754
0.227928
0.22711
0.226288
0.22546
0.224628
0.2238
0.222975
0.222153
0.221334
0.22052
0.21971
0.218904
0.218102
0.217304
0.21651
0.215719
0.214941
0.239058
0.238112
0.237173
0.236241
0.235322
0.234418
0.233539
0.232698
0.231911
0.231176
0.230462
0.229714
0.228921
0.228118
0.227312
0.226497
0.225674
0.224845
0.224022
0.223201
0.222382
0.221568
0.220758
0.219952
0.21915
0.218353
0.217559
0.216768
0.215982
0.215208
0.239058
0.238112
0.237174
0.236242
0.235323
0.234423
0.233553
0.232733
0.231986
0.231321
0.230702
0.230049
0.229334
0.228584
0.227811
0.227013
0.2262
0.22538
0.224566
0.223754
0.222945
0.22214
0.221339
0.220543
0.21975
0.218962
0.218177
0.217394
0.216616
0.215849
0.239058
0.238112
0.237174
0.236243
0.235327
0.234432
0.233577
0.232794
0.232125
0.231602
0.231183
0.230725
0.230162
0.229515
0.228799
0.228029
0.227232
0.226426
0.225629
0.224831
0.224035
0.223244
0.222459
0.221678
0.220902
0.220129
0.219359
0.218592
0.217827
0.217073
0.239057
0.238112
0.237175
0.236244
0.235331
0.234446
0.233615
0.232894
0.232368
0.232117
0.232072
0.231961
0.231664
0.231192
0.230565
0.22983
0.229046
0.228256
0.227474
0.22669
0.225909
0.225134
0.224366
0.223604
0.222847
0.222096
0.221346
0.2206
0.219856
0.21912
0.239057
0.238111
0.237175
0.236246
0.235337
0.234464
0.233671
0.233052
0.232775
0.232942
0.233329
0.233657
0.233785
0.233646
0.233184
0.232501
0.231727
0.230972
0.230214
0.229459
0.228712
0.227977
0.227255
0.226544
0.225842
0.225145
0.224452
0.223758
0.223062
0.222368
0.239058
0.238111
0.237174
0.236248
0.235344
0.234488
0.233747
0.233287
0.233388
0.23397
0.234947
0.235822
0.236405
0.236712
0.236678
0.23616
0.235474
0.234786
0.234086
0.233391
0.232712
0.232051
0.231404
0.230768
0.230141
0.229515
0.228886
0.228247
0.227594
0.226925
0.23906
0.238114
0.237174
0.23625
0.235352
0.234514
0.233839
0.233589
0.233994
0.235232
0.237145
0.238741
0.239956
0.240645
0.240829
0.240583
0.240131
0.239653
0.239145
0.238625
0.238104
0.237584
0.237064
0.236539
0.235997
0.235434
0.23484
0.234213
0.233541
0.232822
0.23906
0.238116
0.237178
0.236252
0.235359
0.234538
0.233928
0.233895
0.23465
0.236575
0.23978
0.242804
0.244877
0.24595
0.246329
0.246229
0.245906
0.245563
0.245187
0.244771
0.244313
0.243817
0.243278
0.242691
0.242039
0.241326
0.240547
0.239699
0.238778
0.237791
0.23906
0.238116
0.237182
0.236258
0.235366
0.234553
0.233984
0.234088
0.23509
0.237577
0.242011
0.246085
0.2489
0.250471
0.25097
0.250962
0.250714
0.250438
0.25013