/*--------------------------------*- C++ -*----------------------------------*\
| =========                 |                                                 |
| \\      /  F ield         | OpenFOAM: The Open Source CFD Toolbox           |
|  \\    /   O peration     | Version:  2512                                  |
|   \\  /    A nd           | Website:  www.openfoam.com                      |
|    \\/     M anipulation  |                                                 |
\*---------------------------------------------------------------------------*/
FoamFile
{
    version     2.0;
    format      ascii;
    arch        "LSB;label=32;scalar=64";
    class       volScalarField;
    location    "300";
    object      nut;
}
// * * * * * * * * * * * * * * * * * * * * * * * * * * * * * * * * * * * * * //

dimensions      [0 2 -1 0 0 0 0];

internalField   nonuniform List<scalar> 
90398
(
0.01442
0.0141784
0.0139485
0.0137274
0.0135159
0.0133119
0.0131104
0.0129338
0.0127538
0.0125856
0.0124256
0.0122691
0.0121231
0.0119868
0.0118502
0.0117172
0.0115861
0.0114591
0.0113364
0.0112176
0.011102
0.0109901
0.0108815
0.0107761
0.0106737
0.0105741
0.0104773
0.0103832
0.0102916
0.0102026
0.01442
0.0141783
0.0139484
0.0137274
0.013516
0.0133126
0.0131128
0.0129361
0.0127568
0.0125902
0.0124289
0.0122728
0.0121275
0.0119916
0.0118553
0.0117224
0.0115912
0.0114643
0.0113417
0.0112229
0.0111075
0.0109958
0.0108873
0.0107822
0.01068
0.0105807
0.0104843
0.0103904
0.0102991
0.0102105
0.01442
0.0141784
0.0139485
0.0137275
0.0135169
0.0133145
0.0131178
0.0129383
0.0127596
0.0125943
0.0124349
0.0122798
0.0121358
0.0120013
0.0118658
0.0117334
0.0116022
0.0114758
0.0113541
0.011236
0.0111214
0.0110104
0.0109028
0.0107985
0.0106973
0.0105988
0.0105033
0.0104105
0.0103202
0.0102325
0.01442
0.0141784
0.0139483
0.0137281
0.0135182
0.013317
0.01312
0.0129369
0.0127638
0.012601
0.0124439
0.0122923
0.0121506
0.0120176
0.0118837
0.0117524
0.011622
0.0114967
0.0113763
0.0112595
0.0111462
0.0110366
0.0109306
0.0108278
0.0107281
0.0106314
0.0105375
0.0104462
0.0103575
0.0102714
0.01442
0.0141785
0.013948
0.0137288
0.01352
0.0133211
0.0131243
0.0129399
0.0127701
0.0126105
0.0124555
0.0123325
0.0121957
0.0120431
0.0119125
0.0117839
0.0116562
0.011534
0.0114171
0.0113036
0.0111936
0.0110874
0.0109846
0.0108852
0.0107888
0.0106955
0.010605
0.0105171
0.0104318
0.0103492
0.0144202
0.0141784
0.0139481
0.0137287
0.01352
0.0133259
0.0131425
0.0129479
0.0127778
0.0126374
0.012485
0.012335
0.0122006
0.0120735
0.0119477
0.0118232
0.0116997
0.0115822
0.0114706
0.0113629
0.0112591
0.0111592
0.0110629
0.01097
0.0108802
0.0107933
0.0107091
0.0106274
0.0105481
0.0104713
0.0144205
0.014179
0.0139487
0.0137298
0.0135205
0.0133274
0.0131476
0.0129566
0.0127849
0.0126233
0.0104658
0.0115322
0.0123496
0.0122236
0.0120902
0.0119616
0.0118385
0.0117231
0.0116138
0.011509
0.0114093
0.0113143
0.0112237
0.0111372
0.0110541
0.0109744
0.0108974
0.010823
0.0107508
0.0106809
0.0144205
0.0141798
0.0139524
0.0137381
0.0135265
0.0133258
0.0131483
0.0129666
0.0127879
0.0056058
0.00365454
0.00439498
0.00518862
0.00604554
0.0140174
0.0136202
0.0133114
0.0130447
0.0128116
0.0126054
0.0124208
0.0122544
0.012104
0.0119671
0.0118419
0.0117266
0.01162
0.0115207
0.0114279
0.0113412
0.0144205
0.0141798
0.0139539
0.0137435
0.0135362
0.0133299
0.0131441
0.0129617
0.00638296
0.00316501
0.00357215
0.0107605
0.013928
0.0125642
0.0105078
0.0121411
0.013991
0.0151611
0.0161811
0.0172393
0.0177103
0.0171648
0.0166699
0.0162182
0.0158044
0.0154247
0.0150765
0.0147576
0.0144669
0.0142034
0.0144206
0.0141795
0.0139512
0.0137387
0.0135358
0.013331
0.0131395
0.0129596
0.00621826
0.00125073
0.00314137
0.00499471
0.00423791
0.00502608
0.0128743
0.0131082
0.0134315
0.0132044
0.0128372
0.0125917
0.0124441
0.0123622
0.0123615
0.0124515
0.0126173
0.0128336
0.0130756
0.0133585
0.0135016
0.014206
0.0144206
0.0141795
0.0139512
0.0137387
0.0135358
0.013331
0.0131395
0.0129593
0.00598466
0.000993777
0.00467701
0.00506946
0.00525294
0.0139192
0.0138857
0.0136727
0.0129427
0.0121499
0.0115193
0.0110045
0.0105602
0.0101862
0.00988147
0.00963346
0.00942821
0.00925405
0.00913082
0.00896505
0.00912558
0.0144206
0.0141799
0.0139539
0.0137436
0.0135362
0.0133298
0.0131439
0.0129613
0.00638472
0.00250736
0.00164314
0.00445006
0.005143
0.00387534
0.0119346
0.0127438
0.0138423
0.0143211
0.0144071
0.014298
0.0139011
0.0132642
0.0125004
0.0117336
0.0110182
0.0103825
0.00982487
0.00936721
0.0089379
0.00869948
0.0144205
0.0141798
0.0139524
0.0137381
0.0135265
0.0133257
0.013148
0.0129667
0.0127864
0.00506963
0.00375494
0.00442661
0.0050724
0.00557594
0.0101959
0.0118744
0.0120663
0.0109134
0.00993472
0.00942037
0.00916567
0.0090555
0.00905473
0.00914567
0.00926397
0.0093655
0.00942201
0.00942809
0.00934995
0.00904429
0.0144205
0.014179
0.0139488
0.0137299
0.0135205
0.0133273
0.0131473
0.0129558
0.0127843
0.0126172
0.0124785
0.0123465
0.0122189
0.0121133
0.0119874
0.0118544
0.0117174
0.0115797
0.0114407
0.0113128
0.0112063
0.0111299
0.0110918
0.0110975
0.0111491
0.011244
0.0113786
0.0115499
0.0117513
0.0109549
0.0144202
0.0141784
0.0139482
0.0137288
0.01352
0.0133259
0.0131422
0.0129473
0.0127773
0.0126364
0.012476
0.0123213
0.0121898
0.0120635
0.0119336
0.0118
0.0116618
0.0115251
0.0113932
0.0112644
0.0111395
0.0110191
0.0109042
0.0107959
0.0106958
0.0106058
0.0105275
0.0104631
0.0104152
0.0103836
0.01442
0.0141785
0.0139481
0.0137289
0.0135201
0.0133211
0.0131241
0.0129395
0.0127691
0.0126086
0.0124535
0.0123279
0.0121889
0.0120348
0.0118999
0.0117642
0.0116269
0.0114933
0.0113636
0.011237
0.011114
0.0109949
0.0108794
0.0107674
0.0106587
0.0105532
0.0104513
0.0103529
0.0102583
0.0101681
0.01442
0.0141784
0.0139483
0.0137282
0.0135182
0.013317
0.0131199
0.0129366
0.0127631
0.0125996
0.0124413
0.0122882
0.0121446
0.0120102
0.0118732
0.0117372
0.0116006
0.0114678
0.0113391
0.011214
0.0110923
0.0109742
0.0108595
0.010748
0.0106396
0.010534
0.0104312
0.0103311
0.0102336
0.0101388
0.01442
0.0141784
0.0139485
0.0137276
0.0135169
0.0133145
0.0131178
0.0129382
0.0127593
0.0125936
0.0124334
0.0122771
0.0121315
0.0119956
0.0118575
0.0117215
0.0115856
0.0114537
0.0113258
0.0112015
0.0110807
0.0109634
0.0108494
0.0107387
0.010631
0.0105261
0.010424
0.0103245
0.0102275
0.010133
0.0144199
0.0141783
0.0139484
0.0137274
0.013516
0.0133127
0.0131129
0.0129362
0.0127569
0.0125901
0.0124282
0.0122711
0.0121243
0.0119869
0.0118482
0.0117123
0.0115773
0.011446
0.0113185
0.0111946
0.0110742
0.0109574
0.0108439
0.0107336
0.0106263
0.0105218
0.0104201
0.010321
0.0102244
0.0101303
0.01442
0.0141784
0.0139485
0.0137274
0.013516
0.0133121
0.0131107
0.0129343
0.0127543
0.012586
0.0124254
0.0122679
0.0121205
0.0119825
0.0118436
0.0117077
0.0115729
0.0114418
0.0113145
0.011191
0.0110708
0.0109542
0.010841
0.0107309
0.0106237
0.0105194
0.0104179
0.010319
0.0102226
0.0101287
0.123148
0.114121
0.106908
0.100954
0.0959208
0.0915911
0.0877085
0.084295
0.081219
0.07848
0.0760557
0.0739957
0.0722707
0.07082
0.0695045
0.0682947
0.0671757
0.0660957
0.0650967
0.0641592
0.0632738
0.0624363
0.0616427
0.0608886
0.0601691
0.0594839
0.0588319
0.0582088
0.0576122
0.0570424
0.123147
0.11412
0.106903
0.100946
0.0959158
0.0915649
0.087635
0.08418
0.0810495
0.0782593
0.0757788
0.0736942
0.0719928
0.0705763
0.069294
0.0681102
0.0670164
0.0659601
0.0649808
0.0640607
0.0631911
0.0623681
0.0615877
0.0608458
0.0601386
0.0594663
0.0588259
0.058214
0.0576281
0.0570688
0.123146
0.114114
0.106893
0.100927
0.0958969
0.0915056
0.0874932
0.08395
0.0807061
0.0777808
0.0751803
0.0730438
0.0714106
0.0700774
0.0688715
0.0677505
0.0667032
0.0657053
0.0647742
0.0638963
0.0630652
0.0622777
0.0615294
0.0608181
0.06014
0.0594959
0.0588814
0.0582935
0.0577303
0.0571925
0.123145
0.114106
0.106878
0.100898
0.0958522
0.0914141
0.08729
0.0836004
0.0801716
0.0769657
0.0741171
0.0719776
0.0704329
0.0692479
0.068179
0.0671716
0.066216
0.065311
0.0644599
0.0636535
0.0628877
0.0621604
0.0614672
0.0608081
0.0601801
0.0595815
0.059009
0.0584599
0.0579325
0.0574276
0.123143
0.114098
0.106857
0.100858
0.0958046
0.091347
0.0870632
0.0831408
0.079373
0.0742325
0.0635969
0.0700924
0.0687795
0.0678427
0.0670002
0.066179
0.0653801
0.064625
0.0639095
0.0632266
0.0625741
0.061952
0.0613575
0.0607927
0.0602541
0.0597391
0.059245
0.0587695
0.0583108
0.0578693
0.12314
0.114089
0.106838
0.100816
0.0957227
0.091392
0.0869489
0.0825586
0.0740606
0.0471349
0.0409653
0.0469191
0.0572941
0.065327
0.0648001
0.0642676
0.0637172
0.0631926
0.0626896
0.0622018
0.0617304
0.061277
0.0608391
0.0604201
0.0600152
0.0596229
0.0592409
0.0588671
0.0584999
0.0581393
0.123147
0.114089
0.106865
0.100836
0.0956093
0.0912571
0.0869203
0.0818548
0.0477326
0.028246
0.0233351
0.0278762
0.0358083
0.0438216
0.0583405
0.0581732
0.0579427
0.0577127
0.057492
0.0572931
0.0571187
0.0569479
0.0567749
0.0566008
0.0564237
0.0562426
0.0560549
0.0558566
0.0556454
0.0554169
0.123157
0.114127
0.107044
0.101117
0.0955378
0.0908702
0.0865632
0.0648547
0.0295381
0.018281
0.0118601
0.0137541
0.0214287
0.0257399
0.0281494
0.0318892
0.0314428
0.0313263
0.0315066
0.03198
0.0326299
0.0332787
0.0338885
0.0344592
0.0349905
0.0354809
0.0359287
0.03633
0.0366812
0.036967
0.123159
0.114137
0.107056
0.101252
0.0956701
0.0905096
0.0858485
0.0510969
0.0245691
0.00883406
0.00714878
0.00988145
0.0135556
0.0149218
0.0159393
0.0161171
0.0161716
0.0161827
0.0161796
0.0161719
0.0161724
0.0161932
0.0162398
0.0163162
0.0164258
0.0165721
0.0167582
0.0169858
0.0172602
0.0175712
0.123159
0.114109
0.106946
0.101174
0.0958567
0.0904776
0.0855021
0.0426819
0.0172818
0.004962
0.00645372
0.00976563
0.00554962
0.00665275
0.0133339
0.0137116
0.0141156
0.0145631
0.0150567
0.0155801
0.0161164
0.0166509
0.0171713
0.0176687
0.0181385
0.0185798
0.0189961
0.0193876
0.0197722
0.0201232
0.123159
0.11411
0.106948
0.101176
0.0958612
0.0904884
0.0855305
0.0432897
0.0157919
0.00337154
0.00357968
0.0130453
0.0136951
0.0142579
0.0147318
0.0151407
0.015479
0.0157631
0.0160247
0.0163036
0.0166377
0.0170547
0.0175678
0.0181722
0.0188511
0.0195933
0.0203619
0.12316
0.114139
0.107058
0.101253
0.0956811
0.0905389
0.0859212
0.0532546
0.0214111
0.00654271
0.00432135
0.00332884
0.0101497
0.0155603
0.0159848
0.0176058
0.0191171
0.0207034
0.0223804
0.0228456
0.0234598
0.0242613
0.0252835
0.026578
0.028126
0.0299142
0.0311295
0.0311114
0.0309177
0.0304642
0.123159
0.11413
0.107047
0.101127
0.09556
0.0909175
0.0866731
0.0694387
0.0326744
0.0147671
0.0130406
0.0122582
0.0219842
0.0240445
0.0293687
0.0349889
0.0320371
0.0297092
0.0277988
0.0234975
0.0203625
0.0180978
0.016717
0.0159957
0.0157086
0.0157383
0.016038
0.016599
0.0171526
0.018123
0.123148
0.114094
0.106875
0.100853
0.0956399
0.0913155
0.0870432
0.0821324
0.0531985
0.0330868
0.0291059
0.0316345
0.0397153
0.0485366
0.0622792
0.0609759
0.0595082
0.0579142
0.0558629
0.0533475
0.0505754
0.0477282
0.0449487
0.0423148
0.0399031
0.0377719
0.0325761
0.0275333
0.0245926
0.0203953
0.123142
0.114095
0.106849
0.100835
0.0957564
0.0914528
0.0870631
0.0827816
0.0785978
0.0546953
0.0489207
0.0545353
0.0627539
0.0671243
0.0661043
0.0650088
0.0638367
0.0626158
0.0612575
0.0597634
0.0581638
0.0564925
0.0547641
0.0529931
0.0511936
0.0493867
0.0475818
0.0458083
0.0440614
0.0423769
0.123146
0.114104
0.106869
0.100879
0.0958393
0.0914054
0.0871638
0.0833192
0.079684
0.0761693
0.073216
0.0711825
0.0698131
0.0685845
0.0674132
0.0662421
0.0650663
0.0639105
0.0627735
0.0616041
0.0603868
0.0591391
0.0578698
0.056587
0.0552975
0.0540092
0.0527262
0.0514566
0.0502023
0.0489643
0.123147
0.114113
0.106891
0.100919
0.0958866
0.0914685
0.0873773
0.0837419
0.0803984
0.0773197
0.0746461
0.0725822
0.0709714
0.0695838
0.0682964
0.067059
0.0658546
0.0646818
0.0635245
0.0623489
0.0611608
0.0599761
0.0588013
0.0576438
0.0565062
0.0553925
0.0543044
0.0532451
0.0522148
0.0512132
0.123149
0.114121
0.106906
0.100949
0.0959306
0.0915566
0.08757
0.0840652
0.0808751
0.0780198
0.0754923
0.0733829
0.0716925
0.0702209
0.0688653
0.0675854
0.066365
0.0651845
0.0640492
0.0629254
0.0618137
0.0607215
0.0596503
0.058602
0.0575759
0.0565748
0.0555985
0.0546482
0.0537254
0.0528281
0.12315
0.114127
0.106917
0.100968
0.0959491
0.0916135
0.0877049
0.0842789
0.0811845
0.0784346
0.0759875
0.0739035
0.0721451
0.0706236
0.0692276
0.0679222
0.0666967
0.0655091
0.0643753
0.0632714
0.0621878
0.0611296
0.0600981
0.0590922
0.0581121
0.0571611
0.0562388
0.0553459
0.0544825
0.0536483
0.123151
0.114129
0.106922
0.100976
0.0959536
0.0916381
0.0877744
0.0843848
0.0813362
0.0786233
0.0762138
0.0741405
0.0723547
0.0708127
0.0693973
0.0680796
0.0668427
0.0656474
0.0645088
0.0633998
0.0623179
0.061267
0.0602475
0.059258
0.0582971
0.0573682
0.0564716
0.0556064
0.0547719
0.0539691
0.13447
0.133883
0.133117
0.132203
0.131164
0.130024
0.128793
0.127491
0.126139
0.12477
0.123396
0.122082
0.120813
0.119658
0.118542
0.117448
0.11638
0.115319
0.114281
0.113268
0.112276
0.111307
0.110359
0.109434
0.108525
0.107641
0.106777
0.105934
0.105111
0.104311
0.13447
0.133883
0.133116
0.132203
0.131158
0.130014
0.128774
0.127457
0.126083
0.124688
0.12329
0.121982
0.120696
0.119556
0.118453
0.117369
0.11631
0.115258
0.11423
0.113226
0.112244
0.111284
0.110347
0.109428
0.108532
0.107657
0.106804
0.105971
0.105158
0.104369
0.13447
0.133882
0.133115
0.132202
0.131149
0.129995
0.128737
0.127389
0.125971
0.124525
0.123083
0.121762
0.120492
0.11939
0.118318
0.117259
0.116226
0.115189
0.114182
0.1132
0.112238
0.111299
0.110381
0.109484
0.108611
0.107757
0.106925
0.106114
0.105321
0.104552
0.13447
0.133882
0.133113
0.132198
0.131136
0.129968
0.128682
0.127286
0.125799
0.124276
0.11261
0.121464
0.120206
0.119173
0.118154
0.117129
0.116118
0.115115
0.11414
0.113188
0.112258
0.111351
0.110462
0.109602
0.108761
0.107942
0.107144
0.106365
0.105603
0.104864
0.13447
0.133881
0.133111
0.132193
0.131159
0.129927
0.128606
0.127147
0.12556
0.088547
0.0755094
0.0822677
0.0989372
0.118599
0.117688
0.11672
0.115743
0.114784
0.113854
0.112947
0.112064
0.111202
0.110366
0.109557
0.108768
0.108003
0.107258
0.10653
0.105819
0.105126
0.134469
0.133881
0.133111
0.132187
0.13117
0.129888
0.12853
0.126993
0.0893858
0.0565785
0.0484739
0.0547594
0.0641785
0.0800787
0.109539
0.114355
0.113443
0.112535
0.111644
0.11077
0.109916
0.10909
0.108295
0.107528
0.106788
0.106077
0.105389
0.104719
0.104063
0.10342
0.13447
0.133881
0.133119
0.132197
0.13114
0.129889
0.128449
0.109835
0.0582312
0.0367973
0.0293178
0.0319898
0.03949
0.0493468
0.0735514
0.103293
0.101421
0.0996687
0.0980573
0.0965864
0.0952801
0.0941396
0.0931663
0.092364
0.0917431
0.0912865
0.0909181
0.0905729
0.0902304
0.0898727
0.13447
0.133884
0.133118
0.132199
0.131162
0.129884
0.128362
0.0798232
0.0390547
0.0210435
0.0196702
0.0196174
0.0239234
0.0270558
0.0277234
0.0439927
0.0417389
0.0405882
0.0400559
0.0398977
0.0400122
0.0403459
0.0408498
0.0415214
0.042365
0.0433454
0.0443538
0.0453072
0.0461865
0.0469574
0.134471
0.133885
0.133127
0.132178
0.131139
0.129855
0.128345
0.0648113
0.0339858
0.0139541
0.0121525
0.00701447
0.0117804
0.0165539
0.0176358
0.0174763
0.0172911
0.01713
0.0170173
0.0169511
0.0169355
0.0169654
0.0170357
0.0171395
0.0172701
0.0174233
0.0176007
0.0178036
0.0180362
0.0182786
0.134471
0.133883
0.133133
0.132214
0.131148
0.129854
0.119999
0.0548006
0.0249375
0.00814065
0.00613953
0.00232519
0.0209478
0.0153515
0.0139573
0.0144407
0.0148573
0.0152566
0.015667
0.0160758
0.0164833
0.0168856
0.017277
0.0176522
0.0180073
0.0183398
0.0186481
0.0189295
0.0191911
0.0194082
0.134471
0.133883
0.133133
0.132215
0.131149
0.129856
0.121095
0.0556258
0.0237057
0.00588012
0.00405444
0.00995861
0.016344
0.0165969
0.0168963
0.0173061
0.0178409
0.0184673
0.0191675
0.0199121
0.0206931
0.0214994
0.0223248
0.0231636
0.0240072
0.0248345
0.0256367
0.0263219
0.134471
0.133886
0.133127
0.132179
0.131142
0.129861
0.12836
0.0672808
0.0298637
0.0116485
0.0097611
0.00249237
0.0180601
0.0227457
0.0172528
0.0174671
0.017691
0.0180226
0.018525
0.0192219
0.020127
0.0212544
0.0225883
0.0241121
0.0257838
0.0275393
0.0293011
0.0309834
0.0311205
0.0313691
0.13447
0.133884
0.133119
0.1322
0.131166
0.129893
0.128385
0.0843744
0.0425622
0.0239501
0.0173005
0.0102581
0.020001
0.0216297
0.0332974
0.0440117
0.0395044
0.036591
0.0344831
0.0328034
0.0314288
0.0302764
0.0293525
0.0286444
0.0281674
0.0269825
0.0247103
0.0231152
0.0222758
0.020793
0.13447
0.133881
0.13312
0.132199
0.131145
0.129901
0.128477
0.117195
0.0633313
0.0414776
0.0324318
0.0331585
0.0423487
0.0525075
0.0822987
0.105868
0.102813
0.0996088
0.096318
0.0928713
0.0891498
0.0851355
0.0810231
0.0768725
0.0727688
0.068687
0.064499
0.0603963
0.0565408
0.0508
0.13447
0.133882
0.133112
0.13219
0.131176
0.129901
0.128557
0.12705
0.0973395
0.063346
0.0536312
0.0604217
0.0682063
0.0859243
0.116345
0.115076
0.113659
0.112095
0.110386
0.108525
0.10649
0.104291
0.101939
0.0994668
0.0968782
0.0941644
0.0912951
0.08833
0.0853044
0.0823204
0.13447
0.133882
0.133112
0.132196
0.131165
0.12994
0.128631
0.127195
0.125649
0.0985356
0.0851198
0.0913111
0.106674
0.11896
0.117817
0.116591
0.115314
0.113993
0.112607
0.111153
0.109629
0.108038
0.106385
0.104689
0.102948
0.101179
0.0993699
0.0975229
0.0956576
0.0937829
0.13447
0.133882
0.133115
0.132201
0.131143
0.12998
0.128704
0.127325
0.125864
0.12438
0.12291
0.121645
0.120346
0.119195
0.118033
0.116841
0.115635
0.114397
0.113122
0.111804
0.110441
0.109045
0.107612
0.106161
0.104694
0.103221
0.101751
0.100276
0.0988066
0.0973471
0.13447
0.133883
0.133116
0.132205
0.131155
0.130006
0.128756
0.127421
0.126021
0.124595
0.123173
0.121857
0.120549
0.119361
0.118184
0.117001
0.115827
0.114617
0.113402
0.112165
0.110904
0.109627
0.108334
0.107031
0.105721
0.104416
0.103115
0.101823
0.100545
0.0992768
0.13447
0.133883
0.133118
0.132206
0.131165
0.130025
0.128792
0.127485
0.126123
0.124739
0.123348
0.122035
0.120713
0.119505
0.118317
0.117135
0.115964
0.114749
0.113562
0.112367
0.111159
0.109941
0.108718
0.107488
0.106254
0.105029
0.103815
0.102613
0.101427
0.100259
0.13447
0.133884
0.133118
0.132206
0.13117
0.130034
0.12881
0.127516
0.126172
0.124809
0.123435
0.122107
0.120801
0.119584
0.118392
0.117209
0.116041
0.114822
0.113637
0.112451
0.111255
0.110053
0.108848
0.107645
0.10644
0.105243
0.104064
0.102901
0.101753
0.100633
0.134739
0.134632
0.134511
0.134371
0.134211
0.134027
0.133823
0.1336
0.133362
0.133111
0.132837
0.132527
0.132195
0.131867
0.131532
0.131183
0.130818
0.130441
0.130052
0.129655
0.129249
0.128836
0.128416
0.12799
0.127559
0.127122
0.126683
0.126241
0.125795
0.125352
0.134739
0.134632
0.134511
0.134371
0.13421
0.134027
0.133823
0.133601
0.133366
0.133122
0.132857
0.13257
0.132235
0.131915
0.131586
0.131239
0.130876
0.130501
0.130113
0.129718
0.129314
0.128903
0.128486
0.128063
0.127634
0.127201
0.126766
0.126327
0.125886
0.125447
0.134739
0.134632
0.134511
0.134371
0.13421
0.134027
0.133824
0.133605
0.133379
0.133155
0.132919
0.132677
0.132353
0.132056
0.131739
0.131398
0.131037
0.130665
0.130282
0.12989
0.12949
0.129083
0.128671
0.128254
0.12783
0.127405
0.126976
0.126544
0.12611
0.125679
0.134739
0.134632
0.134511
0.134371
0.13421
0.134027
0.133826
0.133615
0.133413
0.133233
0.132984
0.132868
0.13261
0.132351
0.132052
0.131713
0.13135
0.130975
0.130591
0.1302
0.129801
0.129398
0.128991
0.128578
0.128163
0.127746
0.127326
0.126904
0.12648
0.126057
0.134739
0.134632
0.134511
0.134372
0.134211
0.13403
0.133834
0.133641
0.133486
0.107817
0.0915462
0.0973418
0.115091
0.132499
0.132243
0.131909
0.131539
0.131157
0.130771
0.130378
0.12998
0.129579
0.129175
0.128768
0.128362
0.127954
0.127545
0.127134
0.12672
0.126306
0.134739
0.134633
0.134511
0.134372
0.134214
0.134033
0.133848
0.133693
0.109186
0.0722881
0.0613257
0.0657868
0.0757385
0.0938443
0.128741
0.130654
0.130263
0.129853
0.129433
0.129003
0.128567
0.12813
0.127688
0.127253
0.12682
0.12639
0.125962
0.125533
0.1251
0.124664
0.134739
0.134633
0.134512
0.134372
0.134217
0.134039
0.133874
0.131774
0.0756441
0.0474552
0.0374901
0.03958
0.0465481
0.0615034
0.0880109
0.123959
0.123026
0.122019
0.120979
0.119936
0.118924
0.117967
0.117093
0.11632
0.115659
0.115096
0.114595
0.114114
0.113633
0.113141
0.134739
0.134633
0.134513
0.134372
0.13422
0.134048
0.133912
0.100947
0.0523253
0.031047
0.0255215
0.0213095
0.0272606
0.0315273
0.050503
0.0916906
0.087293
0.0835981
0.0804842
0.0778872
0.0757797
0.0740821
0.0727656
0.0718858
0.0714201
0.0713055
0.0713835
0.0715072
0.0716334
0.0717246
0.134739
0.134633
0.134514
0.134375
0.134219
0.134057
0.133953
0.0802431
0.0387861
0.0198074
0.0148999
0.00773569
0.0119725
0.0179761
0.0258996
0.0251218
0.0245422
0.0241938
0.0239415
0.0237808
0.0236991
0.0236888
0.0237344
0.0238155
0.0239279
0.0240655
0.0242259
0.0244075
0.0246094
0.0248268
0.134739
0.134633
0.134513
0.134379
0.134225
0.134077
0.133985
0.069585
0.0319827
0.0158891
0.00839126
0.00154101
0.00832638
0.00540692
0.0158504
0.016823
0.017463
0.0179669
0.0183751
0.0187022
0.0189628
0.0191694
0.0193313
0.0194554
0.0195483
0.0196163
0.0196649
0.0196986
0.0197263
0.0197369
0.134739
0.134633
0.134513
0.134379
0.134225
0.134076
0.133982
0.0705243
0.0325525
0.0149009
0.00748229
0.00214654
0.0184955
0.0292162
0.0225851
0.0226134
0.0224086
0.022184
0.021991
0.0218397
0.0217347
0.0216707
0.0216435
0.0216447
0.0216681
0.0217058
0.0217514
0.0217964
0.0218451
0.0218669
0.134739
0.134633
0.134513
0.134375
0.134218
0.134056
0.133947
0.0829447
0.040475
0.0206563
0.00998358
0.00177469
0.0145571
0.0143458
0.0183905
0.0181322
0.0179688
0.0179152
0.0179548
0.0180931
0.0183339
0.018681
0.019138
0.0197069
0.0203753
0.0211294
0.0219447
0.0227887
0.0236338
0.0244167
0.134739
0.134633
0.134513
0.134372
0.13422
0.134046
0.133905
0.10566
0.0556073
0.0330918
0.0195468
0.0127764
0.0222488
0.025975
0.0492846
0.083468
0.076709
0.0709879
0.0658869
0.0613481
0.057328
0.0537665
0.0506095
0.0477995
0.0453101
0.0431128
0.0411986
0.0395588
0.0381646
0.0370718
0.134739
0.134632
0.134512
0.134372
0.134217
0.134037
0.133868
0.13377
0.0808613
0.0515
0.0390135
0.0402131
0.0487065
0.0660504
0.0956116
0.124615
0.122968
0.12107
0.118947
0.116619
0.114105
0.111424
0.108613
0.105687
0.102659
0.0995093
0.0962223
0.0928314
0.0893836
0.0859153
0.134739
0.134632
0.134511
0.134371
0.134214
0.134031
0.133844
0.133681
0.117151
0.0785999
0.0655213
0.0699223
0.0791131
0.0993034
0.131397
0.130957
0.130399
0.12976
0.129024
0.128184
0.127237
0.126181
0.125006
0.123709
0.122292
0.120759
0.119101
0.117328
0.115441
0.113467
0.134739
0.134632
0.134511
0.134371
0.13421
0.134029
0.133831
0.133633
0.133465
0.117633
0.100251
0.105212
0.122295
0.132531
0.132202
0.131783
0.13131
0.130798
0.130241
0.129634
0.128974
0.128261
0.127494
0.12667
0.125791
0.124859
0.123874
0.122835
0.121744
0.120612
0.134739
0.134632
0.134511
0.134371
0.134209
0.134027
0.133825
0.133611
0.133399
0.133203
0.133006
0.132794
0.132513
0.132219
0.131877
0.131485
0.131058
0.130596
0.130105
0.129576
0.12901
0.128405
0.127763
0.127085
0.126371
0.125623
0.124848
0.124045
0.123215
0.122366
0.134739
0.134632
0.134511
0.134371
0.134209
0.134027
0.133823
0.133602
0.13337
0.133134
0.132882
0.132624
0.13228
0.131955
0.131606
0.131224
0.130814
0.13037
0.129908
0.129418
0.128898
0.128349
0.127772
0.127167
0.126537
0.12588
0.125204
0.12451
0.123798
0.123074
0.134739
0.134632
0.134511
0.134371
0.13421
0.134027
0.133822
0.133599
0.13336
0.133106
0.13283
0.132531
0.132182
0.131842
0.131487
0.131107
0.130704
0.130278
0.129825
0.129351
0.128851
0.128327
0.12778
0.127209
0.126618
0.126005
0.125374
0.12473
0.124074
0.12341
0.134739
0.134632
0.134511
0.134371
0.134211
0.134027
0.133822
0.133598
0.133356
0.133098
0.132812
0.132492
0.132147
0.1318
0.131442
0.131063
0.130662
0.130237
0.129787
0.129318
0.128824
0.128308
0.12777
0.127211
0.126633
0.126037
0.125424
0.1248
0.124166
0.123528
0.134745
0.134656
0.134566
0.134476
0.134386
0.134296
0.134208
0.134125
0.134052
0.133986
0.133917
0.133827
0.13372
0.133609
0.133498
0.133379
0.133253
0.13312
0.132982
0.132838
0.13269
0.132536
0.132378
0.132215
0.132048
0.131876
0.131699
0.131518
0.131333
0.131147
0.134745
0.134656
0.134566
0.134476
0.134386
0.134296
0.13421
0.13413
0.134062
0.134007
0.133951
0.133875
0.133778
0.133676
0.133569
0.133454
0.133329
0.133198
0.133061
0.13292
0.132773
0.132621
0.132464
0.132303
0.132138
0.131968
0.131793
0.131614
0.131431
0.131247
0.134745
0.134656
0.134566
0.134477
0.134386
0.134298
0.134214
0.134141
0.134088
0.134057
0.134037
0.133996
0.133927
0.133845
0.133751
0.133641
0.133521
0.133393
0.13326
0.133121
0.132977
0.132829
0.132675
0.132518
0.132356
0.132189
0.132017
0.131842
0.131662
0.131481
0.134745
0.134656
0.134567
0.134477
0.134387
0.134301
0.134222
0.134162
0.134137
0.134161
0.134212
0.134237
0.134222
0.134177
0.134102
0.134
0.133882
0.133756
0.133625
0.133488
0.133346
0.133199
0.133048
0.132893
0.132734
0.13257
0.132403
0.132231
0.132054
0.131876
0.134745
0.134656
0.134567
0.134477
0.134389
0.134305
0.134235
0.134198
0.134228
0.13404
0.114069
0.12027
0.134593
0.134602
0.134548
0.134442
0.134314
0.134179
0.134041
0.133898
0.13375
0.133598
0.133444
0.133287
0.133126
0.132962
0.132794
0.132622
0.132445
0.132265
0.134745
0.134656
0.134567
0.134478
0.134391
0.134312
0.134255
0.134259
0.134378
0.0951573
0.0784932
0.081792
0.0937349
0.112563
0.134256
0.134166
0.134033
0.133888
0.133738
0.13358
0.133417
0.13325
0.133079
0.132903
0.132721
0.132535
0.132343
0.132144
0.131936
0.131721
0.134745
0.134656
0.134567
0.134479
0.134394
0.13432
0.134284
0.134351
0.10056
0.0640051
0.0527495
0.0577993
0.0626654
0.077817
0.111389
0.131693
0.13147
0.131193
0.130877
0.130521
0.130135
0.129728
0.129304
0.12886
0.128408
0.127957
0.127507
0.127058
0.126609
0.126156
0.134745
0.134656
0.134567
0.134479
0.134396
0.13433
0.134321
0.12945
0.0724402
0.0450026
0.031515
0.0317023
0.0382798
0.0502206
0.0801774
0.121612
0.12019
0.118621
0.116932
0.11506
0.113127
0.111236
0.109415
0.107747
0.106258
0.104964
0.103849
0.102893
0.102072
0.101319
0.134745
0.134656
0.134568
0.13448
0.134399
0.134339
0.134357
0.106745
0.0561491
0.0321786
0.0233863
0.0170106
0.0228724
0.0244619
0.0469107
0.0874828
0.0818689
0.0769096
0.0725135
0.0687627
0.0655923
0.0629397
0.060756
0.0589783
0.0575611
0.0564602
0.0556497
0.0550968
0.0547499
0.0545011
0.134745
0.134656
0.134568
0.134481
0.134401
0.134345
0.13438
0.094575
0.0486389
0.025897
0.0150351
0.00863078
0.0173839
0.0206525
0.0323915
0.0406136
0.0368607
0.0344341
0.0327801
0.0316224
0.0307857
0.0301885
0.0297884
0.0295298
0.0293754
0.0293075
0.029302
0.0293367
0.0293974
0.0294723
0.134745
0.134656
0.134568
0.134481
0.134401
0.134345
0.134378
0.0954476
0.0492183
0.026203
0.0132711
0.00743286
0.0163044
0.020447
0.0216822
0.0280448
0.0264894
0.0256471
0.0251893
0.02495
0.0248571
0.0248662
0.0249517
0.0250969
0.025293
0.0255342
0.0258167
0.0261322
0.0264727
0.0268102
0.134745
0.134656
0.134568
0.13448
0.134398
0.134338
0.134351
0.109366
0.0579068
0.0329914
0.0173027
0.0109902
0.0207709
0.0240196
0.0484734
0.0753674
0.0687192
0.0632483
0.0579927
0.0530424
0.0487226
0.0451048
0.0421537
0.0398011
0.0379849
0.0366199
0.0356323
0.0349514
0.0345137
0.0342993
0.134745
0.134656
0.134567
0.134479
0.134396
0.134328
0.134314
0.134113
0.0757072
0.0468011
0.0314506
0.0307634
0.0389901
0.0527097
0.092296
0.120698
0.118242
0.115521
0.112517
0.109057
0.105244
0.101134
0.0967554
0.0922109
0.087683
0.0833221
0.0792351
0.0754712
0.0720208
0.068946
0.134745
0.134656
0.134567
0.134478
0.134393
0.134318
0.134277
0.134331
0.105716
0.0677924
0.0532226
0.059639
0.0642853
0.081858
0.119113
0.132045
0.131667
0.131168
0.130543
0.129776
0.12886
0.127784
0.126526
0.125081
0.123461
0.121684
0.119772
0.117746
0.115626
0.113439
0.134745
0.134656
0.134567
0.134478
0.13439
0.13431
0.134249
0.134243
0.134341
0.10136
0.0826011
0.0852308
0.0976291
0.11763
0.134384
0.134255
0.134067
0.13385
0.133608
0.133332
0.13302
0.132668
0.132271
0.131823
0.13132
0.130756
0.130127
0.129432
0.12867
0.127847
0.134745
0.134656
0.134566
0.134477
0.134388
0.134303
0.134231
0.134187
0.134201
0.134293
0.122691
0.128532
0.13454
0.134525
0.134444
0.13431
0.134148
0.133972
0.133783
0.13358
0.133362
0.133126
0.132873
0.1326
0.132306
0.131987
0.131643
0.131271
0.130871
0.130446
0.134745
0.134656
0.134566
0.134476
0.134387
0.134299
0.134218
0.134154
0.134118
0.134122
0.134148
0.134152
0.134119
0.134057
0.133964
0.133843
0.133703
0.133551
0.133388
0.133214
0.133027
0.132827
0.132613
0.132384
0.132141
0.131882
0.131607
0.131316
0.131008
0.130687
0.134745
0.134656
0.134566
0.134476
0.134386
0.134297
0.134211
0.134135
0.134074
0.134031
0.133993
0.133935
0.133853
0.133759
0.133652
0.133529
0.133393
0.133246
0.133089
0.132923
0.132746
0.132559
0.132359
0.132148
0.131925
0.13169
0.131442
0.131182
0.13091
0.130629
0.134745
0.134656
0.134566
0.134476
0.134385
0.134295
0.134207
0.134125
0.134051
0.133986
0.133918
0.133831
0.133726
0.133616
0.133501
0.133375
0.133238
0.133092
0.132937
0.132774
0.1326
0.132417
0.132223
0.132019
0.131804
0.131578
0.131341
0.131094
0.130837
0.130573
0.134745
0.134656
0.134566
0.134476
0.134385
0.134294
0.134205
0.134121
0.134042
0.133968
0.133889
0.13379
0.133676
0.133559
0.13344
0.133313
0.133176
0.133031
0.132875
0.132712
0.132539
0.132357
0.132164
0.131962
0.131749
0.131526
0.131293
0.13105
0.130798
0.130541
0.134745
0.134657
0.134568
0.13448
0.134394
0.13431
0.13423
0.134157
0.134093
0.134039
0.133985
0.133921
0.133845
0.133768
0.13369
0.13361
0.133527
0.133441
0.133353
0.133264
0.133174
0.133083
0.13299
0.132896
0.132801
0.132704
0.132606
0.132507
0.132406
0.132306
0.134745
0.134657
0.134568
0.134481
0.134394
0.134311
0.134232
0.134161
0.134102
0.134055
0.134011
0.133957
0.133889
0.133818
0.133745
0.133667
0.133585
0.133501
0.133415
0.133328
0.13324
0.13315
0.133059
0.132967
0.132873
0.132778
0.132682
0.132584
0.132485
0.132387
0.134745
0.134657
0.134568
0.134481
0.134395
0.134312
0.134235
0.13417
0.134121
0.134092
0.134073
0.134044
0.133998
0.133942
0.133878
0.133806
0.133729
0.133648
0.133566
0.133483
0.133398
0.133312
0.133225
0.133136
0.133047
0.132955
0.132863
0.132768
0.132672
0.132577