/*--------------------------------*- C++ -*----------------------------------*\
| =========                 |                                                 |
| \\      /  F ield         | OpenFOAM: The Open Source CFD Toolbox           |
|  \\    /   O peration     | Version:  2512                                  |
|   \\  /    A nd           | Website:  www.openfoam.com                      |
|    \\/     M anipulation  |                                                 |
\*---------------------------------------------------------------------------*/
FoamFile
{
    version     2.0;
    format      ascii;
    arch        "LSB;label=32;scalar=64";
    class       volScalarField;
    location    "300";
    object      nut;
}
// * * * * * * * * * * * * * * * * * * * * * * * * * * * * * * * * * * * * * //

dimensions      [0 2 -1 0 0 0 0];

internalField   nonuniform List<scalar> 
84826
(
0.0144196
0.0141772
0.0139458
0.0137246
0.0135127
0.0133097
0.0131156
0.0129297
0.012753
0.0125839
0.0124237
0.012268
0.0121241
0.0119911
0.0118573
0.0117262
0.0115963
0.0114693
0.0113455
0.0112245
0.0111062
0.0109907
0.0108784
0.0107691
0.0106627
0.010559
0.010458
0.0103597
0.0102638
0.0101705
0.0144196
0.0141772
0.0139459
0.0137248
0.0135131
0.0133105
0.0131168
0.0129315
0.0127552
0.0125868
0.0124274
0.0122723
0.0121293
0.0119969
0.0118635
0.0117325
0.0116023
0.011475
0.0113507
0.0112294
0.0111106
0.0109951
0.0108826
0.0107731
0.0106665
0.0105627
0.0104615
0.0103629
0.0102668
0.0101732
0.0144196
0.0141772
0.013946
0.013725
0.0135136
0.0133112
0.0131176
0.0129331
0.0127583
0.0125912
0.0124335
0.0122799
0.0121387
0.0120081
0.0118755
0.0117447
0.0116137
0.0114857
0.011361
0.0112391
0.01112
0.0110042
0.0108913
0.0107815
0.0106745
0.0105703
0.0104688
0.0103698
0.0102734
0.0101793
0.0144196
0.0141773
0.0139461
0.0137253
0.013514
0.0133119
0.0131188
0.0129353
0.0127619
0.0125968
0.0124422
0.0122926
0.0121545
0.0120255
0.0118943
0.011764
0.0116326
0.0115036
0.0113783
0.0112558
0.011136
0.0110194
0.0109057
0.0107951
0.0106874
0.0105825
0.0104802
0.0103804
0.0102832
0.0101884
0.0144196
0.0141773
0.0139462
0.0137254
0.0135143
0.0133126
0.0131199
0.0129375
0.012766
0.0126039
0.0124501
0.012326
0.012193
0.0120445
0.0119162
0.0117871
0.0116555
0.0115258
0.0113997
0.0112762
0.0111554
0.0110379
0.0109237
0.0108129
0.0107055
0.0106017
0.0105014
0.0104048
0.0103119
0.0102224
0.0144196
0.0141773
0.0139462
0.0137254
0.0135146
0.0133131
0.013121
0.01294
0.0127708
0.0126082
0.0124582
0.0123211
0.0121937
0.0120711
0.011947
0.0118195
0.0116875
0.0115568
0.0114298
0.0113054
0.0111877
0.0110798
0.0109846
0.0109043
0.0108396
0.0107911
0.0107581
0.0107393
0.0107333
0.0107349
0.0144196
0.0141773
0.0139462
0.0137255
0.0135148
0.0133135
0.0131222
0.0129424
0.012773
0.0126133
0.0103194
0.00979763
0.010411
0.0111693
0.0121716
0.0120573
0.0119379
0.0118194
0.0117463
0.0117898
0.0119397
0.0121724
0.0124655
0.0128015
0.0125237
0.0114471
0.0107232
0.0102672
0.00998393
0.00975195
0.0144196
0.0141772
0.0139461
0.0137256
0.0135149
0.0133139
0.0131233
0.0129443
0.0127741
0.0114864
0.00455758
0.00337553
0.00404857
0.00418055
0.0127245
0.0107859
0.0102684
0.0106639
0.0110405
0.0112977
0.0115585
0.0118341
0.0120804
0.0122541
0.0123591
0.0124526
0.0125182
0.0125939
0.012542
0.0126901
0.0144196
0.0141772
0.0139461
0.0137255
0.0135149
0.0133142
0.0131242
0.012946
0.0127767
0.00793315
0.00300371
0.00214584
0.00264614
0.00829546
0.0201436
0.0198342
0.0197618
0.0195863
0.018792
0.0177548
0.0168747
0.0162284
0.0157684
0.0154617
0.0152942
0.0152686
0.0153649
0.0155736
0.0157106
0.0164169
0.0144195
0.0141771
0.0139458
0.0137252
0.0135145
0.0133138
0.0131241
0.0129453
0.0127756
0.00601841
0.00204855
0.000851098
0.00236803
0.00530998
0.0128444
0.0143757
0.016533
0.0187525
0.0203356
0.0212321
0.0217804
0.0221627
0.0224242
0.0225856
0.0226735
0.0227432
0.0228039
0.0229348
0.0228373
0.0237473
0.0144195
0.014177
0.0139457
0.0137249
0.0135141
0.0133135
0.013124
0.0129453
0.0127755
0.00601991
0.00194163
0.00129966
0.00312862
0.0132787
0.0146952
0.0169854
0.0193516
0.0211091
0.0221846
0.0228898
0.0233894
0.0237151
0.0238829
0.0239269
0.0238813
0.0237537
0.0235911
0.0232904
0.0235394
0.0144195
0.014177
0.013946
0.0137253
0.0135145
0.0133138
0.0131241
0.0129459
0.0127765
0.00794662
0.00248426
0.000910801
0.00127766
0.00441455
0.0175214
0.0173494
0.0173796
0.0176544
0.0176708
0.0175953
0.0176946
0.0179588
0.0182837
0.0185944
0.0188477
0.0190235
0.0191079
0.0190816
0.0189954
0.0189078
0.0144195
0.0141771
0.0139462
0.0137256
0.0135148
0.0133138
0.0131232
0.0129441
0.0127738
0.0115251
0.00388244
0.00298091
0.00336317
0.00443955
0.0118374
0.010084
0.00984715
0.0103609
0.0108594
0.0112718
0.0117673
0.0123027
0.0127929
0.0132082
0.0135139
0.0137134
0.0138173
0.0138361
0.0137661
0.0136895
0.0144195
0.0141773
0.0139462
0.0137255
0.0135147
0.0133134
0.0131221
0.0129421
0.0127727
0.0126128
0.0103979
0.00990756
0.0105462
0.0111031
0.0122132
0.0121074
0.0120046
0.0120514
0.012196
0.0124031
0.0126334
0.0128541
0.0130477
0.0132085
0.0131391
0.0125228
0.0120778
0.0116859
0.0114681
0.011074
0.0144196
0.0141773
0.0139462
0.0137254
0.0135145
0.0133129
0.0131208
0.0129397
0.0127704
0.0126076
0.0124573
0.0123198
0.0121915
0.0120696
0.0119449
0.0118167
0.011684
0.0115537
0.0114306
0.0113152
0.0112085
0.0111096
0.0110173
0.0109299
0.0108465
0.0107663
0.0106885
0.0106127
0.0105396
0.0104679
0.0144196
0.0141773
0.0139461
0.0137253
0.0135142
0.0133124
0.0131197
0.0129372
0.0127656
0.0126033
0.0124493
0.0123248
0.0121913
0.012042
0.0119129
0.0117834
0.0116514
0.0115218
0.0113965
0.0112744
0.0111556
0.0110403
0.0109283
0.0108197
0.0107139
0.0106111
0.0105108
0.0104132
0.0103179
0.010225
0.0144196
0.0141773
0.0139461
0.0137252
0.0135139
0.0133118
0.0131186
0.012935
0.0127615
0.0125962
0.0124412
0.0122912
0.0121526
0.0120231
0.0118915
0.011761
0.0116297
0.011501
0.0113764
0.0112549
0.0111364
0.0110213
0.0109093
0.0108003
0.0106942
0.0105907
0.0104898
0.0103913
0.0102953
0.0102015
0.0144196
0.0141772
0.013946
0.013725
0.0135135
0.0133111
0.0131174
0.0129328
0.0127579
0.0125905
0.0124325
0.0122785
0.0121369
0.0120059
0.011873
0.0117421
0.0116113
0.0114834
0.0113594
0.0112386
0.0111206
0.0110061
0.0108946
0.0107861
0.0106805
0.0105776
0.0104773
0.0103794
0.010284
0.0101908
0.0144196
0.0141772
0.0139459
0.0137248
0.0135131
0.0133104
0.0131166
0.0129312
0.0127547
0.012586
0.0124263
0.0122708
0.0121274
0.0119947
0.0118611
0.01173
0.0115999
0.0114726
0.0113487
0.0112281
0.0111106
0.0109963
0.0108851
0.010777
0.0106716
0.0105689
0.0104687
0.0103711
0.0102758
0.0101829
0.0144196
0.0141772
0.0139458
0.0137246
0.0135126
0.0133096
0.0131154
0.0129293
0.0127524
0.012583
0.0124225
0.0122664
0.0121221
0.0119888
0.0118549
0.0117239
0.0115939
0.0114669
0.0113433
0.011223
0.0111058
0.0109917
0.0108808
0.0107728
0.0106676
0.0105651
0.0104652
0.0103677
0.0102727
0.0101798
0.123119
0.114071
0.106845
0.100886
0.0958394
0.0914731
0.0876371
0.0842065
0.0810443
0.0781654
0.0755661
0.0732591
0.071225
0.0695045
0.0680723
0.0668593
0.0657512
0.0646805
0.0636731
0.062717
0.0618023
0.0609187
0.0600587
0.0592222
0.0584104
0.057628
0.0568768
0.0561566
0.0554677
0.0548141
0.123118
0.114067
0.106839
0.100874
0.09582
0.0914396
0.0875794
0.084124
0.0809165
0.0779794
0.0753153
0.0729426
0.0708627
0.0691169
0.0676916
0.0665017
0.0654199
0.0643704
0.0633783
0.0624314
0.0615136
0.0606165
0.0597404
0.0588857
0.0580551
0.0572528
0.0564794
0.0557358
0.0550229
0.0543443
0.123121
0.114062
0.106827
0.100854
0.0957824
0.0913716
0.0874543
0.0839471
0.0806417
0.0775788
0.0747734
0.0722635
0.0700829
0.0682844
0.0668759
0.0657401
0.0647002
0.0636924
0.0627232
0.0617686
0.0608278
0.0599016
0.0589917
0.0581039
0.0572412
0.0564081
0.0556057
0.0548352
0.0540979
0.0533995
0.123125
0.114056
0.106812
0.100825
0.0957297
0.0912778
0.0872899
0.0836855
0.0802247
0.0769517
0.0738534
0.0711099
0.0686992
0.0668063
0.0654269
0.064382
0.0634078
0.0624543
0.0614904
0.0605257
0.0595538
0.0585781
0.0576052
0.0566459
0.0557076
0.0547968
0.053918
0.0530746
0.0522677
0.051505
0.123123
0.114056
0.106795
0.100789
0.0956649
0.0911596
0.0870809
0.0833356
0.0796516
0.0760161
0.0569158
0.0546785
0.0624707
0.0646389
0.0632488
0.0622929
0.0613397
0.0603522
0.0593401
0.0583174
0.0572708
0.0562044
0.0551284
0.054054
0.0529912
0.0519507
0.0509416
0.0499732
0.0490497
0.0481829
0.12312
0.114055
0.106784
0.100751
0.0955923
0.0910261
0.0868374
0.0829042
0.0788829
0.0549304
0.0367656
0.0400554
0.0406147
0.0468783
0.0587924
0.0579199
0.0569925
0.0559219
0.054765
0.0535555
0.0523023
0.0510297
0.0497552
0.0484812
0.0472199
0.0459862
0.0447925
0.0436517
0.0425687
0.0415655
0.123119
0.114047
0.106774
0.100722
0.0955201
0.0908904
0.0865786
0.082392
0.0657684
0.0360213
0.0228048
0.0219505
0.027191
0.0269005
0.0333875
0.0434076
0.0446332
0.0435942
0.0425032
0.0413421
0.0401031
0.0388088
0.0374982
0.0362184
0.0349999
0.0316073
0.0282346
0.0254054
0.0233826
0.0210597
0.123117
0.11404
0.106758
0.100698
0.0954641
0.0907746
0.0863366
0.081842
0.0463569
0.0227166
0.0163559
0.0121934
0.0143598
0.0110112
0.0169546
0.0167176
0.017038
0.0174929
0.0175758
0.0174924
0.0175023
0.0177063
0.0179786
0.018296
0.0185969
0.0187935
0.0189345
0.0191239
0.0192895
0.0196343
0.123116
0.114033
0.106745
0.100673
0.0954212
0.0906822
0.0861458
0.0771539
0.034909
0.0139803
0.00788312
0.00477152
0.00769562
0.0161186
0.0285395
0.0298365
0.0311895
0.0325676
0.0340882
0.0358459
0.036809
0.0365172
0.0365948
0.0368203
0.0371316
0.0376427
0.0381752
0.0387988
0.0389635
0.0402614
0.123109
0.11402
0.106725
0.100643
0.0953779
0.0906105
0.0860211
0.0685028
0.0274568
0.0103394
0.00389338
0.00150832
0.00368217
0.0156095
0.0286338
0.0311765
0.0326984
0.0335171
0.0340834
0.0345812
0.0350129
0.0353521
0.0355888
0.035721
0.0357563
0.0357087
0.0355943
0.0354239
0.0352352
0.0350019
0.123102
0.11401
0.106712
0.10063
0.0953644
0.0906169
0.0860289
0.0685314
0.0274645
0.0103414
0.00362866
0.014916
0.0289433
0.0311708
0.0322989
0.0327181
0.0328508
0.0328767
0.0328364
0.0327497
0.032638
0.0325209
0.0324141
0.0323307
0.0322846
0.0322791
0.032335
0.0324162
0.123102
0.114025
0.106727
0.100663
0.0954086
0.0906881
0.0861499
0.0772596
0.0349599
0.0140007
0.0049998
0.00182003
0.00553816
0.00854948
0.0288019
0.0301694
0.0314888
0.0325594
0.0333985
0.0334597
0.03236
0.0317448
0.0313236
0.031056
0.030891
0.0308332
0.0308526
0.0310033
0.0310556
0.0319083
0.123101
0.114039
0.106752
0.1007
0.0954632
0.0907713
0.0863289
0.0818259
0.0464788
0.0227959
0.0112346
0.00858364
0.0094455
0.0110204
0.0172047
0.0169648
0.0176498
0.0191182
0.0200388
0.0203014
0.0205422
0.0207787
0.0210249
0.0212889
0.0215776
0.0218909
0.021732
0.0212712
0.0210465
0.020398
0.123108
0.114045
0.106773
0.100721
0.0955166
0.0908844
0.0865687
0.0823739
0.0659844
0.0361829
0.0229408
0.022109
0.0269588
0.025579
0.031988
0.0434486
0.042231
0.0410944
0.0400638
0.0391144
0.0382271
0.0373977
0.0366292
0.0359222
0.0352685
0.0346715
0.0341167
0.0336064
0.0331259
0.0326998
0.123119
0.114054
0.106783
0.100748
0.0955882
0.0910196
0.0868266
0.0828852
0.0788481
0.0551315
0.037028
0.0403971
0.0409058
0.0456581
0.0577844
0.0566876
0.0555571
0.0543828
0.0532141
0.052082
0.0509895
0.0499508
0.0489745
0.0480627
0.0472099
0.0464142
0.0456634
0.0449577
0.0442875
0.0436544
0.123123
0.114055
0.106793
0.100786
0.0956601
0.091152
0.0870688
0.0833157
0.0796178
0.0759568
0.0571822
0.0550851
0.0629155
0.064168
0.0626196
0.0615088
0.0604226
0.0593757
0.0583725
0.0574314
0.0565413
0.0557031
0.0549173
0.0541815
0.0534886
0.0528316
0.0522015
0.051594
0.0510031
0.0504268
0.123125
0.114055
0.10681
0.100822
0.0957244
0.0912696
0.087277
0.0836651
0.0801923
0.0768998
0.0737682
0.0709691
0.0684778
0.0664813
0.0649919
0.0638485
0.0627861
0.061799
0.0608477
0.0599389
0.0590658
0.0582289
0.0574281
0.0566652
0.0559359
0.0552367
0.054563
0.053913
0.053284
0.0526748
0.123121
0.114061
0.106826
0.10085
0.0957767
0.0913628
0.0874408
0.0839265
0.0806101
0.0775302
0.0746988
0.07215
0.0699145
0.0680465
0.0665641
0.0653633
0.0642607
0.0632556
0.0622997
0.0613945
0.0605353
0.0597196
0.058944
0.0582071
0.0575041
0.0568327
0.056188
0.0555679
0.0549703
0.0543924
0.123118
0.114067
0.106837
0.100871
0.095814
0.0914303
0.0875654
0.084103
0.0808852
0.077933
0.0752472
0.0728443
0.070724
0.0689282
0.0674499
0.0662139
0.0650992
0.0640736
0.0631101
0.0621986
0.061332
0.0605064
0.0597176
0.0589615
0.0582355
0.0575396
0.0568706
0.0562257
0.0556037
0.0550022
0.123119
0.11407
0.106843
0.100882
0.0958334
0.0914637
0.0876229
0.0841854
0.0810132
0.0781203
0.0755014
0.0731685
0.0711011
0.0693404
0.067866
0.0666168
0.0654951
0.0644609
0.0634917
0.0625748
0.0617033
0.0608744
0.0600837
0.0593274
0.0586022
0.0579086
0.0572438
0.0566034
0.0559858
0.0553879
0.134469
0.133881
0.133113
0.132198
0.131157
0.130014
0.128805
0.127443
0.12604
0.124608
0.123163
0.121723
0.120251
0.118861
0.117599
0.116456
0.115345
0.114215
0.113115
0.112032
0.110961
0.109893
0.108829
0.107773
0.106723
0.105689
0.104681
0.103697
0.102737
0.101811
0.134469
0.133881
0.133113
0.132196
0.131154
0.130006
0.128786
0.127409
0.125995
0.124541
0.123074
0.121625
0.120097
0.118685
0.117416
0.116272
0.115166
0.114037
0.112937
0.11185
0.110766
0.10968
0.108596
0.107514
0.106439
0.105382
0.104347
0.103334
0.102344
0.101385
0.13447
0.13388
0.133111
0.132193
0.131146
0.129987
0.128737
0.127357
0.125913
0.124414
0.122899
0.121406
0.119802
0.118341
0.117058
0.115921
0.114826
0.113703
0.112592
0.111479
0.110354
0.109221
0.108084
0.10695
0.105823
0.104719
0.103635
0.102575
0.101539
0.10054
0.13447
0.13388
0.13311
0.132188
0.131136
0.129964
0.128683
0.12728
0.125787
0.122332
0.0923367
0.0888101
0.106928
0.117667
0.116365
0.115253
0.114151
0.113016
0.111866
0.110689
0.109487
0.108263
0.107016
0.105769
0.104525
0.103298
0.10209
0.100906
0.0997495
0.0986354
0.13447
0.13388
0.133108
0.132183
0.131123
0.129937
0.128624
0.127184
0.125632
0.088792
0.0629544
0.060493
0.0711379
0.0877367
0.105007
0.113357
0.11226
0.111072
0.109812
0.108509
0.107165
0.105782
0.10437
0.102955
0.101541
0.100136
0.0987455
0.0973812
0.0960497
0.09477
0.13447
0.13388
0.133107
0.132177
0.131109
0.129907
0.128564
0.127079
0.100968
0.0605981
0.0400962
0.0432693
0.0469956
0.0554263
0.0699271
0.0919642
0.105995
0.104679
0.103176
0.101552
0.0998147
0.097999
0.0961361
0.0942667
0.0923999
0.0905538
0.0887412
0.0869745
0.0852658
0.0836538
0.13447
0.13388
0.133106
0.132173
0.131096
0.129877
0.128505
0.126982
0.0721597
0.0392615
0.0243925
0.0236846
0.0301807
0.0318611
0.0414179
0.0599566
0.0803626
0.0815106
0.0792598
0.0770039
0.074752
0.072513
0.0703059
0.0681351
0.0660098
0.0639487
0.0619693
0.0600927
0.0583277
0.0567061
0.13447
0.133879
0.133105
0.132171
0.131087
0.129856
0.128456
0.102545
0.0506554
0.0243512
0.0173776
0.012203
0.0195123
0.0162027
0.0197111
0.0266418
0.0264646
0.0256926
0.0250621
0.0245502
0.0241545
0.0238789
0.0237144
0.0236511
0.0236779
0.0237847
0.0239608
0.0241941
0.0244689
0.0247883
0.134469
0.133879
0.133103
0.132168
0.131083
0.129842
0.128432
0.0836316
0.0375249
0.0148286
0.00762118
0.00425886
0.0110514
0.0109013
0.0182704
0.0185313
0.0189521
0.0194859
0.0200804
0.0207261
0.0213663
0.0219331
0.0223845
0.0227464
0.0230705
0.0233567
0.023607
0.0238203
0.0240067
0.0241439
0.134469
0.133878
0.133102
0.132164
0.131076
0.129831
0.128422
0.0739624
0.0294005
0.0105922
0.00361832
0.00137916
0.0220668
0.0149648
0.0236782
0.0241961
0.0244329
0.0245086
0.0245262
0.0245471
0.0245783
0.0246151
0.0246528
0.0246899
0.0247277
0.0247668
0.0248081
0.0248504
0.0248995
0.0249402
0.134469
0.133878
0.133102
0.132163
0.131074
0.129828
0.128419
0.0740201
0.0294268
0.010594
0.00337201
0.012812
0.024811
0.0255165
0.0258551
0.0259528
0.025939
0.0258821
0.0258015
0.0257108
0.0256145
0.0255176
0.0254229
0.0253333
0.0252517
0.0251803
0.0251256
0.0250816
0.134469
0.133878
0.133101
0.132166
0.131079
0.129837
0.128425
0.083775
0.0376092
0.0148634
0.00477607
0.00178751
0.025919
0.0159213
0.01876
0.0190299
0.0192846
0.0194927
0.0196551
0.0197843
0.0198821
0.0199674
0.0200443
0.0201262
0.0202221
0.0203387
0.0204832
0.0206636
0.0208869
0.0211673
0.134469
0.133879
0.133103
0.132171
0.131085
0.129853
0.128451
0.102826
0.0508497
0.0244869
0.0112928
0.0080076
0.0130581
0.00968485
0.0191891
0.0261832
0.025721
0.0250812
0.0246348
0.0243169
0.0240964
0.0239435
0.0238564
0.0238199
0.0238239
0.0238614
0.0239232
0.0240097
0.0241115
0.0242382
0.134469
0.13388
0.133107
0.132173
0.131094
0.129875
0.128501
0.126972
0.072455
0.0395097
0.0246448
0.0242157
0.030577
0.0309307
0.0418892
0.0641541
0.0813342
0.0789514
0.0767696
0.0747819
0.0729671
0.0713001
0.0698001
0.0684231
0.067152
0.0659735
0.0648531
0.0637843
0.0627479
0.0617288
0.13447
0.13388
0.133107
0.132176
0.131108
0.129905
0.128559
0.12707
0.101429
0.0609025
0.0405003
0.0440485
0.0476683
0.0549557
0.0714639
0.0970718
0.104579
0.10314
0.101657
0.100169
0.0986777
0.0972034
0.0957625
0.0943833
0.0930542
0.0917689
0.0905052
0.0892805
0.0880892
0.086924
0.13447
0.13388
0.133107
0.132182
0.131122
0.129934
0.12862
0.127175
0.125615
0.0892403
0.0633871
0.0612987
0.0721293
0.0885267
0.108704
0.11263
0.111436
0.110188
0.108954
0.107757
0.106592
0.105455
0.104349
0.103288
0.102263
0.101274
0.100302
0.0993344
0.098379
0.0974256
0.13447
0.13388
0.133109
0.132187
0.131134
0.129961
0.128678
0.127271
0.12577
0.123014
0.0928572
0.0895652
0.107917
0.117419
0.116015
0.114803
0.113663
0.112496
0.111352
0.110232
0.109133
0.108053
0.106987
0.105949
0.104933
0.103941
0.102973
0.102014
0.10107
0.100134
0.134469
0.13388
0.133111
0.132192
0.131145
0.129984
0.128732
0.127348
0.125897
0.124388
0.122855
0.121335
0.11969
0.118174
0.116828
0.11563
0.114532
0.11339
0.112286
0.11121
0.110157
0.109127
0.108119
0.107133
0.106168
0.10523
0.104313
0.103414
0.102534
0.101664
0.134469
0.133881
0.133112
0.132195
0.131152
0.130003
0.128781
0.1274
0.125979
0.124516
0.123035
0.121566
0.120011
0.11856
0.117247
0.116062
0.114962
0.113813
0.112728
0.111674
0.110641
0.109627
0.108632
0.107654
0.10669
0.105749
0.104829
0.103925
0.103039
0.102169
0.134469
0.133881
0.133113
0.132197
0.131156
0.130011
0.1288
0.127434
0.126025
0.124584
0.123127
0.12167
0.120177
0.118758
0.117462
0.116288
0.115186
0.114042
0.112967
0.111922
0.110896
0.109889
0.1089
0.10793
0.106973
0.106035
0.105122
0.104226
0.103345
0.102483
0.134739
0.134632
0.134511
0.134371
0.13421
0.134027
0.133822
0.133591
0.133351
0.133107
0.132852
0.132558
0.132198
0.131803
0.131418
0.131047
0.130664
0.130262
0.12984
0.129404
0.128953
0.128485
0.128
0.127501
0.126989
0.126467
0.125937
0.125403
0.124868
0.124338
0.134739
0.134632
0.134511
0.134371
0.13421
0.134027
0.133822
0.133592
0.133357
0.133122
0.132885
0.132623
0.132261
0.131875
0.131495
0.131128
0.130745
0.13034
0.129913
0.129471
0.129013
0.128535
0.128039
0.127526
0.127
0.126462
0.125915
0.125365
0.124811
0.124261
0.134739
0.134632
0.134511
0.134371
0.13421
0.134027
0.133825
0.133595
0.133371
0.133163
0.13297
0.132769
0.132412
0.132042
0.131673
0.131311
0.130923
0.130508
0.130068
0.12961
0.12913
0.128625
0.1281
0.127556
0.126998
0.126425
0.125846
0.125262
0.124675
0.124093
0.134739
0.134632
0.134511
0.134371
0.13421
0.134027
0.133826
0.133607
0.133408
0.133253
0.105606
0.101653
0.121794
0.13217
0.131829
0.131474
0.131074
0.130635
0.130167
0.129674
0.129146
0.128586
0.128
0.127389
0.126757
0.126109
0.125452
0.124788
0.124118
0.123455
0.134739
0.134632
0.134511
0.134371
0.13421
0.134028
0.13383
0.133631
0.133478
0.10096
0.0732757
0.0696393
0.0824288
0.101924
0.123458
0.13076
0.130351
0.129872
0.129352
0.128787
0.128173
0.127517
0.126824
0.126099
0.125346
0.124574
0.123786
0.122987
0.12218
0.121379
0.134739
0.134632
0.134511
0.134371
0.134211
0.134031
0.133841
0.133674
0.114086
0.0702339
0.0480625
0.048262
0.0546748
0.0670464
0.083039
0.105817
0.126493
0.125909
0.125215
0.124408
0.123499
0.122508
0.121446
0.120328
0.119167
0.11798
0.116777
0.115567
0.114362
0.113185
0.134739
0.134633
0.134511
0.134371
0.134212
0.134035
0.13386
0.133747
0.0827862
0.0471917
0.0297096
0.0289295
0.0349478
0.0415174
0.0531216
0.0730763
0.104114
0.109843
0.10808
0.106214
0.104278
0.102315
0.100355
0.0984147
0.096514
0.0946591
0.0928581
0.0911203
0.0894531
0.0878729
0.134739
0.134633
0.134511
0.134371
0.134213
0.134041
0.133884
0.116338
0.0603086
0.0298593
0.0199777
0.0136885
0.021082
0.0247761
0.0253882
0.035289
0.0460267
0.0543161
0.0525611
0.0506783
0.0487602
0.0469654
0.0453504
0.0439374
0.0427184
0.0416842
0.0408237
0.0401244
0.0395663
0.0391609
0.134739
0.134633
0.134512
0.134372
0.134215
0.134046
0.133912
0.0959322
0.0454275
0.0193974
0.00946711
0.00500991
0.0102191
0.0125213
0.0146246
0.0152543
0.0158155
0.0163274
0.016821
0.0173101
0.0178111
0.0183273
0.0188614
0.0194049
0.0199579
0.0205135
0.0210639
0.0216028
0.0221357
0.0226399
0.134739
0.134633
0.134512
0.134373
0.134217
0.134051
0.133934
0.0858289
0.0371244
0.0141867
0.00488624
0.00249207
0.0229101
0.0227889
0.0240888
0.0236957
0.0233701
0.0230692
0.022814
0.0226185
0.0224736
0.0223752
0.0223208
0.022304
0.0223196
0.0223623
0.022427
0.0225083
0.0226041
0.0227034
0.134739
0.134633
0.134512
0.134372
0.134216
0.134051
0.133933
0.0859134
0.0371781
0.0141998
0.00445958
0.00168322
0.0318247
0.0384369
0.0254043
0.0253228
0.0251649
0.0249757
0.0247916
0.0246261
0.0244784
0.0243473
0.0242294
0.0241211
0.0240218
0.0239285
0.02384
0.0237548
0.0236743
0.0235938
0.134739
0.134633
0.134511
0.134372
0.134214
0.134046
0.133912
0.0961268
0.0455648
0.019485
0.0065759
0.00225099
0.0130475
0.0239116
0.0153915
0.0160755
0.016665
0.0171998
0.01771
0.018211
0.0187047
0.0191943
0.019679
0.0201584
0.0206194
0.0210629
0.0214811
0.0218757
0.0222479
0.0225845
0.134739
0.134633
0.134511
0.134371
0.134213
0.134041
0.133884
0.116714
0.0605809
0.0300967
0.013858
0.00966996
0.0158779
0.0144624
0.0253597
0.0359573
0.0474471
0.0533886
0.0515065
0.0498381
0.0483787
0.0471413
0.0461404
0.0453595
0.0447649
0.0443179
0.0439413
0.0435766
0.0432029
0.0428027
0.134739
0.134633
0.134511
0.134371
0.134211
0.134035
0.133859
0.133744
0.0832279
0.0475443
0.0301643
0.0299408
0.0360069
0.0412215
0.0541409
0.0768756
0.106938
0.109098
0.107187
0.105327
0.103537
0.101835
0.100247
0.0987862
0.0974568
0.0962503
0.0951164
0.0939972
0.0928851
0.0917672
0.134739
0.134632
0.134511
0.134371
0.13421
0.13403
0.13384
0.133671
0.114726
0.0707029
0.0486605
0.0494487
0.0559767
0.0679082
0.086269
0.111636
0.126223
0.125569
0.124827
0.124027
0.12318
0.122298
0.121393
0.12048
0.119566
0.118653
0.117738
0.11682
0.115899
0.114979
0.134739
0.134632
0.134511
0.134371
0.13421
0.134027
0.133829
0.133628
0.133473
0.101618
0.0739425
0.0709118
0.0842732
0.104591
0.129251
0.130592
0.130164
0.129669
0.129142
0.128595
0.128029
0.127449
0.12686
0.126264
0.125662
0.125058
0.124447
0.123827
0.123195
0.122554
0.134739
0.134632
0.134511
0.134371
0.134209
0.134026
0.133825
0.133604
0.133402
0.133243
0.106426
0.102932
0.12378
0.132101
0.131725
0.131346
0.130944
0.130495
0.130032
0.129553
0.129059
0.128552
0.128033
0.127505
0.126967
0.126422
0.125872
0.125314
0.124748
0.124176
0.134739
0.134632
0.134511
0.134371
0.134209
0.134026
0.133824
0.133593
0.133367
0.133154
0.132956
0.132748
0.132382
0.131997
0.131609
0.131228
0.130839
0.130415
0.129984
0.129542
0.129087
0.128621
0.128146
0.127662
0.127171
0.126671
0.126166
0.125657
0.125143
0.124624
0.134739
0.134632
0.134511
0.134371
0.134209
0.134026
0.133821
0.133589
0.133352
0.133114
0.132873
0.132607
0.132241
0.131845
0.131451
0.13107
0.130687
0.130283
0.129863
0.129434
0.128994
0.128543
0.128082
0.127611
0.127134
0.126647
0.126153
0.125656
0.125153
0.124649
0.134739
0.134632
0.134511
0.134371
0.134209
0.134027
0.133821
0.133588
0.133347
0.1331
0.132842
0.132545
0.132183
0.131782
0.131385
0.131003
0.130621
0.130222
0.129807
0.129384
0.12895
0.128506
0.128051
0.127588
0.127117
0.126638
0.126152
0.125661
0.125165
0.124668
0.134745
0.134656
0.134566
0.134476
0.134386
0.134296
0.134207
0.134126
0.134059
0.134011
0.133976
0.133926
0.133834
0.133715
0.133597
0.133483
0.133362
0.133231
0.13309
0.132939
0.13278
0.132614
0.132438
0.132255
0.132064
0.131865
0.13166
0.131448
0.131232
0.131014
0.134745
0.134656
0.134566
0.134476
0.134386
0.134297
0.134209
0.134131
0.134071
0.134036
0.134022
0.133998
0.133927
0.133824
0.133715
0.133607
0.13349
0.13336
0.133219
0.133069
0.13291
0.132742
0.132565
0.132379
0.132184
0.131982
0.131772
0.131555
0.131333
0.131109
0.134745
0.134656
0.134567
0.134477
0.134387
0.134298
0.134214
0.134142
0.134098
0.134095
0.134135
0.134169
0.134146
0.134075
0.133988
0.133892
0.133779
0.133649
0.133507
0.133353
0.133189
0.133015
0.13283
0.132635
0.132431
0.132219
0.131998
0.131769
0.131534
0.131298
0.134745
0.134656
0.134567
0.134477
0.134388
0.134301
0.134221
0.134162
0.134149
0.134209
0.125326
0.120843
0.134451
0.134434
0.134379
0.134296
0.134182
0.134045
0.133891
0.133723
0.133543
0.13335
0.133144
0.132925
0.132696
0.132456
0.132205
0.131946
0.131678
0.131408
0.134745
0.134656
0.134567
0.134477
0.134389
0.134304
0.134233
0.134196
0.134238
0.119528
0.089168
0.0843856
0.0989142
0.119855
0.134304
0.134256
0.134149
0.134003
0.133832
0.133642
0.133436
0.133209
0.132965
0.132704
0.132428
0.132137
0.131832
0.131515
0.131185
0.130848
0.134745
0.134656
0.134567
0.134478
0.134391
0.13431
0.13425
0.134249
0.133175
0.0861495
0.060398
0.057395
0.067201
0.0804579
0.0967569
0.120465
0.132452
0.132295
0.132083
0.13183
0.131535
0.131195
0.130815
0.130399
0.129949
0.129467
0.128959
0.128429
0.127879
0.127321
0.134745
0.134656
0.134567
0.134479
0.134393
0.134317
0.134273
0.134326
0.100468
0.059528
0.0387144
0.0420172
0.0455654
0.0547764
0.0676287
0.0809314
0.0992756
0.122294
0.125117
0.124539
0.123867
0.123095
0.122237
0.121311
0.12033
0.119307
0.118264
0.117207
0.116145
0.115094
0.134745
0.134656
0.134567
0.134479
0.134395
0.134324
0.134301
0.134423
0.0750778
0.0404179
0.0238111
0.0213333
0.0279878
0.0338171
0.0464048
0.0640786
0.0804543
0.0930398
0.0996114
0.0979851
0.0963544
0.0945171
0.0925377
0.0905292
0.0885554
0.0866951
0.0849902
0.0834469
0.0820431
0.0808048
0.134745
0.134656
0.134568
0.13448
0.134397
0.134331
0.134326
0.11583
0.0588421
0.0283267
0.0160141
0.0112883
0.0144445
0.0187026
0.0263889
0.0366597
0.0480836
0.0478939
0.0477584
0.0476794
0.0476303
0.0475983
0.0476272
0.0477007
0.0478128
0.0479546
0.0481338
0.0483338
0.0485118
0.048646
0.134745
0.134657
0.134568
0.134481
0.134398
0.134336
0.134344
0.105169
0.0497184
0.0223166
0.00982126
0.00665424
0.0112863
0.0162416
0.0210565
0.0215924
0.0220903
0.0225053
0.0228928
0.0232652
0.0236199
0.0239625
0.024312
0.0246585
0.0249947
0.0253232
0.0256387
0.025937
0.0262239
0.0264873
0.134745
0.134656
0.134568
0.13448
0.134398
0.134336
0.134344
0.105269
0.0497858
0.0223786
0.00929867
0.00634925
0.013852
0.015962
0.0215384
0.0219741
0.0223967
0.0227494
0.0230667
0.0233515
0.0236166
0.0238631
0.0241071
0.0243433
0.0245794
0.0248107
0.025041
0.0252687
0.0254978
0.0257282
0.134745
0.134656
0.134567
0.13448
0.134397
0.134331
0.134326
0.116097
0.0590392
0.0285118
0.0123314
0.00809943
0.0136299
0.0154046
0.0257852
0.0351506
0.0479494
0.0492252
0.0486552
0.0482077
0.0478506
0.0475656
0.0473489
0.0471904
0.0470904
0.0470324
0.0470215
0.0470546
0.047112
0.047145
0.134745
0.134656
0.134567
0.134479
0.134395
0.134324
0.1343
0.134421
0.0754044
0.0407765
0.0242755
0.0223989
0.0292824
0.0338802
0.0460848
0.0637533
0.0793983
0.0894918
0.0948263
0.0979744
0.0967838
0.0951592
0.0935857
0.0921002
0.0907284
0.0894784
0.0883073
0.0871781
0.0860669
0.0849102
0.134745
0.134656
0.134567
0.134479
0.134393
0.134316
0.134272
0.134324
0.101108
0.0599476
0.0394127
0.0437839
0.0469429
0.0552923
0.0688971
0.0822102
0.0976764
0.11423
0.125218
0.124618
0.123932
0.123189
0.122411
0.121618
0.120818
0.120012
0.119201
0.118381
0.117548
0.116697
0.134745
0.134656
0.134567
0.134478
0.134391
0.13431
0.134249
0.134247
0.133996
0.0868117
0.0611519
0.0590197
0.069091
0.0824485
0.100249
0.124988
0.132449
0.132285
0.13207
0.131816
0.131524
0.1312
0.130852
0.130483
0.130097
0.129692
0.129271
0.128831
0.128373
0.1279
0.134745
0.134656
0.134567
0.134477
0.134389
0.134304
0.134232
0.134194
0.134234
0.120417
0.0900742
0.0860885
0.101421
0.12383
0.134274
0.134212
0.1341
0.133956
0.133792
0.133612
0.133416
0.133207
0.132987
0.132757
0.132518
0.13227
0.132011
0.131742
0.131461
0.131172
0.134745
0.134656
0.134567
0.134477
0.134387
0.1343
0.134221
0.134161
0.134146
0.134204
0.126488
0.122636
0.134437
0.134411
0.134347
0.13426
0.134146
0.134013
0.133866
0.133707
0.133538
0.133358
0.133171
0.132975
0.132771
0.132559
0.132339
0.13211
0.131874
0.131631
0.134745
0.134656
0.134566
0.134477
0.134387
0.134298
0.134213
0.134141
0.134095
0.134091
0.134129
0.134161
0.134136
0.134063
0.133971
0.133872
0.133759
0.133633
0.133495
0.133348
0.133193
0.13303
0.132859
0.132681
0.132496
0.132304
0.132104
0.131898
0.131685
0.131468
0.134745
0.134656
0.134566
0.134476
0.134386
0.134296
0.134208
0.13413
0.134068
0.134032
0.134017
0.133992
0.133922
0.133818
0.133706
0.133596
0.133478
0.13335
0.133213
0.133068
0.132916
0.132757
0.13259
0.132416
0.132236
0.132049
0.131856
0.131655
0.131449
0.131239
0.134745
0.134656
0.134566
0.134476
0.134386
0.134295
0.134207
0.134125
0.134057
0.134008
0.133972
0.133922
0.133831
0.133713
0.133592
0.133476
0.133355
0.133226
0.133087
0.132942
0.132789
0.13263
0.132464
0.132291
0.132113
0.131927
0.131736
0.131538
0.131334
0.131127
0.134745
0.134657
0.134568
0.134481
0.134394
0.13431
0.134231
0.13416
0.134103
0.134065
0.134039
0.134006
0.133949
0.133874
0.1338
0.13373
0.133657
0.13358
0.133498
0.133412
0.133324
0.133233
0.133139
0.133043
0.132945
0.132845
0.132742
0.132637
0.132531
0.132425
0.134745
0.134657
0.134568
0.134481
0.134395
0.134311
0.134232
0.134164
0.134113
0.134085
0.134075
0.134062
0.134022
0.13396
0.133895
0.133831
0.133762
0.133687
0.133607
0.133524
0.133437
0.133347
0.133254
0.13316
0.133062
0.132962
0.13286
0.132756
0.132649
0.132543
0.134745
0.134657
0.134569
0.134481
0.134395
0.134312
0.134236
0.134173
0.134135
0.134131
0.134162
0.134196
0.134196
0.134164
0.134118
0.134066