/*--------------------------------*- C++ -*----------------------------------*\
| =========                 |                                                 |
| \\      /  F ield         | OpenFOAM: The Open Source CFD Toolbox           |
|  \\    /   O peration     | Version:  2512                                  |
|   \\  /    A nd           | Website:  www.openfoam.com                      |
|    \\/     M anipulation  |                                                 |
\*---------------------------------------------------------------------------*/
FoamFile
{
    version     2.0;
    format      ascii;
    arch        "LSB;label=32;scalar=64";
    class       volScalarField;
    location    "300";
    object      omega;
}
// * * * * * * * * * * * * * * * * * * * * * * * * * * * * * * * * * * * * * //

dimensions      [0 0 -1 0 0 0 0];

internalField   nonuniform List<scalar> 
90398
(
16.0849
15.8157
15.5571
15.3102
15.0739
14.8495
14.6404
14.4228
14.2285
14.0393
13.8611
13.6972
13.5343
13.3725
13.2207
13.0728
12.9289
12.7896
12.6539
12.5217
12.3932
12.2683
12.1469
12.0287
11.9138
11.8021
11.6933
11.5873
11.4841
11.3835
16.085
15.8158
15.5576
15.311
15.0752
14.8508
14.6408
14.4243
14.23
14.0401
13.8647
13.7016
13.5391
13.3779
13.2264
13.0787
12.9349
12.796
12.6606
12.5286
12.4003
12.2756
12.1545
12.0366
11.922
11.8106
11.7022
11.5966
11.4938
11.3937
16.085
15.816
15.5582
15.312
15.0761
14.8515
14.6387
14.4271
14.2342
14.0452
13.8711
13.7099
13.549
13.3887
13.2384
13.0916
12.9487
12.8108
12.6759
12.5447
12.4174
12.2936
12.1733
12.0564
11.9428
11.8324
11.7249
11.6202
11.5184
11.4193
16.085
15.8161
15.559
15.3125
15.0764
14.8513
14.6399
14.4343
14.2384
14.0513
13.881
13.7217
13.5638
13.407
13.259
13.1138
12.9724
12.8364
12.7031
12.5735
12.4477
12.3256
12.2071
12.092
11.9802
11.8715
11.7657
11.6628
11.5625
11.465
16.0851
15.8161
15.5596
15.3128
15.0758
14.8492
14.639
14.4374
14.2425
14.0597
13.8941
13.7134
13.5616
13.4364
13.2929
13.1515
13.0139
12.8822
12.753
12.6274
12.5055
12.3872
12.2724
12.161
12.0529
11.9479
11.8458
11.7465
11.6499
11.5559
16.0852
15.8162
15.5597
15.3137
15.0772
14.8459
14.6236
14.4364
14.2468
14.0457
13.8973
13.7571
13.6075
13.4687
13.333
13.1984
13.0674
12.9427
12.8205
12.7022
12.5878
12.4772
12.37
12.2661
12.1653
12.0674
11.9721
11.8793
11.7889
11.7009
16.0851
15.8162
15.5591
15.3131
15.078
14.8465
14.6226
14.4352
14.2461
14.0955
14.0313
13.9181
13.7614
13.59
13.4546
13.3245
13.201
13.0832
12.9686
12.858
12.7516
12.6496
12.5512
12.4564
12.3648
12.2761
12.19
12.1061
12.0241
11.9442
16.0852
15.8159
15.556
15.3055
15.073
14.8508
14.6267
14.4269
14.2553
28.1674
28.1235
29.076
28.1814
27.2384
14.8292
14.5237
14.2899
14.0848
13.9038
13.7408
13.5927
13.457
13.3315
13.2147
13.1055
13.0029
12.906
12.814
12.7266
12.6433
16.0851
15.8158
15.5552
15.301
15.0647
14.8484
14.6353
14.4374
28.5136
27.8981
40.3892
60.677
54.7284
45.8173
22.2322
21.1181
20.4136
19.7934
19.2459
18.7542
18.3056
17.8927
17.5118
17.1604
16.8374
16.5416
16.2723
16.0286
15.811
15.6168
16.0851
15.8162
15.558
15.3061
15.066
14.8487
14.6433
14.4464
28.5271
56.0329
165.161
269.01
229.899
183.168
42.1894
38.7242
35.9195
33.5345
31.5031
29.7505
28.2235
26.8872
25.7126
24.6769
23.7614
22.9508
22.2321
21.5942
21.0278
20.5268
16.0851
15.8162
15.558
15.306
15.066
14.8486
14.6432
14.4459
28.5304
56.132
280.819
280.708
236.399
48.3683
44.9356
41.9156
39.3151
37.0705
35.0971
33.3359
31.7531
30.3213
29.0206
27.8376
26.7616
25.7875
24.9115
24.1269
23.4337
16.0851
15.8158
15.5552
15.301
15.0647
14.8483
14.6349
14.4368
28.514
27.985
90.2452
214.976
219.459
188.716
33.0161
32.5848
32.2652
31.9451
31.6218
31.2721
30.8836
30.4558
29.9868
29.4761
28.9244
28.3385
27.7267
27.1019
26.4796
25.8632
16.0852
15.8159
15.556
15.3055
15.0729
14.8505
14.6261
14.4267
14.2529
28.1425
28.5697
30.7239
30.0271
29.1341
14.1151
14.0299
14.0548
14.3215
14.8309
15.484
16.1945
16.9148
17.6193
18.2874
18.9085
19.4772
19.9884
20.445
20.8241
21.185
16.0851
15.8162
15.5591
15.313
15.0778
14.8462
14.622
14.434
14.2447
14.0873
13.9582
13.8127
13.6662
13.499
13.3505
13.1964
13.0446
12.9013
12.7793
12.6967
12.6625
12.6828
12.76
12.8926
13.0752
13.2993
13.5568
13.8404
14.14
14.461
16.0852
15.8162
15.5597
15.3137
15.0771
14.8456
14.623
14.4352
14.2453
14.0433
13.8877
13.7441
13.5949
13.4477
13.2978
13.1437
12.9898
12.8412
12.6952
12.5546
12.421
12.2959
12.1811
12.0787
11.9911
11.9199
11.8667
11.8317
11.8169
11.8189
16.0851
15.8161
15.5596
15.3127
15.0756
14.8489
14.6384
14.4364
14.2405
14.0562
13.8898
13.7055
13.5499
13.4182
13.2649
13.1108
12.9589
12.812
12.6677
12.5275
12.3917
12.2598
12.1321
12.0084
11.8889
11.7739
11.6633
11.5574
11.4567
11.3614
16.085
15.8161
15.559
15.3125
15.0762
14.851
14.6394
14.4334
14.2368
14.0485
13.8762
13.7146
13.5538
13.3923
13.2378
13.0844
12.9338
12.788
12.6451
12.5059
12.3708
12.2393
12.1115
11.9872
11.8662
11.7487
11.6343
11.5229
11.4146
11.3092
16.085
15.816
15.5582
15.312
15.076
14.8512
14.6383
14.4264
14.2329
14.043
13.8674
13.7043
13.5409
13.3769
13.2217
13.0688
12.9192
12.7742
12.6321
12.4939
12.3595
12.2288
12.1016
11.9779
11.8575
11.7404
11.6263
11.5152
11.407
11.3017
16.085
15.8158
15.5576
15.311
15.0751
14.8506
14.6405
14.4238
14.229
14.0383
13.8615
13.6967
13.5319
13.3675
13.2119
13.0594
12.9102
12.7656
12.6245
12.4868
12.353
12.2228
12.0961
11.9728
11.8528
11.736
11.6224
11.5117
11.4038
11.2989
16.0849
15.8156
15.5571
15.3101
15.0739
14.8494
14.6403
14.4225
14.2277
14.0377
13.8583
13.6927
13.5276
13.3627
13.207
13.0546
12.9058
12.7614
12.6204
12.4831
12.3495
12.2195
12.0931
11.9699
11.8501
11.7336
11.6202
11.5097
11.4021
11.2974
1.93946
2.0811
2.20768
2.32211
2.42648
2.52223
2.61352
2.69804
2.77834
2.85309
2.92089
2.97737
3.02221
3.05792
3.08967
3.11791
3.14289
3.16678
3.18778
3.20657
3.22348
3.23865
3.2522
3.26428
3.275
3.28447
3.29264
3.29968
3.30567
3.3107
1.93947
2.08113
2.20779
2.32231
2.42663
2.52298
2.61575
2.70186
2.78454
2.86208
2.93329
2.99196
3.03695
3.07204
3.10291
3.13038
3.15451
3.1776
3.19789
3.21604
3.23237
3.24699
3.26004
3.27162
3.28189
3.29084
3.29854
3.30513
3.31068
3.31527
1.93949
2.08123
2.208
2.32276
2.42714
2.52466
2.62008
2.70962
2.79746
2.88234
2.96156
3.02535
3.07038
3.10385
3.13269
3.15821
3.18085
3.20186
3.2204
3.23698
3.25183
3.26507
3.27683
3.2872
3.29633
3.30414
3.31078
3.31638
3.32099
3.32467
1.93951
2.08137
2.20831
2.32346
2.42831
2.52728
2.62641
2.72177
2.81872
2.9196
3.01653
3.08768
3.13473
3.16538
3.19032
3.2119
3.23116
3.24862
3.26407
3.27781
3.29
3.30075
3.31015
3.31831
3.32527
3.33108
3.33587
3.33974
3.34274
3.34492
1.93953
2.08153
2.20875
2.32439
2.42961
2.52933
2.63379
2.73867
2.85325
2.98779
3.11705
3.21055
3.25748
3.28353
3.30178
3.31626
3.3288
3.33957
3.34886
3.35699
3.36404
3.36998
3.37494
3.37885
3.38177
3.38381
3.38507
3.38561
3.38549
3.38476
1.93958
2.08169
2.20915
2.3254
2.43176
2.52852
2.63847
2.76191
2.90872
3.09448
3.30406
3.42382
3.47121
3.49235
3.49892
3.50185
3.50411
3.50493
3.50479
3.50417
3.50312
3.50162
3.49982
3.49747
3.49477
3.49175
3.48847
3.48496
3.48122
3.4773
1.93948
2.08168
2.2086
2.32499
2.43474
2.5327
2.64152
2.79374
2.98739
3.31437
3.8101
4.05113
4.0952
4.0769
4.06188
4.04584
4.03429
4.02393
4.01317
4.00072
3.98654
3.97229
3.95824
3.94432
3.93062
3.9172
3.90414
3.89156
3.87951
3.86817
1.93932
2.08102
2.20497
2.31868
2.43667
2.54383
2.65506
2.83001
3.13219
3.62101
5.65574
7.70248
7.9455
7.49284
8.37747
8.53152
8.59513
8.55689
8.43229
8.23029
7.98991
7.75852
7.5435
7.34325
7.15661
6.98291
6.82161
6.6725
6.53582
6.41211
1.93929
2.08085
2.20475
2.31568
2.43351
2.55427
2.68008
2.8803
3.24343
5.08807
19.9627
32.7891
30.8693
23.3277
61.2313
54.6173
49.1498
44.5176
40.6373
37.3157
34.4208
31.87
29.6065
27.5881
25.7838
24.1698
22.7275
21.4413
20.2972
19.289
1.9393
2.08136
2.20702
2.31749
2.42906
2.55565
2.6939
2.91214
3.38753
6.28119
114.739
405.322
449.658
192.198
139.233
103.717
83.716
70.873
61.957
55.3677
50.2593
46.1557
42.7563
39.8662
37.3598
35.1542
33.1942
31.4359
29.8622
28.4303
1.93929
2.08134
2.20698
2.31746
2.42893
2.55532
2.69268
2.90741
3.40541
7.75601
605.792
140.497
102.982
81.7441
67.9702
58.1939
50.879
45.2354
40.8153
37.3283
34.5748
32.405
30.693
29.3336
28.2262
27.3164
26.529
1.93928
2.08081
2.20471
2.31563
2.4332
2.55334
2.67721
2.87005
3.25348
5.85127
34.541
133.488
196.758
174.996
50.6399
48.7849
46.7317
44.9504
43.4682
42.1591
40.9384
39.735
38.494
37.1549
35.6999
34.1494
32.5472
30.9333
29.3977
27.8521
1.9393
2.08095
2.2049
2.31844
2.43607
2.54239
2.65118
2.82093
3.08287
3.70133
6.03935
7.66504
7.92007
8.00458
6.61191
7.38866
8.14248
8.95385
9.94081
11.0387
12.1991
13.4321
14.7468
16.1627
17.6305
19.0933
20.4875
21.755
22.8635
23.773
1.93946
2.08159
2.2084
2.32459
2.43393
2.53098
2.63736
2.78243
2.95732
3.20791
3.4895
3.61915
3.6787
3.71112
3.7497
3.79645
3.85438
3.92673
4.04416
4.21878
4.44912
4.73558
5.07975
5.48854
5.9643
6.49923
7.09355
7.75042
8.46902
9.27822
1.93955
2.08158
2.20891
2.32494
2.43088
2.52676
2.63473
2.75337
2.89123
3.04893
3.19794
3.28071
3.33618
3.37403
3.40111
3.42794
3.45672
3.48846
3.52907
3.58023
3.64171
3.71343
3.7965
3.89212
4.0015
4.12502
4.2639
4.41777
4.59086
4.78009
1.93949
2.0814
2.20849
2.3239
2.42871
2.52766
2.63057
2.7322
2.84005
2.96031
3.07169
3.14746
3.19306
3.22934
3.25997
3.28832
3.31633
3.34412
3.37212
3.40304
3.43786
3.47592
3.51712
3.56136
3.60854
3.65848
3.71121
3.76642
3.82452
3.88563
1.93947
2.08124
2.20803
2.32296
2.42742
2.52573
2.62367
2.71682
2.80971
2.9034
2.98976
3.05457
3.1021
3.1399
3.173
3.20351
3.2327
3.26117
3.28977
3.32019
3.35233
3.38552
3.41944
3.4539
3.48871
3.52363
3.55855
3.59321
3.6276
3.66178
1.93944
2.08109
2.20771
2.32225
2.42627
2.52323
2.6177
2.70568
2.79099
2.87201
2.94655
3.00764
3.05382
3.09222
3.12662
3.15821
3.18766
3.21609
3.24326
3.27071
3.29848
3.32622
3.35383
3.38124
3.40847
3.43533
3.46178
3.48772
3.51303
3.53785
1.93943
2.08098
2.20749
2.32179
2.42578
2.52162
2.61361
2.69853
2.77948
2.85471
2.92352
2.98122
3.0279
3.06687
3.10205
3.13418
3.1635
3.19192
3.21872
3.24492
3.27096
3.29661
3.32177
3.34643
3.37059
3.39407
3.4168
3.4387
3.45971
3.4799
1.93941
2.08096
2.20738
2.3216
2.42565
2.52092
2.61152
2.69504
2.774
2.84712
2.91349
2.9698
3.01668
3.05587
3.09144
3.12384
3.15348
3.18208
3.20896
3.23528
3.26112
3.28629
3.31073
3.33445
3.35741
3.37953
3.40067
3.42082
3.43994
3.45807
1.77771
1.77825
1.7811
1.78584
1.79226
1.80014
1.80949
1.82029
1.83252
1.84578
1.85925
1.87104
1.88138
1.89024
1.89888
1.90717
1.91498
1.92269
1.93012
1.9372
1.94399
1.9505
1.95672
1.96266
1.96837
1.97373
1.97886
1.9837
1.98826
1.99254
1.77771
1.77826
1.78111
1.78585
1.79234
1.8003
1.80984
1.82099
1.83384
1.84804
1.86265
1.87503
1.88619
1.8952
1.90385
1.91208
1.91981
1.92743
1.93473
1.9417
1.94838
1.95478
1.96089
1.96674
1.97228
1.97755
1.98254
1.98723
1.99166
1.99579
1.77771
1.77826
1.78113
1.78588
1.79249
1.80064
1.81056
1.82248
1.83674
1.85319
1.87047
1.88479
1.8972
1.9066
1.91528
1.92339
1.93082
1.93833
1.94538
1.95209
1.95851
1.96463
1.97049
1.97607
1.98131
1.98632
1.99101
1.99543
1.99956
2.00341
1.77771
1.77827
1.78116
1.78595
1.79271
1.80113
1.81169
1.82497
1.84194
1.86286
1.88538
1.9036
1.91862
1.9289
1.93771
1.94555
1.9527
1.95976
1.96638
1.97265
1.97861
1.98427
1.98969
1.99474
1.99953
2.00406
2.00828
2.01222
2.0159
2.0193
1.77771
1.77828
1.78119
1.78604
1.7925
1.80189
1.81338
1.82889
1.85078
1.87901
1.91224
1.93632
1.95612
1.96858
1.97819
1.98591
1.99269
1.99913
2.00519
2.01094
2.01639
2.02157
2.02642
2.03094
2.03521
2.03917
2.04282
2.0462
2.0493
2.05213
1.77772
1.77829
1.78121
1.78615
1.79246
1.80273
1.81551
1.83462
1.86344
1.91149
1.97851
2.02044
2.04638
2.06006
2.06932
2.07767
2.08492
2.09169
2.09815
2.10445
2.11061
2.1165
2.12197
2.12716
2.13191
2.1362
2.14004
2.14349
2.14656
2.1493
1.77772
1.77829
1.78113
1.78606
1.79299
1.80318
1.81833
1.84212
1.88787
1.99282
2.15935
2.26905
2.31964
2.33605
2.35894
2.39766
2.43553
2.47016
2.5013
2.52909
2.55299
2.57285
2.58836
2.59928
2.60504
2.60598
2.60415
2.60128
2.59785
2.59424
1.77771
1.77826
1.78113
1.78605
1.79284
1.80382
1.82179
1.85175
1.93639
2.21733
2.43086
2.90235
3.17264
3.28422
5.8275
6.4708
6.8168
6.9792
7.02542
6.99543
6.91065
6.78505
6.63221
6.45613
6.26042
6.05419
5.85471
5.67206
5.50668
5.35952
1.77771
1.77824
1.78103
1.78634
1.79322
1.80472
1.8246
1.86435
1.93796
2.41913
4.5553
7.53582
25.3036
32.9407
63.994
55.2113
48.6499
43.4316
39.1873
35.6549
32.6074
29.9753
27.6673
25.6314
23.8301
22.2331
20.8113
19.5435
18.4185
17.4313
1.77772
1.77829
1.78097
1.78593
1.79322
1.80515
1.8254
1.87473
1.98554
2.70593
21.0084
626.214
457.068
374.095
149.983
112.323
89.9252
75.2087
64.7695
57.0343
51.0464
46.2812
42.3961
39.1616
36.4223
34.0685
32.0193
30.2117
28.5974
27.1417
1.77772
1.77828
1.78097
1.78592
1.7932
1.80509
1.82521
1.87338
1.99808
3.00362
264.535
252.984
146.347
109.357
87.652
73.6002
63.7926
56.5789
51.0311
46.659
43.1123
40.1736
37.7038
35.6065
33.8104
32.2531
30.8914
29.657
1.77771
1.77824
1.78103
1.78632
1.79317
1.80454
1.82395
1.86161
1.94531
2.59936
5.82479
319.221
540.456
346.414
67.7071
59.9469
53.8522
49.0634
45.3326
42.3878
40.044
38.1657
36.6772
35.4695
34.471
33.6045
32.8132
32.0519
31.3036
30.548
1.77771
1.77825
1.78111
1.78601
1.79275
1.80357
1.82098
1.84927
1.92137
2.13096
2.44993
3.68383
4.12175
4.31634
5.23217
6.27655
7.0166
7.5849
8.0633
8.51197
8.95683
9.43164
9.94952
10.533
11.191
11.9163
12.7018
13.5326
14.3947
15.2901
1.77771
1.77829
1.78111
1.78602
1.79288
1.8029
1.81754
1.84011
1.88005
1.96021
2.07972
2.16493
2.20726
2.22916
2.26274
2.3134
2.37027
2.43368
2.50446
2.58631
2.68567
2.80775
2.95115
3.11845
3.31095
3.53415
3.8019
4.11263
4.46334
4.83226
1.77771
1.77828
1.78119
1.78609
1.79234
1.80246
1.81483
1.83282
1.85929
1.89872
1.94983
1.981
2.00463
2.02165
2.03606
2.04948
2.06329
2.07948
2.09893
2.12228
2.15041
2.1837
2.22256
2.26705
2.3178
2.37581
2.44284
2.51853
2.60341
2.69465
1.77771
1.77827
1.78117
1.78599
1.79238
1.80163
1.81282
1.82758
1.84771
1.87264
1.90076
1.9208
1.93994
1.95406
1.96601
1.97666
1.9871
1.99833
2.01096
2.02525
2.04136
2.05934
2.07926
2.10097
2.1246
2.14996
2.17732
2.20675
2.23806
2.27115
1.77771
1.77826
1.78113
1.78589
1.79259
1.8009
1.81123
1.82401
1.83993
1.8589
1.87928
1.89535
1.91008
1.92154
1.93198
1.94185
1.95147
1.96166
1.97256
1.98442
1.9973
2.01115
2.02603
2.04174
2.05826
2.07547
2.09323
2.11162
2.13051
2.14989
1.77771
1.77825
1.7811
1.78582
1.79238
1.80043
1.81017
1.82174
1.83536
1.85071
1.86664
1.88008
1.8926
1.90301
1.91297
1.9226
1.93185
1.94168
1.9517
1.96222
1.97333
1.98497
1.99712
2.00975
2.0228
2.03611
2.04969
2.06345
2.0773
2.09136
1.77771
1.77824
1.78108
1.78579
1.79223
1.80011
1.80949
1.82037
1.83278
1.84631
1.86016
1.87218
1.88369
1.89363
1.90337
1.91287
1.92206
1.93193
1.9415
1.95131
1.96148
1.97201
1.98283
1.99396
2.00538
2.01691
2.0285
2.04014
2.05174
2.0633
1.77771
1.77824
1.78107
1.78579
1.79216
1.79996
1.80918
1.81976
1.83164
1.84441
1.85739
1.86905
1.8799
1.88966
1.89932
1.90877
1.9179
1.92782
1.93734
1.947
1.95696
1.96718
1.97763
1.98825
1.99909
2.01001
2.02085
2.03164
2.04233
2.05283
1.77423
1.76859
1.76319
1.75805
1.75323
1.74881
1.74483
1.74144
1.73875
1.73674
1.73503
1.73305
1.73066
1.72825
1.72607
1.72398
1.72194
1.71995
1.71809
1.71631
1.7146
1.71297
1.71141
1.70991
1.70847
1.70708
1.70572
1.7044
1.70312
1.70187
1.77423
1.76859
1.76319
1.75806
1.75324
1.74884
1.74491
1.74162
1.73914
1.73747
1.73623
1.73451
1.73259
1.73036
1.72828
1.72623
1.72421
1.72222
1.72038
1.71861
1.7169
1.71527
1.71371
1.71221
1.71077
1.70937
1.70799
1.70666
1.70536
1.70408
1.77423
1.76859
1.7632
1.75806
1.75327
1.7489
1.74508
1.74203
1.74003
1.73924
1.73917
1.73825
1.73734
1.73555
1.73371
1.73176
1.72978
1.72783
1.72601
1.72424
1.72254
1.72091
1.71935
1.71784
1.71639
1.71496
1.71357
1.71221
1.71087
1.70955
1.77423
1.7686
1.7632
1.75808
1.75331
1.74901
1.74536
1.74275
1.74173
1.74279
1.7452
1.7467
1.74703
1.74615
1.74478
1.74301
1.74108
1.73923
1.73745
1.73572
1.73404
1.73242
1.73086
1.72936
1.7279
1.72645
1.72506
1.72368
1.72231
1.72095
1.77423
1.7686
1.76321
1.75809
1.75335
1.74916
1.7458
1.74397
1.74482
1.74932
1.75695
1.76208
1.76591
1.76693
1.76652
1.76508
1.76321
1.76153
1.7599
1.75831
1.7568
1.75535
1.75396
1.75262
1.75131
1.75003
1.74878
1.74753
1.74627
1.74502
1.77423
1.7686
1.76322
1.75812
1.7534
1.74937
1.74647
1.74596
1.75
1.76382
1.78611
1.80341
1.81302
1.81695
1.81818
1.81788
1.81683
1.81596
1.81524
1.81472
1.81438
1.8142
1.81413
1.81407
1.81399
1.8139
1.81374
1.81349
1.81316
1.81277
1.77423
1.7686
1.76322
1.75814
1.75347
1.74965
1.74741
1.74895
1.76062
1.79912
1.86505
1.92207
1.95139
1.96234
1.96816
1.97748
1.98716
1.99771
2.00867
2.01982
2.03076
2.04108
2.05017
2.05758
2.06303
2.06663
2.06886
2.07038
2.07148
2.07226
1.77423
1.7686
1.76322
1.75816
1.75354
1.74994
1.74859
1.7532
1.78137
1.88409
1.9683
2.20864
2.36794
2.429
2.71088
2.85142
2.98658
3.10953
3.22018
3.31724
3.39862
3.46528
3.51621
3.54654
3.55591
3.54655
3.52619
3.50209
3.47633
3.45054
1.77423
1.76861
1.76323
1.75817
1.75364
1.75023
1.74975
1.75895
1.81088
2.06161
2.36368
3.80125
5.62121
5.97792
11.9667
12.3971
12.7746
13.0509
13.2866
13.4425
13.5054
13.4728
13.3536
13.1694
12.9289
12.6447
12.328
11.9882
11.6353
11.2738
1.77424
1.76862
1.76325
1.75818
1.75366
1.75029
1.75057
1.76388
1.84367
2.04844
3.78356
153.304
355.732
142.036
59.1206
54.4396
50.199
46.4682
43.1974
40.3255
37.7114
35.3237
33.1627
31.1843
29.3704
27.7066
26.1817
24.7851
23.5065
22.3382
1.77424
1.76862
1.76325
1.75818
1.75365
1.75027
1.7505
1.76334
1.83987
2.0871
4.22474
359.067
626.98
343.702
91.6649
77.7477
67.317
59.2149
52.8
47.619
43.3468
39.8088
36.8311
34.2877
32.1054
30.2032
28.5257
27.0258
25.6654
24.4083
1.77423
1.76861
1.76322
1.75817
1.75362
1.75018
1.74954
1.7579
1.80491
2.02252
2.65363
86.7917
451.516
185.398
20.1846
20.2425
20.5019
20.791
21.1042
21.3866
21.6031
21.7323
21.7772
21.7405
21.6312
21.4531
21.2186
20.9311
20.6011
20.2158
1.77423
1.7686
1.76321
1.75815
1.75351
1.74987
1.74833
1.75224
1.77647
1.86197
2.00259
2.69231
3.01133
3.10286
2.85853
3.13544
3.40117
3.66336
3.93703
4.22182
4.51691
4.82298
5.14152
5.47477
5.82343
6.18848
6.56915
6.96381
7.37619
7.78839
1.77423
1.7686
1.76322
1.75813
1.75344
1.74957
1.74718
1.74824
1.75788
1.78904
1.84557
1.89737
1.92278
1.93133
1.94016
1.9559
1.97448
1.99718
2.02462
2.05726
2.09553
2.13991
2.19067
2.24834
2.31367
2.38809
2.47332
2.56989
2.67845
2.7986
1.77423
1.7686
1.76321
1.75811
1.75337
1.74931
1.74628
1.7454
1.74851
1.7594
1.77753
1.79159
1.79979
1.8035
1.80519
1.80553
1.80567
1.80673
1.80921
1.81339
1.81944
1.82751
1.83786
1.85074
1.86622
1.88442
1.90554
1.92965
1.957
1.98727
1.77422
1.76859
1.7632
1.75808
1.75333
1.7491
1.74565
1.74358
1.74383
1.74715
1.75292
1.75675
1.76007
1.76101
1.76078
1.75971
1.7584
1.75757
1.75735
1.75791
1.75933
1.76166
1.76497
1.76932
1.77474
1.78119
1.78871
1.79728
1.80691
1.8175
1.77422
1.76859
1.76319
1.75807
1.75329
1.74896
1.74525
1.74248
1.7411
1.74144
1.74295
1.74366
1.74365
1.74279
1.74155
1.74004
1.73849
1.73728
1.73643
1.73606
1.73621
1.73692
1.73821
1.74007
1.74253
1.74556
1.74911
1.75316
1.75771
1.7627
1.77422
1.76859
1.76319
1.75805
1.75325
1.74886
1.74498
1.74182
1.7396
1.73839
1.73777
1.73646
1.73541
1.7337
1.73201
1.73029
1.72862
1.72725
1.72611
1.72529
1.72485
1.72482
1.72518
1.72593
1.72705
1.72858
1.73042
1.73257
1.73501
1.73772
1.77422
1.76859
1.76319
1.75805
1.75322
1.7488
1.74483
1.74146
1.73881
1.73687
1.73529
1.73336
1.73143
1.72934
1.72744
1.7256
1.72386
1.72227
1.72101
1.71998
1.71926
1.71886
1.71878
1.71899
1.71949
1.72029
1.72135
1.72262
1.7241
1.72575
1.77422
1.76859
1.76318
1.75804
1.75321
1.74877
1.74476
1.7413
1.73848
1.73624
1.73429
1.73217
1.72984
1.72759
1.72559
1.72371
1.72193
1.72034
1.71904
1.71796
1.71716
1.71665
1.71642
1.71646
1.71676
1.71729
1.71805
1.71899
1.72008
1.72131
1.77415
1.7683
1.7625
1.75675
1.75108
1.74552
1.74012
1.73495
1.7301
1.72555
1.72111
1.71648
1.71163
1.70682
1.70211
1.69744
1.69277
1.68812
1.68356
1.67905
1.6746
1.67021
1.6659
1.66164
1.65746
1.65333
1.64926
1.64526
1.64131
1.63745
1.77415
1.7683
1.7625
1.75675
1.75109
1.74554
1.74016
1.73504
1.73029
1.72593
1.72174
1.71735
1.7127
1.70801
1.70338
1.69874
1.6941
1.68946
1.68492
1.68043
1.67599
1.67162
1.66732
1.66309
1.65892
1.6548
1.65075
1.64675
1.64282
1.63897
1.77415
1.7683
1.7625
1.75676
1.7511
1.74557
1.74024
1.73525
1.73076
1.72686
1.72331
1.71954
1.71535
1.71099
1.70655
1.70201
1.69742
1.69284
1.68834
1.68389
1.67949
1.67516
1.6709
1.66671
1.66257
1.65849
1.65446
1.65049
1.64659
1.64276
1.77415
1.7683
1.7625
1.75676
1.75111
1.74562
1.74039
1.73563
1.73165
1.72874
1.72659
1.72413
1.72092
1.71721
1.71315
1.70878
1.7043
1.6998
1.6954
1.69104
1.68672
1.68247
1.67829
1.67418
1.67012
1.66612
1.66217
1.65828
1.65443
1.65066
1.77415
1.7683
1.76251
1.75677
1.75114
1.7457
1.74062
1.73627
1.73328
1.73236
1.73322
1.73351
1.73227
1.7299
1.72655
1.72248
1.71813
1.71385
1.70963
1.70545
1.70131
1.69725
1.69325
1.68932
1.68545
1.68164
1.67788
1.67418
1.67052
1.66692
1.77414
1.7683
1.76251
1.75678
1.75117
1.74581
1.74097
1.73732
1.73616
1.73967
1.74783
1.75478
1.75784
1.75819
1.75634
1.75295
1.74897
1.74518
1.74144
1.73781
1.73431
1.73094
1.72769
1.72456
1.72153
1.71859
1.71572
1.7129
1.71011
1.70736
1.77415
1.76829
1.76251
1.7568
1.75122
1.74595
1.74146
1.73897
1.74136
1.75612
1.78315
1.80525
1.81885
1.82473
1.82517
1.82435
1.82304
1.82229
1.82181
1.82177
1.82219
1.82299
1.82409
1.8255
1.82702
1.82849
1.82984
1.83099
1.8319
1.83262
1.77415
1.76831
1.76251
1.7568
1.75126
1.74612
1.7421
1.74124
1.75096
1.78905
1.87235
1.95696
2.0013
2.01865
2.02713
2.04398
2.06485
2.08871
2.11483
2.14493
2.17714
2.20961
2.2415
2.2709
2.29692
2.31884
2.33671
2.3506
2.36085
2.36885
1.77415
1.76832
1.76253
1.75683
1.7513
1.74627
1.74273
1.74401
1.76417
1.84999
1.94561
2.34466
2.5842
2.67782
2.83165
3.01603
3.21814
3.42064
3.62244
3.81272
3.9875
4.14388
4.27771
4.3881
4.47404
4.53581
4.573
4.58687
4.58114
4.56463
1.77416
1.76833
1.76255
1.75686
1.75135
1.74637
1.74313
1.74627
1.77582
1.90291
2.15749
4.01596
4.64382
4.88847
6.08684
7.11203
7.87308
8.44594
8.87438
9.1848
9.40236
9.53841
9.59736
9.59506
9.54456
9.45245
9.32936
9.18546
9.02882
8.86374
1.77416
1.76833
1.76255
1.75686
1.75135
1.74636
1.74309
1.74606
1.77464
1.89716
2.22455
5.05447
6.23376
12.1953
10.0623
11.5256
12.5069
13.1832
13.6142
13.8111
13.8024
13.6375
13.3604
13.0079
12.6062
12.1749
11.7299
11.2875
10.863
10.4695
1.77415
1.76832
1.76253
1.75682
1.75129
1.74624
1.74262
1.74358
1.76203
1.84059
2.00524
3.01007
3.47185
3.61861
3.16576
3.51851
3.84921
4.17248
4.5494
4.9844
5.44856
5.91957
6.37861
6.80783
7.1877
7.50654
7.75695
7.9376
8.05433
8.09621
1.77415
1.76831
1.7625
1.7568
1.75125
1.74608
1.74197
1.74079
1.74912
1.78293
1.865
1.95411
1.99515
2.00856
2.02267
2.05208
2.08763
2.12948
2.17959
2.24313
2.32005
2.41153
2.51969
2.64486
2.78449
2.9354
3.09418
3.25808
3.42662
3.59368
1.77415
1.76829
1.76251
1.75679
1.7512
1.74591
1.74134
1.7386
1.7402
1.75252
1.77794
1.79788
1.81011
1.81446
1.81446
1.81349
1.81259
1.81304
1.81525
1.81969
1.8267
1.83666
1.85012
1.86738
1.8885
1.91341
1.94202
1.9742
2.00993
2.04879
1.77414
1.7683
1.76251
1.75678
1.75116
1.74577
1.74087
1.73704
1.73542
1.73781
1.74449
1.75026
1.7525
1.75225
1.75
1.7463
1.7421
1.73823
1.73476
1.73189
1.72973
1.72839
1.72797
1.72856
1.73021
1.73303
1.737
1.74217
1.74857
1.75608
1.77414
1.7683
1.7625
1.75677
1.75113
1.74567
1.74054
1.73606
1.73278
1.73127
1.73128
1.73087
1.72917
1.72649
1.72287
1.71861
1.7141
1.70971
1.70553
1.70161
1.69801
1.69478
1.69195
1.68955
1.68761
1.68615
1.6852
1.68473
1.68477
1.68528
1.77415
1.7683
1.7625
1.75676
1.7511
1.74559
1.74032
1.73548
1.73132
1.72804
1.7254
1.72251
1.719
1.7151
1.71088
1.70639
1.70182
1.69728
1.69293
1.68874
1.68475
1.68098
1.67746
1.6742
1.67122
1.66849
1.66607
1.66391
1.66203
1.66041
1.77415
1.7683
1.7625
1.75675
1.75108
1.74554
1.74019
1.73514
1.73052
1.72639
1.72254
1.7185
1.71414
1.70968
1.70516
1.70056
1.69593
1.69134
1.6869
1.68258
1.67841
1.67442
1.6706
1.66698
1.66355
1.6603
1.65725
1.65439
1.65173
1.64925
1.77414
1.7683
1.76249
1.75675
1.75107
1.74551
1.74011
1.73495
1.7301
1.72558
1.72118
1.71662
1.71187
1.70714
1.70248
1.69782
1.69317
1.68855
1.68407
1.67969
1.67544
1.67133
1.66737
1.66357
1.65992
1.65643
1.65308
1.6499
1.64686
1.64398
1.77415
1.7683
1.7625
1.75675
1.75107
1.7455
1.74008
1.73487
1.72993
1.72524
1.72064
1.71587
1.71097
1.70613
1.70141
1.69672
1.69206
1.68744
1.68295
1.67855
1.67428
1.67014
1.66614
1.66228
1.65856
1.65498
1.65153
1.64822
1.64504
1.642
1.77414
1.76829
1.76248
1.75669
1.75097
1.74533
1.7398
1.73441
1.72923
1.72424
1.71932
1.71427
1.70909
1.70391
1.69878
1.69364
1.6885
1.68335
1.67825
1.67318
1.66814
1.66313
1.65817
1.65325
1.64836
1.64352
1.63871
1.63395
1.62922
1.62457
1.77414
1.76829
1.76248
1.75669
1.75098
1.74534
1.73982
1.73448
1.72937
1.7245
1.71973
1.71484
1.70978
1.70468
1.6996
1.69449
1.68936
1.68422
1.67913
1.67407
1.66904
1.66405
1.6591
1.65419
1.64932
1.64449
1.6397
1.63494
1.63023
1.6256
1.77414
1.76829
1.76248
1.75669
1.75099
1.74536
1.73988
1.73461
1.72967
1.72509
1.72071
1.71621
1.71147
1.70659
1.70163
1.69658
1.69148
1.68637
1.68131
1.67628
1.67128
1.66631
1.6614
1.65652
1.65168
1.64688
1.64212
1.63739
1.63271
1.6281
1.77414
1.76829
1.76248
1.7567
1.751
1.7454
1.73998
1.73486
1.73024
1.72624
1.72269
1.719
1.71488
1.71042
1.70569
1.70075
1.69572
1.69066
1.68567
1.68069
1.67575
1.67085
1.666
1.66119
1.65642
1.6517
1.64701
1.64236
1.63774
1.6332
1.77414
1.76829
1.76248
1.7567
1.75102
1.74545
1.74013
1.73527
1.73124
1.72838
1.72649
1.72439
1.72146
1.71781
1.71352
1.70879
1.70388
1.69896
1.69411
1.68926
1.68445
1.67968
1.67497
1.6703
1.66568
1.66111
1.65657
1.65207
1.64761
1.64321
1.77414
1.76829
1.76248
1.75671
1.75104
1.74553
1.74036
1.73592
1.73292
1.73226
1.73393
1.73517
1.73461
1.73254
1.72913
1.72483
1.72013
1.71559
1.71104
1.70653
1.70207
1.69771
1.69344
1.68925
1.68515
1.68111
1.67712
1.67318
1.66928
1.66543
1.77415
1.76828
1.76248
1.75672
1.75107
1.74562
1.74067
1.73688
1.73566
1.73963
1.74939
1.75788
1.76233
1.76374
1.76225
1.75899
1.7551
1.75139
1.74772
1.74425
1.74104
1.73809
1.73537
1.73286
1.73055
1.72839
1.72634
1.72436
1.72241
1.72047
1.77416
1.7683
1.76247
1.75673
1.7511
1.74573
1.74104
1.73815
1.73987
1.75377
1.78235
1.80507
1.81942
1.82556
1.82625
1.82593
1.82593
1.82675
1.82847
1.83126
1.83511
1.83978
1.84519
1.85112
1.85738
1.86366
1.86972
1.87539
1.88053
1.88507
1.77416
1.76832
1.7625
1.75674
1.75113
1.74583
1.74141
1.73948
1.74567
1.7743
1.84021
1.90384
1.93759
1.94924
1.95636
1.97347
1.99599
2.02268
2.05303
2.08662
2.12203
2.15754
2.19328
2.22801
2.26041
2.28952
2.31425
2.3338
2.34796
2.35839
1.77416
1.76832
1.76252
1.75677
1.75117
1.74589
1.74163
1.74043
1.75041
1.79367
1.91096
2.01512
2.08294
2.10333
2.1383
2.24094
2.35299
2.4676
2.58196
2.69269
2.79626
2.88989
2.97428
3.04675
3.10672
3.1537
3.18729
3.20712
3.21405
3.21129
1.77416
1.76832
1.76252
1.75677
1.75116
1.74588
1.74161
1.74035
1.74999
1.79241
1.91069
2.02056
2.09724
2.1199
2.24884
2.43498
2.62108
2.8178
3.01883
3.2091
3.3708
3.50004
3.59802
3.6679
3.71265
3.7357
3.73959
3.72816
3.70398
3.67054
1.77416
1.76831
1.7625
1.75673
1.75112
1.74581
1.74135
1.73928
1.74491
1.77177
1.83807
1.90587
1.93845
1.94792
1.96131
1.98812
2.02078
2.05836
2.10333
2.16434
2.24574
2.34476
2.45528
2.57126
2.68728
2.79787
2.89836
2.9852
3.05694
3.10935
1.77416
1.7683
1.76247
1.75672
1.75109
1.74571
1.74096
1.73792
1.73918
1.75158
1.78032
1.8024
1.81593
1.82053
1.82046
1.81945
1.8189
1.81976
1.82228
1.82765
1.83735
1.85197
1.87193
1.89725
1.92754
1.96211
2.00022
2.04091
2.08352
2.12666
1.77415
1.76828
1.76247
1.75671
1.75106
1.7456
1.74059
1.73667
1.7351
1.73825
1.74725
1.75518
1.75891
1.75937
1.75713
1.75318
1.74865
1.74443
1.74052
1.73725
1.73477
1.73323
1.73279
1.73358
1.73567
1.73911
1.74391
1.75002
1.75743
1.76592
1.77414
1.76828
1.76248
1.75671
1.75103
1.7455
1.74029
1.73575
1.7325
1.73134
1.73234
1.73301
1.732
1.72953
1.72572
1.72107
1.71603
1.71115
1.70636
1.70177
1.69743
1.69338
1.68967
1.68634
1.68341
1.6809
1.67885
1.67726
1.67613
1.67546
1.77414
1.76829
1.76248
1.7567
1.751
1.74543
1.74008
1.73514
1.73093
1.72775
1.72542
1.72291
1.71966
1.71574
1.71121
1.70627
1.70115
1.69603
1.69101
1.68609
1.68129
1.67664
1.67216
1.66785
1.66374
1.65981
1.65609
1.65259
1.6493
1.64624
1.77414
1.76829
1.76248
1.75669
1.75099
1.74538
1.73993
1.73476
1.73002
1.72581
1.72196
1.71799
1.71364
1.709
1.70412
1.69904
1.69389
1.68872
1.68365
1.67863
1.6737
1.66886
1.66413
1.6595
1.65499
1.6506
1.64632
1.64218
1.63816
1.63429
1.77414
1.76829
1.76247
1.75669
1.75097
1.74534
1.73984
1.73453
1.7295
1.72477
1.7202
1.7155
1.7106
1.70561
1.70055
1.69542
1.69025
1.68507
1.67996
1.6749
1.66991
1.66498
1.66013
1.65537
1.65069
1.6461
1.64159
1.63717
1.63285
1.62865
1.77414
1.76829
1.76247
1.75669
1.75097
1.74532
1.73979
1.7344
1.72923
1.72424
1.71933
1.7143
1.70914
1.70397
1.69883
1.69366
1.68849
1.6833
1.67818
1.67311
1.66808
1.66312
1.65822
1.65339
1.64863
1.64394
1.63932
1.63478
1.63031
1.62595
1.77414
1.76829
1.76247
1.75669
1.75097
1.74532
1.73976
1.73435
1.72911
1.72402
1.71896
1.7138
1.70853
1.70328
1.6981
1.69293
1.68775
1.68257
1.67745
1.67237
1.66734
1.66237
1.65745
1.6526
1.64781
1.64309
1.63844
1.63385
1.62933
1.62491
1.77414
1.76829
1.76248
1.75669
1.75097
1.74531
1.73975
1.73431
1.72902
1.72387
1.71877
1.71362
1.70839
1.70315
1.69793
1.69272
1.6875
1.68227
1.67708
1.67192
1.66678
1.66167
1.6566
1.65155
1.64654
1.64156
1.63661
1.63169
1.6268
1.62198
1.77414
1.76829
1.76247
1.75669
1.75097
1.74532
1.73977
1.73435
1.72911
1.72404
1.71904
1.71399
1.70884
1.70366
1.69847
1.69328
1.68807
1.68284
1.67766
1.67251
1.66738
1.66228
1.65721
1.65218
1.64718
1.64221
1.63727
1.63236
1.62748
1.62267
1.77414
1.76829
1.76248
1.75669
1.75098
1.74534
1.73981
1.73445
1.72932
1.72443
1.71968
1.71487
1.70992
1.70488
1.69977
1.69461
1.68943
1.68422
1.67907
1.67393
1.66882
1.66374
1.6587
1.65369
1.64871
1.64376
1.63885
1.63396
1.62911
1.62432
1.77414
1.76829
1.76248
1.75669
1.75098
1.74536
1.73988
1.73462
1.72969