/*--------------------------------*- C++ -*----------------------------------*\
| =========                 |                                                 |
| \\      /  F ield         | OpenFOAM: The Open Source CFD Toolbox           |
|  \\    /   O peration     | Version:  2512                                  |
|   \\  /    A nd           | Website:  www.openfoam.com                      |
|    \\/     M anipulation  |                                                 |
\*---------------------------------------------------------------------------*/
FoamFile
{
    version     2.0;
    format      ascii;
    arch        "LSB;label=32;scalar=64";
    class       volScalarField;
    location    "300";
    object      omega;
}
// * * * * * * * * * * * * * * * * * * * * * * * * * * * * * * * * * * * * * //

dimensions      [0 0 -1 0 0 0 0];

internalField   nonuniform List<scalar> 
84826
(
16.0845
15.8154
15.5584
15.3126
15.0772
14.8512
14.634
14.4243
14.225
14.0363
13.8576
13.6942
13.5334
13.3745
13.225
13.0784
12.9349
12.7947
12.6569
12.5218
12.3898
12.261
12.1355
12.0133
11.8942
11.7783
11.6655
11.5556
11.4485
11.3443
16.0846
15.8154
15.5586
15.313
15.0779
14.8523
14.6354
14.4262
14.2275
14.0395
13.8617
13.6993
13.5394
13.381
13.2319
13.0854
12.9415
12.8011
12.663
12.5275
12.3953
12.2662
12.1405
12.0179
11.8986
11.7824
11.6693
11.5591
11.4517
11.3472
16.0846
15.8156
15.5588
15.3134
15.0786
14.8535
14.6376
14.429
14.2309
14.0444
13.8685
13.7086
13.5508
13.3935
13.2452
13.0989
12.9551
12.8142
12.675
12.5389
12.4062
12.2766
12.1503
12.0273
11.9076
11.791
11.6775
11.5669
11.4592
11.3543
16.0846
15.8156
15.559
15.3137
15.0792
14.8545
14.6394
14.4315
14.2348
14.0507
13.8781
13.721
13.5668
13.4129
13.2662
13.1204
12.9762
12.8344
12.6944
12.5574
12.4237
12.2932
12.1661
12.0422
11.9216
11.8042
11.6898
11.5784
11.4699
11.3642
16.0846
15.8157
15.5591
15.314
15.0797
14.8555
14.6411
14.4341
14.2394
14.0585
13.8869
13.7049
13.5568
13.4339
13.2904
13.1459
13.0013
12.8589
12.7177
12.5795
12.4446
12.3134
12.1861
12.0627
11.9435
11.8283
11.7171
11.6098
11.5062
11.406
16.0847
15.8157
15.5592
15.3143
15.08
14.8564
14.6427
14.4369
14.2447
14.0633
13.8959
13.7445
13.6028
13.4644
13.3256
13.1826
13.0372
12.8936
12.7515
12.6159
12.4919
12.3829
12.2909
12.2164
12.1584
12.1154
12.0849
12.0638
12.049
12.0343
16.0847
15.8157
15.5593
15.3143
15.0803
14.857
14.6439
14.4412
14.2485
14.069
13.92
13.8156
13.7325
13.7115
13.5976
13.4703
13.3398
13.2312
13.256
13.4228
13.7056
14.0662
14.4704
14.8893
15.3019
15.6946
16.0568
16.3826
16.658
16.8979
16.0847
15.8157
15.5593
15.3144
15.0806
14.8575
14.6452
14.4457
14.2517
14.0772
27.8284
27.3052
26.8896
27.6928
22.2045
21.8983
22.1739
22.9269
23.7296
24.4772
25.1307
25.6746
26.114
26.458
26.7121
26.8854
26.9817
27.0039
26.9463
26.833
16.0846
15.8157
15.5593
15.3144
15.0808
14.8579
14.6462
14.4476
14.2568
14.0961
27.8947
27.9872
30.3264
64.8738
55.5641
52.2332
49.4771
47.0669
44.9675
43.1555
41.5741
40.168
38.8989
37.7413
36.6835
35.7571
34.9211
34.1394
33.4096
32.694
16.0848
15.816
15.5598
15.3151
15.0817
14.8591
14.6479
14.4487
14.2624
14.1279
28.0509
57.6058
130.107
238.217
58.819
55.044
52.1567
49.5611
47.2659
45.2428
43.43
41.7825
40.2724
38.8804
37.5928
36.398
35.2883
34.2541
33.2972
32.3895
16.0849
15.8164
15.5603
15.3158
15.0825
14.8594
14.6478
14.4487
14.2624
14.1279
28.114
60.0318
246.572
59.7527
54.8832
51.9205
49.1885
46.7368
44.5565
42.5976
40.8276
39.2241
37.7711
36.4552
35.2638
34.1867
33.2111
32.3342
31.5274
16.0849
15.8161
15.5597
15.315
15.0815
14.8581
14.6462
14.4476
14.2567
14.096
27.9291
55.9543
79.9368
183.386
52.9334
50.2491
47.8967
45.7905
43.8814
42.1583
40.6026
39.1763
37.8586
36.6413
35.5157
34.479
33.5271
32.655
31.8658
31.1347
16.0848
15.8158
15.5592
15.3142
15.0805
14.8574
14.6451
14.4456
14.2516
14.0769
27.8458
27.4803
27.7361
37.6467
23.3933
23.4445
24.053
24.7327
25.2833
25.6759
25.9114
26.0057
25.9862
25.8758
25.6982
25.4748
25.2179
24.9455
24.6553
24.3739
16.0847
15.8157
15.5592
15.3142
15.0802
14.8569
14.6438
14.4411
14.2483
14.0687
13.9193
13.8144
13.7353
13.7811
13.6697
13.5423
13.4151
13.4216
13.5039
13.6353
13.7895
13.9436
14.0843
14.2075
14.3142
14.4047
14.4808
14.5451
14.5997
14.6505
16.0847
15.8157
15.5592
15.3142
15.08
14.8563
14.6426
14.4367
14.2445
14.063
13.8954
13.7437
13.6021
13.4663
13.3274
13.1843
13.0395
12.8974
12.7581
12.6255
12.5001
12.3817
12.2694
12.1624
12.0605
11.9632
11.8703
11.7815
11.6973
11.6173
16.0846
15.8157
15.5591
15.314
15.0796
14.8554
14.641
14.434
14.2392
14.0582
13.8864
13.704
13.5555
13.4326
13.2891
13.1449
13.0011
12.86
12.7206
12.5844
12.4517
12.3225
12.1968
12.0744
11.9553
11.8393
11.7262
11.6158
11.5081
11.403
16.0846
15.8156
15.559
15.3137
15.0791
14.8544
14.6392
14.4313
14.2345
14.0503
13.8775
13.7202
13.5657
13.4117
13.2653
13.12
12.9765
12.8359
12.6972
12.5618
12.4296
12.3006
12.175
12.0525
11.9331
11.8166
11.703
11.5921
11.4836
11.3778
16.0846
15.8155
15.5588
15.3134
15.0785
14.8534
14.6375
14.4287
14.2305
14.0439
13.8678
13.7077
13.5498
13.3924
13.2444
13.0986
12.9555
12.8154
12.6774
12.5426
12.4112
12.2828
12.1578
12.0359
11.9172
11.8014
11.6884
11.5782
11.4706
11.3656
16.0846
15.8154
15.5586
15.313
15.0779
14.8523
14.6353
14.4259
14.227
14.0389
13.8609
13.6982
13.5382
13.3798
13.231
13.0849
12.9417
12.802
12.6648
12.5306
12.3996
12.2718
12.1471
12.0255
11.9071
11.7915
11.6789
11.5689
11.4616
11.3568
16.0845
15.8153
15.5583
15.3126
15.0772
14.8511
14.6338
14.424
14.2244
14.0356
13.8566
13.693
13.5321
13.3732
13.2241
13.078
12.9351
12.7955
12.6587
12.5248
12.3941
12.2666
12.1423
12.0209
11.9026
11.7873
11.6748
11.565
11.4579
11.3532
1.9399
2.08197
2.20892
2.32366
2.42854
2.52541
2.61556
2.7007
2.78411
2.86473
2.9415
3.01115
3.07128
3.11946
3.15719
3.18702
3.21301
3.23773
3.26002
3.28037
3.29919
3.31699
3.3341
3.35051
3.36609
3.38069
3.39412
3.40635
3.41733
3.42691
1.93992
2.08204
2.20906
2.32393
2.42904
2.52635
2.61731
2.70347
2.78888
2.87253
2.95333
3.02749
3.09141
3.14216
3.18057
3.21006
3.23533
3.25946
3.28132
3.30148
3.32069
3.33937
3.35751
3.37504
3.39185
3.40773
3.42257
3.43629
3.4488
3.45996
1.93987
2.08215
2.20929
2.32441
2.43
2.52825
2.62113
2.70948
2.79932
2.88984
2.98019
3.06472
3.13758
3.19422
3.23422
3.26275
3.28706
3.30996
3.33131
3.35237
3.37323
3.39391
3.41429
3.43411
3.45324
3.47135
3.48833
3.50408
3.51847
3.53124
1.93981
2.08225
2.20961
2.32507
2.43134
2.53089
2.62623
2.71859
2.81588
2.91893
3.02957
3.13424
3.22667
3.29489
3.33805
3.36473
3.38731
3.40863
3.4306
3.45301
3.47634
3.50054
3.52525
3.55012
3.57463
3.59838
3.62106
3.64238
3.66219
3.68004
1.93985
2.08226
2.20997
2.3259
2.433
2.53425
2.63287
2.73123
2.8402
2.96645
3.10005
3.2357
3.36421
3.46188
3.51416
3.54016
3.56328
3.58755
3.61352
3.64088
3.67052
3.7023
3.73578
3.77048
3.80581
3.8411
3.8757
3.90891
3.94032
3.96902
1.93989
2.0823
2.21022
2.32679
2.43488
2.53811
2.64083
2.7477
2.87557
3.02305
3.21655
3.42463
3.64704
3.80578
3.88534
3.91714
3.94533
3.97982
4.02044
4.06679
4.11917
4.17646
4.23775
4.30342
4.37266
4.44428
4.51723
4.59008
4.6621
4.7298
1.93992
2.08243
2.21045
2.32749
2.43677
2.54211
2.64965
2.76868
2.91233
3.11246
3.45416
3.9389
4.49621
4.96441
5.17062
5.29408
5.40596
5.52402
5.65199
5.79793
5.9668
6.16016
6.37705
6.61536
6.87296
7.14785
7.43769
7.73803
8.04302
8.34869
1.93994
2.08257
2.21077
2.32809
2.4383
2.54567
2.65835
2.79309
2.95596
3.2767
3.67854
5.22766
7.38866
12.3394
23.6826
23.7076
23.5915
23.4819
23.4254
23.4501
23.5373
23.651
23.7716
23.8867
23.991
24.0884
24.1747
24.235
24.2588
24.2262
1.93996
2.08269
2.21105
2.32869
2.43948
2.54856
2.66566
2.81066
3.00723
3.57579
4.6316
13.3899
34.9218
103.887
115.183
90.7627
75.7669
65.8622
59.0759
54.3199
50.8832
48.295
46.2537
44.5552
43.0505
41.6319
40.2348
38.8382
37.4596
36.058
1.94007
2.08293
2.21147
2.32938
2.44063
2.55073
2.67049
2.81808
3.05449
3.91313
7.67004
532.241
1375.06
298.853
127.624
101.292
85.5918
74.3517
65.9568
59.5154
54.3895
50.1778
46.6279
43.5704
40.892
38.5169
36.3918
34.4695
32.7416
31.1383
1.94017
2.08311
2.21173
2.32968
2.44097
2.55056
2.67026
2.81783
3.05433
3.91382
8.21264
264.775
125.612
100.362
84.8651
73.66
65.1799
58.5639
53.222
48.807
45.0964
41.9388
39.2257
36.8753
34.8283
33.0307
31.4624
30.054
1.94017
2.08284
2.2114
2.32892
2.4398
2.5484
2.66553
2.81073
3.00775
3.57762
5.81791
298.498
946.082
479.256
115.389
91.7394
77.6282
68.318
61.7906
56.9876
53.1333
49.7885
46.8483
44.2229
41.8738
39.7724
37.8973
36.2268
34.7534
33.4399
1.94019
2.08257
2.21088
2.32804
2.43832
2.54575
2.65855
2.79351
2.95709
3.27952
3.89836
8.00628
14.0265
37.5927
26.3345
26.1567
25.7251
25.1731
24.5313
23.8522
23.1706
22.5082
21.8782
21.2871
20.7479
20.2704
19.855
19.503
19.2069
18.9961
1.94007
2.08247
2.21045
2.32753
2.43686
2.54226
2.64991
2.76917
2.91359
3.11527
3.4599
3.95273
4.54274
5.14287
5.40166
5.56832
5.72036
5.86761
6.00432
6.13125
6.24709
6.35091
6.4426
6.52456
6.6005
6.67091
6.74002
6.80908
6.87956
6.9568
1.9399
2.08231
2.21022
2.32685
2.43498
2.53827
2.64112
2.74822
2.87659
3.02542
3.22122
3.43541
3.66917
3.8517
3.94963
3.99864
4.0436
4.08924
4.13468
4.17871
4.22118
4.26106
4.29762
4.33052
4.3602
4.38661
4.41051
4.43192
4.45164
4.46962
1.93985
2.08227
2.21
2.32596
2.43312
2.53444
2.63319
2.73178
2.8412
2.96833
3.10382
3.24337
3.37777
3.48481
3.54599
3.58051
3.61171
3.64083
3.66815
3.69274
3.71513
3.73509
3.75254
3.76755
3.78036
3.79131
3.80081
3.80902
3.81639
3.82311
1.93981
2.08227
2.20965
2.32514
2.43146
2.53109
2.62658
2.71915
2.81683
2.92058
3.03253
3.13962
3.23602
3.30971
3.35844
3.39008
3.41735
3.44105
3.46329
3.48383
3.503
3.52075
3.53692
3.55155
3.5647
3.57651
3.58725
3.59689
3.60562
3.61358
1.93987
2.08216
2.20933
2.32448
2.43013
2.52846
2.62148
2.71005
2.80025
2.89137
2.98277
3.06906
3.14463
3.20479
3.24837
3.28001
3.30745
3.33068
3.35195
3.3712
3.38865
3.40434
3.41835
3.43073
3.44171
3.45134
3.45982
3.46724
3.47371
3.47941
1.93992
2.08205
2.20909
2.32401
2.42917
2.52658
2.61767
2.70405
2.7898
2.87398
2.95567
3.03123
3.09719
3.15043
3.19136
3.22298
3.24987
3.27318
3.29404
3.31289
3.33002
3.34558
3.35973
3.37258
3.38426
3.39477
3.4042
3.41266
3.42019
3.42698
1.9399
2.08198
2.20895
2.32374
2.42868
2.52564
2.61592
2.70128
2.78501
2.86615
2.94372
3.01461
3.07645
3.12666
3.16636
3.19785
3.22454
3.24782
3.26858
3.28736
3.30442
3.31985
3.33383
3.34647
3.35785
3.36803
3.37705
3.38508
3.3922
3.39866
1.77772
1.77827
1.78114
1.78593
1.79238
1.80029
1.80932
1.82094
1.83406
1.84896
1.86527
1.88138
1.8963
1.90882
1.91961
1.92907
1.93806
1.94722
1.95581
1.9641
1.97222
1.98034
1.98848
1.99658
2.00468
2.01262
2.02026
2.02761
2.03464
2.04127
1.77772
1.77828
1.78115
1.78595
1.79244
1.80043
1.80966
1.82161
1.83521
1.85106
1.86877
1.88626
1.9031
1.91677
1.92813
1.93788
1.94697
1.95617
1.96483
1.97324
1.98161
1.99008
1.99861
2.00718
2.01576
2.02418
2.03236
2.0403
2.04795
2.05523
1.77772
1.77829
1.78117
1.786
1.79256
1.80075
1.8105
1.8228
1.83758
1.85567
1.87686
1.89808
1.91864
1.93488
1.94754
1.9578
1.96699
1.97626
1.98514
1.994
2.00311
2.01242
2.02192
2.03152
2.04114
2.05057
2.05979
2.06876
2.0774
2.08561
1.77772
1.7783
1.7812
1.78608
1.79274
1.80117
1.81155
1.82475
1.84171
1.86382
1.89012
1.91734
1.94518
1.96721
1.98278
1.99399
2.00389
2.01369
2.02343
2.03354
2.04411
2.0552
2.06684
2.07876
2.09084
2.10293
2.11491
2.12668
2.13813
2.14905
1.77772
1.7783
1.78123
1.78616
1.79296
1.8017
1.81286
1.82761
1.84814
1.87609
1.91568
1.95766
2.00258
2.03443
2.0553
2.0684
2.07954
2.09078
2.10291
2.11589
2.12985
2.14487
2.16082
2.1773
2.19421
2.21144
2.22879
2.246
2.26286
2.27895
1.77773
1.7783
1.78126
1.78627
1.79321
1.80233
1.81445
1.83156
1.85661
1.8981
1.98063
2.06838
2.15487
2.20806
2.23891
2.25511
2.27084
2.28794
2.30771
2.33028
2.35614
2.38489
2.41595
2.44854
2.48238
2.51702
2.55216
2.58748
2.62254
2.65607
1.77773
1.77832
1.78128
1.78635
1.79348
1.80303
1.81633
1.83681
1.86979
1.94908
2.15513
2.4568
2.686
2.83064
2.91829
2.97547
3.04488
3.12156
3.20245
3.28965
3.38404
3.48544
3.59171
3.70211
3.81551
3.93073
4.04667
4.16165
4.27499
4.38283
1.77773
1.77833
1.78132
1.78642
1.79371
1.80368
1.81833
1.84188
1.89151
2.07499
2.2886
3.64214
4.92804
5.86616
11.1084
11.7002
12.172
12.6146
13.0046
13.3655
13.6978
13.9887
14.2342
14.4312
14.5824
14.6916
14.7623
14.7959
14.7956
14.755
1.77773
1.77835
1.78135
1.7865
1.79389
1.8042
1.82009
1.84722
1.92484
2.37229
3.40512
14.1533
43.7039
46.6045
89.6913
72.9075
61.9572
54.3812
48.7391
44.4084
40.9106
37.997
35.4581
33.2034
31.1935
29.3879
27.7559
26.2716
24.9153
23.6688
1.77774
1.77836
1.78138
1.78658
1.79404
1.80456
1.82116
1.85076
1.96351
2.79112
6.78811
569.174
416.885
334.273
140.237
103.951
83.6595
70.4473
60.9105
53.7882
48.2179
43.7252
40.0094
36.8767
34.1976
31.8799
29.8558
28.0731
26.4938
25.0835
1.77774
1.77836
1.78138
1.78658
1.79405
1.8046
1.82119
1.85077
1.96339
2.79086
7.32297
309.866
140.061
103.921
83.7262
70.5177
60.973
53.7656
48.0912
43.5352
39.7702
36.6039
33.9046
31.5782
29.5545
27.7805
26.216
24.829
1.77774
1.77834
1.78136
1.78651
1.79392
1.80427
1.82016
1.8473
1.92477
2.37069
4.55832
363.365
428.464
308.738
90.7026
73.9633
62.6907
54.559
48.2712
43.2402
39.1051
35.6486
32.7264
30.2232
28.0886
26.2527
24.669
23.3026
22.1227
21.124
1.77773
1.77833
1.78131
1.78642
1.79373
1.80372
1.81839
1.84196
1.89152
2.07387
2.56486
7.08455
11.1616
14.6338
11.4381
12.2523
12.8602
13.2985
13.5779
13.732
13.7774
13.7421
13.6339
13.4735
13.283
13.075
12.8664
12.6619
12.473
12.3066
1.77773
1.77832
1.78127
1.78636
1.7935
1.80306
1.81637
1.83686
1.86989
1.94888
2.15229
2.43979
2.67509
2.84773
2.95678
3.0382
3.12718
3.21417
3.29587
3.37243
3.44324
3.50823
3.56542
3.61695
3.66372
3.70609
3.74622
3.78462
3.82298
3.86259
1.77773
1.7783
1.78126
1.78627
1.79322
1.80235
1.81448
1.83162
1.85675
1.89833
1.9804
2.0674
2.15666
2.2174
2.25456
2.27754
2.29843
2.31934
2.34011
2.36081
2.3818
2.4028
2.42349
2.44328
2.46234
2.48074
2.49894
2.51654
2.53374
2.55079
1.77772
1.7783
1.78123
1.78617
1.79297
1.80172
1.8129
1.82768
1.84827
1.87636
1.91618
1.95865
2.00512
2.03991
2.06368
2.07955
2.09249
2.10534
2.11768
2.12942
2.14069
2.15156
2.16198
2.17173
2.18096
2.18961
2.19798
2.20624
2.21433
2.22251
1.77772
1.7783
1.7812
1.78608
1.79275
1.80119
1.81159
1.82482
1.84184
1.86411
1.89066
1.91838
1.94722
1.97078
1.98786
2.00053
2.01104
2.02157
2.03154
2.04108
2.05033
2.0593
2.06809
2.0765
2.08459
2.09237
2.09979
2.10708
2.1142
2.12129
1.77772
1.77829
1.78117
1.78601
1.79258
1.80078
1.81054
1.82287
1.83771
1.85591
1.87733
1.89898
1.92028
1.93749
1.9511
1.9622
1.9714
1.9811
1.99005
1.99858
2.00676
2.01462
2.02217
2.0294
2.03633
2.04288
2.04914
2.05513
2.06084
2.0665
1.77772
1.77828
1.78115
1.78596
1.79245
1.80046
1.8097
1.82168
1.83534
1.85129
1.8692
1.88705
1.90448
1.91883
1.93085
1.94114
1.95008
1.95965
1.96817
1.97622
1.98395
1.9914
1.9986
2.00558
2.01236
2.01886
2.02506
2.03105
2.03679
2.04238
1.77772
1.77827
1.78114
1.78593
1.79239
1.80032
1.80936
1.82101
1.83419
1.84919
1.86568
1.88213
1.89754
1.91063
1.92193
1.93175
1.94057
1.94994
1.95822
1.96603
1.97356
1.98084
1.98787
1.99466
2.00126
2.00763
2.01366
2.01946
2.02506
2.03047
1.77423
1.7686
1.7632
1.75807
1.75326
1.74882
1.74483
1.74158
1.73913
1.73771
1.73722
1.73689
1.73592
1.73437
1.73275
1.73122
1.72978
1.72833
1.72699
1.7257
1.7245
1.72345
1.72257
1.72185
1.72127
1.7208
1.72045
1.72014
1.71988
1.71962
1.77423
1.7686
1.7632
1.75807
1.75327
1.74885
1.74491
1.74174
1.7395
1.73848
1.73865
1.73893
1.73883
1.73776
1.73645
1.73509
1.73377
1.73242
1.73116
1.72996
1.72886
1.72795
1.72722
1.72668
1.72627
1.72602
1.72587
1.72579
1.72576
1.72575
1.77423
1.7686
1.7632
1.75808
1.75329
1.74891
1.74503
1.74212
1.74035
1.74031
1.74212
1.74405
1.74592
1.74598
1.74537
1.74443
1.74336
1.74222
1.74115
1.74014
1.7393
1.73871
1.73835
1.73821
1.73823
1.73844
1.73873
1.7391
1.73952
1.73994
1.77423
1.7686
1.7632
1.75809
1.75333
1.749
1.7453
1.74273
1.74187
1.74375
1.7487
1.75455
1.75931
1.76175
1.76265
1.76258
1.76203
1.76136
1.76071
1.76017
1.75995
1.76007
1.76052
1.76126
1.76229
1.76353
1.76493
1.76643
1.76799
1.76954
1.77423
1.7686
1.76321
1.75811
1.75337
1.74913
1.74568
1.74371
1.74445
1.74981
1.76321
1.77809
1.79134
1.79782
1.80137
1.80294
1.80329
1.80348
1.80368
1.80432
1.8056
1.80746
1.80986
1.81274
1.81607
1.8197
1.82358
1.8276
1.83168
1.83566
1.77423
1.7686
1.76321
1.75812
1.75342
1.7493
1.74618
1.74521
1.74854
1.76274
1.80037
1.84335
1.87459
1.89188
1.90005
1.9046
1.90823
1.91152
1.91517
1.92013
1.92656
1.93435
1.94334
1.95339
1.96427
1.97577
1.98773
1.99995
2.01222
2.02415
1.77423
1.76861
1.76322
1.75814
1.75349
1.7495
1.74684
1.74738
1.75615
1.79277
1.90069
2.05042
2.13662
2.18906
2.2163
2.2366
2.2621
2.29152
2.3232
2.35821
2.39679
2.43806
2.48101
2.52505
2.56932
2.61353
2.65722
2.69983
2.74104
2.77971
1.77424
1.76862
1.76323
1.75816
1.75355
1.74971
1.74759
1.75012
1.76933
1.86765
1.99309
2.72954
3.32474
3.53519
4.82342
4.94891
5.06499
5.20173
5.36773
5.55987
5.77393
5.9906
6.19944
6.3917
6.56348
6.71098
6.83167
6.92364
6.9887
7.01833
1.77424
1.76862
1.76325
1.75819
1.75363
1.7499
1.74833
1.75342
1.7896
2.03108
2.59906
8.14322
22.4093
22.3968
34.8951
30.5869
27.3554
24.8299
22.7842
21.096
19.6532
18.4033
17.3041
16.3373
15.4771
14.7105
14.0264
13.4139
12.8586
12.3615
1.77424
1.76863
1.76326
1.75822
1.75369
1.75004
1.74885
1.75594
1.81177
2.27071
4.21823
270.418
574.935
354.519
97.6101
76.1172
62.4214
53.048
46.1395
40.9155
36.7581
33.3693
30.576
28.2193
26.2065
24.4704
22.9606
21.6382
20.4688
19.4376
1.77424
1.76863
1.76326
1.75822
1.75366
1.75003
1.74884
1.75591
1.81158
2.26967
4.58894
440.212
324.909
238.601
97.2729
75.9677
62.3949
53.154
46.4254
41.2927
37.2342
33.9521
31.2245
28.9053
26.9207
25.1924
23.6722
22.3231
21.1147
20.028
1.77423
1.76861
1.76324
1.75818
1.7536
1.74989
1.74832
1.75339
1.78935
2.0288
3.0774
148.304
521.311
364.289
34.4203
30.5976
27.5602
25.1078
23.0711
21.3407
19.852
18.5575
17.4216
16.4149
15.5321
14.749
14.058
13.4432
12.8947
12.4118
1.77423
1.76861
1.76322
1.75816
1.75355
1.74971
1.74759
1.75009
1.76913
1.86601
2.14537
4.10291
5.65985
6.42715
4.71577
4.91835
5.09727
5.29843
5.48348
5.64937
5.79406
5.91224
5.99924
6.05462
6.08277
6.08869
6.08405
6.07721
6.07266
6.07361
1.77423
1.76861
1.76322
1.75814
1.75349
1.74949
1.74683
1.74736
1.75603
1.79212
1.89694
2.03556
2.12015
2.17926
2.2125
2.23643
2.26893
2.30606
2.34273
2.37859
2.41328
2.4461
2.47611
2.50295
2.52641
2.54651
2.56458
2.58214
2.59967
2.61752
1.77423
1.7686
1.76321
1.75812
1.75342
1.7493
1.74618
1.74519
1.74848
1.76252
1.79929
1.84035
1.87148
1.89019
1.89997
1.90558
1.9105
1.91586
1.92136
1.92708
1.93304
1.93921
1.94549
1.95183
1.95815
1.96444
1.97071
1.97696
1.98325
1.98957
1.77423
1.7686
1.76321
1.75811
1.75337
1.74913
1.74567
1.74369
1.74442
1.74973
1.76296
1.77748
1.79076
1.79769
1.80192
1.80369
1.80433
1.8051
1.80587
1.80672
1.80768
1.80875
1.80988
1.81106
1.81229
1.8135
1.81474
1.81598
1.81728
1.81867
1.77423
1.7686
1.7632
1.75809
1.75332
1.749
1.74529
1.74272
1.74185
1.74372
1.74864
1.75448
1.7594
1.76211
1.76329
1.76336
1.76285
1.76243
1.76196
1.7615
1.76113
1.76085
1.76066
1.76053
1.76047
1.76047
1.76051
1.76059
1.76075
1.761
1.77423
1.7686
1.7632
1.75808
1.75329
1.74891
1.74502
1.74211
1.74033
1.74028
1.74211
1.7441
1.74614
1.74641
1.74598
1.74516
1.74407
1.74311
1.74207
1.74104
1.74008
1.73921
1.73842
1.73769
1.73699
1.73638
1.7358
1.73526
1.73477
1.73436
1.77423
1.7686
1.7632
1.75807
1.75327
1.74884
1.7449
1.74173
1.73948
1.73846
1.73865
1.73901
1.73906
1.73816
1.73697
1.73571
1.73435
1.73301
1.73176
1.7305
1.72932
1.72822
1.7272
1.72626
1.72537
1.72457
1.72383
1.72314
1.72249
1.72191
1.77423
1.76859
1.76319
1.75807
1.75326
1.74881
1.74482
1.74156
1.73911
1.7377
1.73723
1.73699
1.73616
1.73476
1.73324
1.73177
1.73028
1.72882
1.72745
1.72608
1.72478
1.72357
1.72244
1.72139
1.72041
1.71949
1.71865
1.71786
1.71712
1.71645
1.77415
1.7683
1.7625
1.75677
1.7511
1.74555
1.74013
1.735
1.73028
1.72608
1.72233
1.71854
1.71426
1.70964
1.70508
1.70067
1.69631
1.69192
1.68756
1.68322
1.67893
1.6747
1.67057
1.66652
1.66257
1.65871
1.65492
1.65123
1.64761
1.64408
1.77415
1.7683
1.7625
1.75677
1.75111
1.74556
1.74016
1.73509
1.73049
1.72653
1.72316
1.71985
1.71596
1.71163
1.70726
1.70296
1.69867
1.69433
1.69001
1.68571
1.68145
1.67727
1.67318
1.66918
1.66529
1.66149
1.65777
1.65415
1.65061
1.64716
1.77415
1.7683
1.7625
1.75677
1.75112
1.74559
1.74024
1.73529
1.73098
1.7276
1.72523
1.72306
1.72015
1.71649
1.71257
1.70856
1.70444
1.70021
1.69599
1.69177
1.68761
1.68352
1.67955
1.67569
1.67194
1.66829
1.66475
1.66129
1.65792
1.65465
1.77415
1.7683
1.76251
1.75678
1.75113
1.74563
1.74038
1.73565
1.73188
1.72969
1.72945
1.72979
1.72886
1.7266
1.72359
1.72016
1.7164
1.71241
1.7084
1.70438
1.70041
1.69655
1.69284
1.68926
1.68583
1.68252
1.67935
1.67629
1.67333
1.67045
1.77415
1.7683
1.76251
1.75678
1.75116
1.7457
1.74059
1.73623
1.73346
1.7336
1.73841
1.74483
1.7482
1.74874
1.74746
1.74509
1.74193
1.73846
1.73489
1.73133
1.72789
1.72466
1.72167
1.71889
1.71632
1.71395
1.71176
1.70972
1.70779
1.70594
1.77415
1.7683
1.76251
1.75679
1.75119
1.7458
1.74088
1.73714
1.73612
1.74146
1.75941
1.78139
1.79514
1.80208
1.80447
1.80435
1.80266
1.80065
1.79836
1.79618
1.79436
1.79309
1.79233
1.79203
1.79217
1.79273
1.79359
1.79471
1.796
1.79734
1.77415
1.7683
1.76252
1.7568
1.75122
1.74591
1.74128
1.7385
1.74077
1.7584
1.8143
1.87617
1.91547
1.93763
1.94733
1.95283
1.95674
1.96128
1.96583
1.97079
1.97662
1.98386
1.99248
2.00224
2.01295
2.02436
2.03611
2.04802
2.05989
2.07135
1.77415
1.7683
1.76253
1.75681
1.75126
1.74604
1.74176
1.74028
1.74865
1.79493
1.96063
2.24658
2.36947
2.42372
2.45766
2.48472
2.52027
2.56043
2.6015
2.64358
2.68666
2.73732
2.79406
2.85353
2.91363
2.97118
3.02406
3.07114
3.11284
3.14681
1.77416
1.76831
1.76254
1.75684
1.7513
1.74615
1.7422
1.74236
1.75947
1.8645
2.06044
3.43784
4.89455
5.02963
6.00056
6.01089
6.02073
5.99902
5.96174
5.91478
5.86398
5.813
5.75548
5.6942
5.63014
5.56422
5.49511
5.42443
5.35712
5.29415
1.77416
1.76832
1.76255
1.75687
1.75135
1.74625
1.74251
1.74387
1.77025
1.9536
2.50043
10.3807
28.3227
27.3983
20.6366
19.2938
18.0414
16.9718
16.0334
15.2071
14.4792
13.8326
13.2385
12.6996
12.2138
11.7712
11.3687
11.0028
10.6664
10.3605
1.77416
1.76831
1.76254
1.75686
1.75134
1.74625
1.74251
1.74386
1.77015
1.95253
2.56569
12.5263
33.9214
36.2747
18.4451
17.7634
16.9673
16.2222
15.5376
14.9207
14.3569
13.8433
13.3604
12.9124
12.4909
12.097
11.7256
11.3752
11.0423
10.7257
1.77415
1.76831
1.76252
1.75682
1.75129
1.74615
1.74219
1.74233
1.75928
1.86293
2.20028
5.37767
8.70347
8.80654
5.49967
5.63621
5.74884
5.8144
5.84266
5.84911
5.84025
5.81987
5.78944
5.75086
5.70474
5.65376
5.59738
5.53638
5.47347
5.41436
1.77415
1.7683
1.76252
1.75681
1.75126
1.74604
1.74175
1.74025
1.7485
1.79388
1.95311
2.20431
2.3205
2.38066
2.41844
2.44842
2.48969
2.53712
2.58407
2.63068
2.67492
2.71632
2.75569
2.79194
2.82423
2.85212
2.87675
2.89925
2.92065
2.94307
1.77415
1.7683
1.76251
1.7568
1.75122
1.74591
1.74127
1.73846
1.74065
1.75796
1.81166
1.86782
1.90572
1.92932
1.93999
1.94666
1.95235
1.9587
1.96524
1.97185
1.97838
1.98477
1.99099
1.99695
2.00269
2.00825
2.01366
2.019
2.02439
2.03
1.77415
1.7683
1.76251
1.75679
1.75118
1.74579
1.74087
1.73712
1.73605
1.74124
1.75863
1.77923
1.7924
1.79945
1.80207
1.80234
1.80124
1.79991
1.79835
1.79676
1.79527
1.79392
1.79272
1.79166
1.79071
1.78993
1.78924
1.78864
1.78814
1.78776
1.77415
1.7683
1.76251
1.75678
1.75115
1.7457
1.74058
1.73621
1.73341
1.73349
1.73813
1.74419
1.74737
1.74789
1.74669
1.74436
1.74134
1.7381
1.73478
1.73142
1.72811
1.72487
1.72171
1.71863
1.71561
1.71268
1.70982
1.70702
1.7043
1.70169
1.77415
1.7683
1.76251
1.75677
1.75113
1.74563
1.74037
1.73563
1.73184
1.72961
1.72931
1.72957
1.72861
1.72636
1.72336
1.71991
1.71619
1.71229
1.70839
1.70447
1.70058
1.69675
1.69299
1.6893
1.68568
1.68211
1.67863
1.67521
1.67186
1.66862
1.77415
1.7683
1.7625
1.75677
1.75112
1.74558
1.74023
1.73527
1.73094
1.72754
1.72514
1.72296
1.72007
1.71645
1.71254
1.70852
1.70441
1.70021
1.69605
1.69189
1.68777
1.68371
1.67971
1.67578
1.67191
1.66809
1.66435
1.66067
1.65707
1.65355
1.77415
1.7683
1.7625
1.75677
1.75111
1.74555
1.74015
1.73507
1.73045
1.72647
1.7231
1.71979
1.71594
1.71164
1.70729
1.70299
1.6987
1.69436
1.69008
1.68581
1.68159
1.67742
1.67331
1.66927
1.66529
1.66138
1.65753
1.65376
1.65006
1.64645
1.77415
1.7683
1.7625
1.75676
1.7511
1.74554
1.74011
1.73498
1.73024
1.72603
1.72227
1.71851
1.71427
1.7097
1.70516
1.70075
1.69637
1.69199
1.68765
1.68334
1.67907
1.67485
1.6707
1.66661
1.66259
1.65864
1.65474
1.65092
1.64717
1.64352
1.77415
1.76829
1.76248
1.75671
1.751
1.74536
1.73981
1.73447
1.7294
1.72467
1.7202
1.71568
1.71082
1.70572
1.70067
1.69571
1.69077
1.68578
1.68079
1.67581
1.67083
1.66588
1.66097
1.6561
1.65127
1.64649
1.64176
1.63707
1.63243
1.62788
1.77415
1.76829
1.76248
1.75671
1.751
1.74537
1.73983
1.73453
1.72955
1.72498
1.72077
1.71656
1.71196
1.70707
1.70214
1.69726
1.69236
1.68739
1.68243
1.67746
1.6725
1.66756
1.66266
1.6578
1.653
1.64824
1.64353
1.63886
1.63425
1.62972
1.77415
1.76829
1.76248
1.75672
1.75101
1.74539
1.73989
1.73468
1.72989
1.72572
1.72215
1.7187
1.71474
1.7103
1.70567
1.70097
1.69618
1.69127
1.68635
1.68142
1.67649
1.67159
1.66673
1.66192
1.65717
1.65246
1.64781
1.64321
1.63867
1.6342
1.77415
1.76829
1.76248
1.75672
1.75102
1.74543
1.73999
1.73493
1.73052
1.72711
1.72488
1.723
1.72034
1.71681
1.71276
1.70843
1.70385
1.69908
1.69428
1.68944
1.6846
1.67978
1.67502
1.67032
1.66568
1.66111
1.65659
1.65213
1.64773
1.64341
1.77415
1.76829
1.76248
1.75673
1.75104
1.74548
1.74015
1.73534
1.73158
1.72963
1.73022
1.73174
1.73166
1.7299
1.72698
1.72336
1.71921
1.71476
1.71019
1.70556
1.70093
1.69634
1.69184
1.68743
1.68311
1.67889
1.67474
1.67068
1.66669
1.66278
1.77415
1.76829
1.76249
1.75673
1.75106
1.74554
1.74036
1.73595
1.73331
1.73421
1.74126
1.75078
1.75622
1.75793
1.75702
1.75466
1.7513
1.74766
1.74368
1.73962
1.7356
1.73168
1.72793
1.72438
1.721
1.71779
1.71472
1.71178
1.70895
1.7062
1.77415
1.7683
1.76249
1.75674
1.75109
1.74563
1.74063
1.73684
1.73606
1.7429
1.766
1.79435
1.81179
1.82088
1.82442
1.825
1.82379
1.8221
1.8199
1.8175
1.81517
1.81307
1.81125
1.80975
1.80859
1.80779
1.80738
1.80721
1.80727
1.80742
1.77415
1.7683
1.7625
1.75675
1.75111
1.74572
1.74095
1.73798
1.74027
1.75924
1.82338
1.89671
1.94128
1.96129
1.9708
1.97755
1.98262
1.98829
1.99472
2.0009
2.00708
2.01337
2.02019
2.02752
2.03535
2.04376
2.05277
2.06192
2.07089
2.07908
1.77415
1.76831
1.76252
1.75677
1.75114
1.74579
1.74125
1.73914
1.74568
1.78536
1.92766
2.17547
2.29154
2.32975
2.36318
2.40325
2.44922
2.49038
2.52815
2.55997
2.58568
2.60637
2.62495
2.64179
2.65654
2.66926
2.67959
2.68764
2.69454
2.70026
1.77416
1.76831
1.76253
1.7568
1.75117
1.74585
1.74144
1.74
1.74997
1.81559
2.096
2.74741
3.2539
3.33088
3.49734
3.62939
3.74839
3.83165
3.89407
3.94097
3.97612
4.00158
4.02037
4.03276
4.03918
4.04145
4.0402
4.03533
4.02659
4.01448
1.77416
1.76831
1.76251
1.75679
1.75117
1.74585
1.74144
1.73999
1.74992
1.81521
2.09195
2.65931
3.08252
3.147
3.30532
3.44317
3.57429
3.68595
3.77688
3.85127
3.91364
3.96416
4.00638
4.03961
4.0646
4.08254
4.09359
4.09845
4.09668
4.0884
1.77415
1.7683
1.76249
1.75675
1.75113
1.74579
1.74124
1.73912
1.74557
1.78471
1.92278
2.14246
2.24734
2.28652
2.32047
2.35733
2.40219
2.44819
2.49321
2.53181
2.5648
2.59314
2.61803
2.64031
2.66065
2.67871
2.69435
2.70703
2.71709
2.7256
1.77415
1.7683
1.76249
1.75675
1.75111
1.74571
1.74094
1.73795
1.74016
1.7588
1.82041
1.88617
1.92853
1.94907
1.95961
1.96708
1.97305
1.97989
1.98774
1.99538
2.00268
2.00971
2.01654
2.02334
2.03006
2.03664
2.04307
2.04928
2.05528
2.06118
1.77415
1.7683
1.76249
1.75674
1.75109
1.74562
1.74062
1.73681
1.73597
1.74262
1.76489
1.791
1.80752
1.81675
1.82054
1.82154
1.82088
1.81976
1.81825
1.81648
1.81462
1.81278
1.81098
1.80931
1.80771
1.80624
1.80486
1.80358
1.80242
1.80138
1.77415
1.76829
1.76249
1.75673
1.75106
1.74554
1.74035
1.73593
1.73325
1.73406
1.74084
1.74967
1.75472
1.75633
1.75543
1.75318
1.75005
1.74672
1.74307
1.7393
1.73552
1.73176
1.72804
1.72441
1.72085
1.71737
1.71396
1.71062
1.70734
1.70416
1.77415
1.76829
1.76248
1.75672
1.75104
1.74547
1.74014
1.73532
1.73154
1.72953
1.73003
1.73134
1.73112
1.72929
1.72635
1.72273
1.71867
1.71434
1.70992
1.70543
1.70093
1.69644
1.69198
1.68757
1.6832
1.67886
1.67457
1.67032
1.66612
1.662
1.77415
1.76829
1.76248
1.75672
1.75102
1.74542
1.73998
1.73491
1.73048
1.72704
1.72476
1.72282
1.72012
1.71657
1.71251
1.70817
1.70363
1.69892
1.69419
1.68943
1.68467
1.67993
1.67521
1.67053
1.66589
1.66129
1.65672
1.65218
1.6477
1.64328
1.77415
1.76829
1.76248
1.75671
1.75101
1.74539
1.73988
1.73466
1.72986
1.72566
1.72206
1.71859
1.71463
1.7102
1.70557
1.70086
1.69608
1.69121
1.68634
1.68146
1.67659
1.67174
1.66692
1.66213
1.65738
1.65266
1.64798
1.64333
1.63874
1.63421
1.77415
1.76829
1.76248
1.75671
1.751
1.74536
1.73982
1.73451
1.72951
1.72493
1.72071
1.71649
1.7119
1.70701
1.70209
1.69721
1.69232
1.68737
1.68244
1.67751
1.67259
1.66769
1.66282
1.65799
1.65319
1.64842
1.6437
1.639
1.63436
1.62978
1.77414
1.76829
1.76248
1.75671
1.75099
1.74535
1.7398
1.73444
1.72937
1.72462
1.72015
1.71563
1.71079
1.70571
1.70067
1.69571
1.69077
1.6858
1.68084
1.67589
1.67095
1.66603
1.66114
1.65629
1.65147
1.64668
1.64194
1.63723
1.63256
1.62797
1.77415
1.76829
1.76248
1.75671
1.75099
1.74535
1.73977
1.73437
1.72918
1.72424
1.71947
1.71467
1.70966
1.7045
1.69936
1.69427
1.6892
1.6841
1.679
1.6739
1.66881
1.66373
1.65868
1.65366
1.64866
1.6437
1.63878
1.63388
1.62902
1.62423
1.77415
1.76829
1.76248
1.75671
1.751
1.74535
1.73979
1.73442
1.72929
1.72446
1.71986
1.71527
1.71044
1.70541
1.70036
1.69533
1.69029
1.6852
1.68011
1.67502
1.66994
1.66487
1.65982
1.65481
1.64982
1.64487
1.63995
1.63506
1.63021
1.62542
1.77415
1.76829
1.76248
1.75671
1.751
1.74537
1.73983
1.73453
1.72954
1.72497
1.72078
1.71668
1.71228
1.70756
1.70272
1.69781
1.69284
1.68778
1.68272
1.67765
1.67258
1.66753
1.6625
1.6575
1.65254
1.64761
1.64271
1.63785
1.63302
1.62826
1.77415
1.76829
1.76248
1.75672