/*--------------------------------*- C++ -*----------------------------------*\
| =========                 |                                                 |
| \\      /  F ield         | OpenFOAM: The Open Source CFD Toolbox           |
|  \\    /   O peration     | Version:  2512                                  |
|   \\  /    A nd           | Website:  www.openfoam.com                      |
|    \\/     M anipulation  |                                                 |
\*---------------------------------------------------------------------------*/
FoamFile
{
    version     2.0;
    format      ascii;
    arch        "LSB;label=32;scalar=64";
    class       volScalarField;
    location    "300";
    object      p;
}
// * * * * * * * * * * * * * * * * * * * * * * * * * * * * * * * * * * * * * //

dimensions      [0 2 -2 0 0 0 0];

internalField   nonuniform List<scalar> 
90398
(
2.67742
2.68098
2.68411
2.67712
2.64014
2.53782
2.31335
1.88738
1.16858
0.102157
-1.25099
-2.58022
-3.3309
-3.1569
-2.34206
-1.50606
-1.00397
-0.7643
-0.583351
-0.400168
-0.263523
-0.19005
-0.146653
-0.107959
-0.0732926
-0.0468713
-0.0267696
-0.0101531
0.00450551
0.00550966
2.68848
2.69464
2.70464
2.70998
2.69224
2.61724
2.42647
2.03087
1.31574
0.189074
-1.32692
-2.86667
-3.69379
-3.39088
-2.38221
-1.44514
-0.947822
-0.736728
-0.558712
-0.370318
-0.240133
-0.177223
-0.138475
-0.0997471
-0.0645088
-0.0382905
-0.019176
-0.00418531
0.00886662
0.00962283
2.70954
2.72085
2.74436
2.77424
2.79561
2.77773
2.66042
2.33669
1.64282
0.399187
-1.48082
-3.50712
-4.49065
-3.87629
-2.43857
-1.29745
-0.828851
-0.685788
-0.514015
-0.316293
-0.199584
-0.154315
-0.120819
-0.0815376
-0.0483383
-0.0273443
-0.0146905
-0.00649595
0.000356056
-0.000602779
2.73878
2.75753
2.80073
2.86707
2.94847
3.0225
3.03216
2.84833
2.22804
0.822265
-1.72143
-4.66664
-5.87308
-4.64191
-2.4642
-1.01446
-0.625604
-0.587915
-0.41395
-0.21222
-0.133243
-0.120101
-0.0902138
-0.043011
-0.00547782
0.0150993
0.0253485
0.0300218
0.030564
0.020981
2.77348
2.80151
2.86961
2.98329
3.14636
3.35343
3.56405
3.63536
3.22106
1.64693
-2.08427
-6.7112
-8.1215
-5.69421
-2.35937
-0.55412
-0.405579
-0.515589
-0.283405
-0.0602679
-0.0440253
-0.0880208
-0.0774529
-0.0336981
0.00095503
0.0187143
0.0277619
0.0307537
0.0274094
0.0128956
2.8102
2.84865
2.94519
3.11468
3.37955
3.76643
4.28046
4.79515
4.88364
3.26489
-2.58955
-10.3265
-11.7224
-7.0254
-1.80815
0.410584
-0.0307414
-0.436862
-0.1362
0.117142
0.0803641
-0.000513863
0.00158654
0.0391773
0.0661091
0.0810579
0.0923264
0.0962709
0.0844417
0.0489356
2.84506
2.89399
3.01978
3.24903
3.6302
4.24232
5.19345
6.4702
7.66023
6.30313
-3.45082
-16.5681
-17.326
-9.11611
-0.94679
1.76584
0.519461
-0.17349
0.13546
0.288909
0.140927
0.0264713
0.022014
0.0428135
0.0563047
0.0772115
0.11074
0.136239
0.131763
0.0837187
2.87409
2.9324
3.08453
3.36954
3.86677
4.73105
6.24213
8.81105
12.565
11.442
0.286228
-23.0439
-25.1884
-13.9295
1.50436
3.07052
0.56746
0.0653144
0.581652
0.58697
0.30929
0.173726
0.144846
0.103033
0.0592465
0.0624435
0.11615
0.176622
0.190539
0.132704
2.89373
2.95895
3.13088
3.45836
4.04952
5.13605
7.24737
11.3957
15.8659
26.4162
1.84946
-49.6875
-38.9121
-18.8843
8.31767
5.72775
0.460662
0.119594
0.874647
0.720575
0.368222
0.283036
0.265566
0.16453
0.0536032
0.0303046
0.104996
0.209154
0.273411
0.214225
2.90132
2.96984
3.15177
3.50127
4.14274
5.34698
7.86368
13.2784
22.8584
46.8099
8.40527
-90.95
-61.2611
-26.1691
14.8532
9.11314
1.13538
0.534678
1.26946
0.896251
0.43403
0.340263
0.28312
0.0865252
-0.124297
-0.206173
-0.137761
-0.000853923
0.0974606
0.214802
2.89552
2.96319
3.14326
3.48908
4.12264
5.31028
7.77668
13.0406
24.2301
65.3736
33.1748
-51.1251
-28.5113
17.2523
10.1865
1.23079
0.103604
0.828809
0.563272
0.165216
0.101856
0.0491517
-0.173843
-0.430714
-0.55386
-0.507618
-0.356838
-0.281489
0.0967718
2.87655
2.93932
3.10587
3.42286
3.99204
5.03239
7.01781
10.8179
18.3117
32.2762
-11.3385
-56.6524
-50.2207
-24.0771
10.2907
7.94144
1.40963
0.300999
1.1249
1.18143
0.914958
0.815753
0.701199
0.421354
0.0846642
-0.144991
-0.212518
-0.156615
-0.105739
0.0769261
2.84617
2.90062
3.04451
3.31357
3.77913
4.57836
5.94064
8.14536
10.973
14.0721
-5.00562
-30.7456
-28.4933
-13.8305
3.27537
4.25191
0.606309
-0.426239
0.27796
0.590566
0.498447
0.46308
0.449599
0.334024
0.160329
0.0390874
0.0343324
0.0988818
0.353193
0.0615636
2.80738
2.85137
2.96684
3.17664
3.52117
4.06419
4.8775
5.88577
6.54991
4.43728
-5.12867
-16.1444
-16.517
-8.11529
0.135028
2.3924
0.740948
-0.125838
0.231382
0.467047
0.35814
0.251461
0.205497
0.119843
-0.0152907
-0.126701
-0.155008
-0.120793
0.0696346
-0.139764
2.76399
2.79674
2.88166
3.03011
3.2577
3.57988
3.98158
4.30656
4.1004
2.11359
-3.63711
-10.3471
-11.3375
-6.54242
-1.25475
0.860739
0.276587
-0.32212
-0.158621
0.0544743
0.041886
0.00315192
0.0172227
0.0146294
-0.034324
-0.0889824
-0.104313
-0.0744015
0.00359787
-0.0216563
2.72014
2.74196
2.79784
2.89028
3.01772
3.16761
3.28931
3.2284
2.64127
0.901598
-2.72608
-6.81337
-7.89127
-5.37871
-2.00646
-0.227418
-0.184472
-0.46018
-0.34611
-0.141859
-0.0834116
-0.0814088
-0.0581353
-0.0431429
-0.0625982
-0.0950376
-0.107145
-0.0860736
-0.0398243
-0.00868172
2.67975
2.69201
2.72286
2.76848
2.81676
2.84117
2.78068
2.50439
1.78192
0.305632
-2.15811
-4.80677
-5.77694
-4.46551
-2.26448
-0.821775
-0.487541
-0.536249
-0.427252
-0.242558
-0.15153
-0.125542
-0.0983619
-0.0726282
-0.0678546
-0.0767166
-0.0783517
-0.0608305
-0.0303076
-0.00154052
2.64627
2.65098
2.66222
2.67215
2.66285
2.60161
2.42782
2.03742
1.28031
0.00726661
-1.80871
-3.65125
-4.46075
-3.7666
-2.30529
-1.16419
-0.72122
-0.625576
-0.503008
-0.337972
-0.234551
-0.190189
-0.155127
-0.120045
-0.0988197
-0.0919521
-0.087199
-0.0734696
-0.0528149
-0.0212505
2.6224
2.62193
2.61981
2.60589
2.55937
2.44537
2.20685
1.75962
1.00193
-0.135309
-1.59635
-3.00629
-3.69933
-3.32375
-2.2917
-1.35197
-0.867848
-0.687095
-0.548771
-0.394316
-0.28176
-0.220344
-0.175875
-0.134803
-0.105678
-0.0915868
-0.0844848
-0.0733956
-0.05644
-0.0226436
2.6099
2.60683
2.59796
2.57208
2.50731
2.36818
2.10013
1.62936
0.876864
-0.192777
-1.49544
-2.71777
-3.354
-3.1115
-2.27124
-1.42958
-0.935452
-0.719192
-0.572497
-0.42152
-0.30375
-0.23399
-0.186327
-0.144944
-0.114521
-0.0983772
-0.0901132
-0.0788367
-0.0611011
-0.0233959
2.66849
2.67138
2.67278
2.66295
2.62208
2.51514
2.28693
1.86038
1.14778
0.0987311
-1.22307
-2.51712
-3.24946
-3.08824
-2.30505
-1.49776
-1.00995
-0.77239
-0.591066
-0.409687
-0.274782
-0.201169
-0.156712
-0.117158
-0.0817392
-0.0543892
-0.0332228
-0.0157377
0.000147761
0.00177462
2.67936
2.68476
2.69285
2.69497
2.67266
2.59192
2.39563
1.99731
1.28692
0.179003
-1.29544
-2.78601
-3.58939
-3.30691
-2.34138
-1.43927
-0.95681
-0.746472
-0.568077
-0.382108
-0.253401
-0.189496
-0.149195
-0.10973
-0.0743168
-0.0478342
-0.0280534
-0.0121621
0.00248988
0.00436499
2.70002
2.71039
2.7316
2.75741
2.7727
2.7466
2.61981
2.28847
1.59531
0.373135
-1.44035
-3.38221
-4.33274
-3.76018
-2.39076
-1.29711
-0.843662
-0.698045
-0.52532
-0.330746
-0.215352
-0.168633
-0.133521
-0.093569
-0.0600706
-0.0384913
-0.0247203
-0.0149825
-0.00577224
-0.00512409
2.72872
2.74626
2.78656
2.84752
2.92043
2.98211
2.97492
2.77312
2.14328
0.760617
-1.6657
-4.44946
-5.61844
-4.47354
-2.40757
-1.0233
-0.649133
-0.607241
-0.434807
-0.236243
-0.154846
-0.13734
-0.105583
-0.0585902
-0.0213676
-0.000278979
0.0111916
0.0174324
0.0208099
0.0135422
2.76277
2.78925
2.85365
2.9602
3.1111
3.29897
3.48001
3.51209
3.06106
1.50472
-1.9963
-6.31234
-7.70307
-5.44973
-2.2945
-0.572733
-0.427356
-0.528755
-0.30974
-0.0992669
-0.080667
-0.11761
-0.103809
-0.0600709
-0.0251162
-0.00580087
0.00555482
0.0108327
0.011143
0.000650402
2.7988
2.83535
2.92721
3.08735
3.33479
3.69158
4.15541
4.58942
4.57053
2.92141
-2.46601
-9.5698
-11.0593
-6.6897
-1.73709
0.378803
-0.0652981
-0.4513
-0.157863
0.0836826
0.0482325
-0.0296562
-0.0290267
0.00428914
0.0282992
0.0428596
0.0553654
0.0610228
0.0538304
0.0252276
2.83299
2.8797
2.99996
3.21726
3.57456
4.14206
5.00631
6.11964
7.03169
5.51322
-3.30709
-15.0774
-16.2582
-8.67718
-0.849536
1.85778
0.546347
-0.213638
0.0565802
0.207703
0.0767932
-0.0238322
-0.0213727
0.00169934
0.0155571
0.0357482
0.0675555
0.0910414
0.0902557
0.0498917
2.86144
2.91712
3.06321
3.33525
3.80266
4.60147
5.97126
8.20964
11.2115
10.5179
0.0462773
-20.8864
-23.3272
-13.3912
1.60659
3.30935
0.790811
0.176131
0.569544
0.507619
0.202078
0.052741
0.0232706
-0.0108773
-0.0459422
-0.038644
0.0138975
0.0715181
0.092971
0.0545823
2.88068
2.94293
3.10801
3.4223
3.98222
4.98779
6.88618
10.4786
14.6387
22.1932
-0.82496
-36.7029
-35.7349
-20.8309
10.7045
6.31146
0.364905
0.0305225
0.81841
0.666661
0.291342
0.179686
0.151847
0.0575784
-0.0458018
-0.0726286
-0.0124492
0.0745346
0.139912
0.110305
2.88806
2.95352
3.12791
3.46185
4.06908
5.18516
7.43365
12.0608
20.4949
40.1916
-1.43572
-90.2344
-52.9576
-34.5352
23.6427
12.4881
1.63659
0.233751
0.776722
0.382875
-0.082929
-0.171668
-0.194706
-0.333908
-0.492557
-0.545983
-0.472872
-0.337787
-0.229606
-0.0208538
2.88231
2.94694
3.11952
3.44989
4.04964
5.15027
7.35422
11.8569
21.5743
56.0539
-45.5556
22.9881
11.5604
0.965961
-0.586073
0.0149153
-0.236546
-0.601138
-0.629208
-0.623304
-0.765503
-0.949
-1.02724
-0.968626
-0.812736
-0.733045
-0.260273
2.86363
2.92349
3.08337
3.38757
3.92649
4.88879
6.67525
9.9794
16.6521
27.1742
-13.0216
-65.0378
-47.5128
-32.5285
12.4857
7.61924
1.03467
0.153623
0.928264
0.919501
0.612367
0.486238
0.373417
0.116161
-0.193193
-0.408335
-0.483637
-0.436071
-0.395281
-0.179964
2.83375
2.88567
3.0238
3.28038
3.71748
4.45606
5.69161
7.62302
9.91257
12.6146
-3.5146
-27.5835
-28.2741
-13.9029
3.0159
4.04265
0.85382
-0.147973
0.327932
0.502211
0.373932
0.334395
0.32584
0.240667
0.106613
0.0163184
0.0234871
0.093768
0.339826
0.0578738
2.79561
2.83751
2.94771
3.14625
3.46864
3.97167
4.71049
5.59041
6.08231
4.06218
-4.40645
-14.7283
-15.7306
-7.88493
0.0180353
2.45221
0.845303
-0.134219
0.105257
0.316983
0.238761
0.159675
0.127742
0.0592004
-0.0555573
-0.145714
-0.160654
-0.114643
0.0431452
-0.0942848
2.75296
2.78391
2.86449
3.00431
3.21608
3.51194
3.87182
4.13673
3.86973
1.94544
-3.27455
-9.55659
-10.7754
-6.31869
-1.28536
0.753201
0.173853
-0.380554
-0.18743
0.0471564
0.0524044
0.0165079
0.0224749
0.0131153
-0.0340975
-0.0800308
-0.086846
-0.0502139
0.0229106
0.0148379
2.70983
2.73024
2.78274
2.86871
2.98533
3.11882
3.21651
3.12835
2.5264
0.840056
-2.54251
-6.40057
-7.52844
-5.19492
-1.99154
-0.286456
-0.216997
-0.444751
-0.323577
-0.135515
-0.0895781
-0.0948473
-0.0769275
-0.0628529
-0.0775724
-0.10153
-0.105859
-0.0793926
-0.0338184
-0.00078467
2.67013
2.68132
2.70956
2.75039
2.7913
2.80537
2.73176
2.44435
1.72306
0.283079
-2.06055
-4.57927
-5.54352
-4.3221
-2.22757
-0.846934
-0.516313
-0.550484
-0.442147
-0.265209
-0.174199
-0.142033
-0.109012
-0.0791416
-0.0705482
-0.0756055
-0.074448
-0.0554061
-0.0266534
0.00339687
2.63722
2.6411
2.65033
2.65671
2.64225
2.57433
2.39357
1.99962
1.24874
0.00280144
-1.7469
-3.51867
-4.31164
-3.66448
-2.26963
-1.17387
-0.741379
-0.637654
-0.50986
-0.34439
-0.238783
-0.190516
-0.153375
-0.118555
-0.0979786
-0.0911966
-0.0859169
-0.0712665
-0.0506899
-0.0167922
2.61377
2.61265
2.60892
2.59223
2.54193
2.42343
2.18122
1.73389
0.983998
-0.1319
-1.55244
-2.92052
-3.59925
-3.24795
-2.25776
-1.35094
-0.879057
-0.695875
-0.5542
-0.399871
-0.28748
-0.224891
-0.179498
-0.138339
-0.109018
-0.0939495
-0.0852274
-0.0720788
-0.0541944
-0.018225
2.60147
2.59784
2.58753
2.55926
2.49132
2.34869
2.07843
1.60909
0.864979
-0.185939
-1.45859
-2.65067
-3.27498
-3.04839
-2.23944
-1.4252
-0.943804
-0.727561
-0.578193
-0.426899
-0.309187
-0.238139
-0.188837
-0.146467
-0.115344
-0.0982733
-0.0888082
-0.076115
-0.0583372
-0.0196445
2.65026
2.65147
2.64881
2.63251
2.58311
2.46642
2.22947
1.79967
1.09718
0.0792323
-1.18419
-2.41
-3.10785
-2.9724
-2.24898
-1.49193
-1.02411
-0.785817
-0.602363
-0.423386
-0.290169
-0.21492
-0.167836
-0.126511
-0.0897851
-0.0609547
-0.0381578
-0.0194135
-0.00219695
-3.26399e-05
2.66074
2.6643
2.66795
2.66281
2.63051
2.53765
2.32916
1.92343
1.21999
0.145658
-1.25393
-2.65301
-3.41549
-3.17226
-2.28368
-1.43973
-0.975859
-0.761532
-0.580668
-0.397834
-0.270204
-0.20352
-0.160239
-0.119426
-0.0833806
-0.0559449
-0.0346999
-0.0172332
-0.000764573
0.00192693
2.68059
2.6888
2.70479
2.72172
2.72401
2.6807
2.53392
2.1852
1.49045
0.305611
-1.39278
-3.18623
-4.08326
-3.58534
-2.33059
-1.3115
-0.87204
-0.714577
-0.53829
-0.347847
-0.23236
-0.181491
-0.143462
-0.102764
-0.0689267
-0.0461935
-0.0305211
-0.0184091
-0.00654032
-0.00498572
2.70815
2.72308
2.75698
2.80659
2.86172
2.8976
2.85593
2.61642
1.96322
0.621101
-1.60227
-4.12162
-5.23495
-4.23563
-2.34814
-1.06399
-0.695666
-0.632311
-0.457674
-0.262839
-0.175628
-0.149981
-0.115565
-0.0696729
-0.0333448
-0.0116008
0.00155816
0.0100466
0.0164542
0.0109051
2.74083
2.76412
2.82057
2.91245
3.03869
3.18753
3.30883
3.26261
2.73644
1.2206
-1.89311
-5.70738
-7.06482
-5.1088
-2.23615
-0.642432
-0.476811
-0.544565
-0.337435
-0.138063
-0.107754
-0.130176
-0.112035
-0.0694974
-0.0354469
-0.0152986
-0.00222182
0.00496907
0.00781119
-0.000781743
2.77539
2.80802
2.88999
3.03128
3.24509
3.54335
3.90443
4.18572
3.96363
2.31935
-2.25579
-8.37938
-10.012
-6.23133
-1.74057
0.206215
-0.153136
-0.464571
-0.186141
0.0393661
0.0164433
-0.0484288
-0.0469331
-0.0166808
0.00617515
0.0223456
0.037415
0.0459494
0.0429637
0.0200554
2.80815
2.85024
2.9584
3.15208
3.46457
3.94592
4.63968
5.45752
5.89102
4.24079
-2.89513
-12.7173
-14.5453
-7.89503
-0.834851
1.59222
0.399688
-0.271165
5.99356e-05
0.16781
0.0697067
-0.0162699
-0.0155822
0.000537495
0.00813547
0.0222283
0.047245
0.0655947
0.0648735
0.0314829
2.83537
2.88592
3.01813
3.26194
3.67321
4.35343
5.45775
7.1257
8.90825
8.2337
-0.53324
-17.0632
-21.1346
-12.2522
1.57122
3.02638
0.668019
0.0470388
0.394079
0.370947
0.117873
-0.00410448
-0.0146433
-0.0303824
-0.0514576
-0.0424609
0.00072547
0.0466827
0.0640744
0.0392198
2.85372
2.91034
3.06038
3.34264
3.83623
4.69538
6.21234
8.85856
11.7899
15.416
2.52457
-28.0828
-34.2361
-18.9094
9.89492
5.73505
0.350604
0.065141
0.792613
0.66378
0.290265
0.157243
0.122037
0.0475919
-0.0364984
-0.0653835
-0.0286907
0.0298525
0.0705467
0.0678655
2.86067
2.92012
3.07872
3.37871
3.91272
4.86567
6.64488
10.0275
15.6813
25.7741
3.35128
-110.805
-65.1555
-30.9308
22.0889
10.537
0.658389
-0.330546
0.403366
0.209262
-0.174421
-0.24678
-0.235025
-0.306525
-0.406096
-0.441211
-0.389295
-0.292093
-0.218516
-0.025294
2.85502
2.91369
3.07061
3.36725
3.89458
4.83421
6.57985
9.87883
16.3589
32.6427
-39.8792
-31.8503
22.4741
10.8024
0.928507
-0.384938
0.161346
-0.088271
-0.484156
-0.568646
-0.579492
-0.683357
-0.821863
-0.890074
-0.857841
-0.74701
-0.685856
-0.30194
2.83697
2.89134
3.03648
3.30941
3.78431
4.60589
6.03583
8.48917
13.1796
18.3127
7.95781
-60.5124
-54.4328
-38.8731
10.3165
5.45017
0.059885
-0.317732
0.511925
0.592244
0.37979
0.296533
0.226948
0.044847
-0.200825
-0.389562
-0.47377
-0.462746
-0.417433
-0.29896
2.80816
2.85514
2.9799
3.20942
3.59326
4.22152
5.21771
6.67036
8.03862
7.04809
0.297414
-22.7314
-27.3268
-13.4844
1.83346
3.06944
0.701938
-0.0543369
0.293991
0.397334
0.26593
0.209775
0.190093
0.117736
0.00285991
-0.0726554
-0.0686837
-0.00479878
0.155954
0.0135069
2.77141
2.80894
2.90761
3.0839
3.36472
3.78968
4.3805
5.02247
5.19228
3.33668
-3.40191
-12.5679
-14.4823
-7.56566
-0.450586
1.93488
0.607418
-0.267991
-0.0724234
0.148611
0.126736
0.0839618
0.0658426
0.0130939
-0.077441
-0.147293
-0.158893
-0.117594
-0.0239471
-0.0689644
2.73031
2.7576
2.82892
2.9513
3.13243
3.37647
3.64955
3.7969
3.40039
1.60885
-2.76334
-8.36433
-9.90593
-6.04131
-1.45326
0.450966
-0.0148266
-0.455135
-0.237841
0.00779787
0.0340062
0.00356048
0.000254896
-0.0138108
-0.0535732
-0.0873771
-0.0862356
-0.0480901
0.0104372
0.019347
2.68875
2.70623
2.75143
2.82399
2.91852
3.01817
3.06687
2.92144
2.28124
0.687365
-2.30162
-5.77908
-6.97165
-4.94858
-2.02403
-0.439473
-0.322066
-0.473713
-0.33696
-0.158306
-0.112917
-0.116764
-0.101278
-0.0863309
-0.0933938
-0.106632
-0.103618
-0.0757903
-0.0369876
-0.00553899
2.65048
2.65933
2.68178
2.71238
2.73762
2.72989
2.62901
2.31633
1.59063
0.21309
-1.92874
-4.23406
-5.19063
-4.12672
-2.20949
-0.923149
-0.583548
-0.57933
-0.46194
-0.291882
-0.199592
-0.160609
-0.123669
-0.0914901
-0.0791325
-0.0793996
-0.075017
-0.0554795
-0.0297355
0.000756085
2.61875
2.62075
2.62532
2.62381
2.59813
2.51607
2.3203
1.91657
1.17415
-0.0243611
-1.66062
-3.30767
-4.07441
-3.5121
-2.23151
-1.20671
-0.782409
-0.660077
-0.523629
-0.359026
-0.250878
-0.197099
-0.157245
-0.122586
-0.101828
-0.093566
-0.0863314
-0.0701422
-0.0493638
-0.0140001
2.59614
2.59345
2.58582
2.56278
2.50403
2.37591
2.12519
1.67553
0.938521
-0.139053
-1.48677
-2.7766
-3.43046
-3.12559
-2.21202
-1.36096
-0.904871
-0.713886
-0.56539
-0.410489
-0.297159
-0.231766
-0.18472
-0.143631
-0.114154
-0.0975104
-0.0863021
-0.070602
-0.05152
-0.0144425
2.58425
2.5792
2.56537
2.5315
2.45646
2.30632
2.03045
1.56191
0.832102
-0.184842
-1.40133
-2.53425
-3.13543
-2.94042
-2.19154
-1.42609
-0.962848
-0.743106
-0.588072
-0.435973
-0.317973
-0.244733
-0.193281
-0.150008
-0.118259
-0.0996831
-0.0880499
-0.0732237
-0.0549364
-0.0161
2.62373
2.62241
2.61368
2.58789
2.52624
2.39584
2.14681
1.71299
1.02503
0.0510361
-1.13291
-2.26548
-2.91657
-2.8162
-2.17496
-1.48524
-1.04313
-0.804621
-0.620248
-0.44519
-0.313643
-0.23561
-0.184879
-0.1412
-0.102777
-0.0719835
-0.0471736
-0.0266974
-0.00773854
-0.00369252
2.63361
2.63443
2.63145
2.6157
2.56922
2.45953
2.23446
1.81959
1.12772
0.101999
-1.19875
-2.47595
-3.18423
-2.99441
-2.2103
-1.44361
-1.00308
-0.78418
-0.601847
-0.423539
-0.296584
-0.22578
-0.178473
-0.135551
-0.0979422
-0.0684826
-0.0449268
-0.0253448
-0.00692669
-0.00248049
2.6523
2.65734
2.66556
2.66964
2.65366
2.58674
2.41318
2.04288
1.35088
0.222859
-1.33082
-2.93325
-3.7608
-3.36065
-2.26244
-1.34177
-0.917715
-0.744587
-0.565304
-0.380111
-0.262833
-0.205464
-0.163333
-0.121209
-0.085817
-0.0604749
-0.0414351
-0.0260022
-0.0111067
-0.00749097
2.67822
2.68936
2.71382
2.74714
2.7775
2.77826
2.69129
2.4052
1.73315
0.455529
-1.53099
-3.7253
-4.74742
-3.93619
-2.29687
-1.1477
-0.779243
-0.682356
-0.503123
-0.311948
-0.215635
-0.178317
-0.139648
-0.0937844
-0.0568497
-0.0328017
-0.0162481
-0.00426629
0.00591282
0.00393978
2.70892
2.72761
2.77244
2.84337
2.9357
3.03193
3.07681
2.93714
2.33852
0.888872
-1.79558
-5.00766
-6.283
-4.70988
-2.22778
-0.810546
-0.600656
-0.610811
-0.408057
-0.21215
-0.160038
-0.161246
-0.136007
-0.0927692
-0.0576692
-0.0349112
-0.0188737
-0.00871441
-0.00238084
-0.0067106
2.74133
2.76847
2.83628
2.95091
3.11879
3.33971
3.57357
3.67502
3.26297
1.66506
-2.08961
-7.07873
-8.70133
-5.69388
-1.89897
-0.203064
-0.371628
-0.550091
-0.283983
-0.064111
-0.0546485
-0.0915881
-0.0806837
-0.0474926
-0.0206223
-0.00026289
0.0178419
0.0290803
0.0304567
0.014319
2.77201
2.80765
2.89893
3.05966
3.31157
3.68223
4.16965
4.65235
4.64556
2.95304
-2.47527
-10.2335
-12.2903
-6.92456
-1.17735
0.73893
-0.0565242
-0.454254
-0.147097
0.0527577
0.00684279
-0.0525995
-0.0476352
-0.0302393
-0.0191619
-0.00415001
0.0189776
0.0363325
0.0399109
0.0180583
2.79745
2.84069
2.95323
3.15748
3.49257
4.02334
4.81488
5.86402
6.63772
5.40258
-0.628812
-13.0706
-18.1298
-10.5526
0.45141
1.73503
0.0768592
-0.292739
0.127779
0.240282
0.102669
0.026628
0.0295041
0.0238862
0.00864148
0.00905155
0.0331919
0.059316
0.0685343
0.0440181
2.81451
2.86319
2.99155
3.22835
3.6303
4.30244
5.39471
7.11353
9.15503
9.56009
2.49768
-19.9074
-28.6097
-15.3659
4.3463
3.06221
-0.190396
-0.306664
0.38245
0.413717
0.183191
0.102869
0.104896
0.0800727
0.0338524
0.0133041
0.0325548
0.0655239
0.08927
0.0760327
2.82085
2.872
3.00803
3.2604
3.6954
4.44086
5.72334
7.90841
11.1824
14.887
12.3173
-54.7105
-50.2384
-23.3482
9.655
5.28822
0.0541467
-0.123164
0.675793
0.62362
0.292502
0.17393
0.151415
0.083291
-0.00994101
-0.0693609
-0.0717341
-0.0396673
-0.00668459
0.0514758
2.81534
2.86578
3.0003
3.24972
3.67904
4.41385
5.67339
7.80977
10.9997
16.1971
16.8373
-42.1293
-71.6776
-33.9628
10.8936
6.26327
0.627872
0.0531781
0.615012
0.465252
0.100136
-0.0337452
-0.060425
-0.132789
-0.226619
-0.289053
-0.287814
-0.235019
-0.191637
-0.0380434
2.7982
2.8448
2.96873
3.1972
3.58347
4.22534
5.25743
6.85955
8.72957
9.16096
8.60095
-36.6799
-48.9008
-23.8756
5.77475
3.68831
0.160415
-0.161474
0.446402
0.528353
0.365407
0.305575
0.295469
0.216313
0.085599
-0.0227124
-0.0699191
-0.0635675
-0.0272261
-0.0210849
2.77094
2.81089
2.91664
3.10815
3.41986
3.90841
4.6227
5.53867
6.13983
4.89106
0.491964
-17.0293
-23.3067
-11.2353
0.840064
1.98254
0.341521
-0.168294
0.135529
0.249796
0.1578
0.105393
0.0926003
0.0500388
-0.0237099
-0.0700189
-0.0586429
-0.000489624
0.0876482
0.0637085
2.7362
2.7676
2.85023
2.99535
3.21986
3.54394
3.95418
4.31868
4.17141
2.42377
-2.74211
-10.2245
-12.453
-6.80443
-0.865807
1.11749
0.261099
-0.316531
-0.125946
0.0777589
0.0800015
0.0486446
0.0350387
0.00287719
-0.0537034
-0.095888
-0.0957037
-0.0579009
-0.00115953
-0.00450374
2.69736
2.71953
2.77756
2.87512
3.01427
3.18943
3.35379
3.3588
2.8395
1.17935
-2.41455
-7.11078
-8.71297
-5.59521
-1.66377
0.0331618
-0.21597
-0.502095
-0.292401
-0.0610973
-0.0158604
-0.0327042
-0.0350571
-0.0412843
-0.0633512
-0.0795992
-0.0695858
-0.0329249
0.01069
0.0267695
2.65808
2.67135
2.7058
2.75913
2.82317
2.877
2.86238
2.64686
1.97174
0.485381
-2.09345
-5.0815
-6.25579
-4.61764
-2.06944
-0.644823
-0.464768
-0.527988
-0.372531
-0.194566
-0.138001
-0.133463
-0.11784
-0.101267
-0.0992038
-0.10114
-0.091374
-0.0638621
-0.0321597
-0.00273869
2.62189
2.62732
2.64116
2.65703
2.6604
2.62285
2.48581
2.14124
1.41688
0.123624
-1.78963
-3.82433
-4.73329
-3.86596
-2.18897
-1.02757
-0.675059
-0.619578
-0.486936
-0.322027
-0.228215
-0.184069
-0.145116
-0.111129
-0.0933815
-0.085874
-0.0756212
-0.0540864
-0.0296855
0.0012463
2.59187
2.59106
2.58865
2.5757
2.5342
2.43268
2.21667
1.80075
1.07255
-0.059859
-1.55647
-3.04116
-3.76592
-3.31054
-2.18326
-1.25137
-0.836563
-0.691001
-0.545382
-0.382974
-0.272373
-0.212429
-0.168923
-0.132637
-0.109434
-0.096931
-0.0855372
-0.0668241
-0.0454052
-0.0102447
2.57045
2.56537
2.55185
2.51951
2.44873
2.30719
2.04485
1.59256
0.874203
-0.150102
-1.40305
-2.58758
-3.20519
-2.96125
-2.151
-1.37408
-0.93821
-0.738228
-0.582712
-0.42764
-0.312784
-0.243628
-0.19432
-0.152696
-0.122158
-0.102869
-0.0880182
-0.0692358
-0.0486268
-0.0115508
2.55918
2.55195
2.53278
2.49067
2.40541
2.24462
1.96094
1.49367
0.78371
-0.186312
-1.32668
-2.37823
-2.94619
-2.79281
-2.12616
-1.42624
-0.98657
-0.763239
-0.602599
-0.450312
-0.331984
-0.256161
-0.202412
-0.158028
-0.124914
-0.103777
-0.0886871
-0.070873
-0.0513363
-0.0131164
2.59045
2.58612
2.57008
2.53288
2.45657
2.3101
2.04767
1.61088
0.942532
0.0235589
-1.06668
-2.09297
-2.69029
-2.6286
-2.07995
-1.46647
-1.05441
-0.818129
-0.634895
-0.465048
-0.335353
-0.254305
-0.199832
-0.153815
-0.113644
-0.0809036
-0.0540272
-0.0317651
-0.0111428
-0.00506983
2.59958
2.59714
2.58617
2.55773
2.49441
2.36518
2.12195
1.69902
1.02453
0.0601474
-1.12533
-2.26684
-2.91052
-2.77782
-2.11228
-1.43381
-1.02096
-0.799768
-0.618339
-0.445948
-0.319875
-0.244867
-0.193596
-0.148551
-0.109263
-0.0777079
-0.0518947
-0.0304698
-0.0104929
-0.00438114
2.61684
2.61812
2.617
2.60578
2.56843
2.47458
2.2723
1.88187
1.20056
0.146349
-1.24194
-2.63744
-3.37898
-3.08211
-2.16325
-1.35555
-0.950603
-0.76349
-0.584575
-0.406767
-0.288188
-0.224459
-0.17844
-0.134932
-0.0978573
-0.0697013
-0.047461
-0.0292759
-0.012161
-0.00705962
2.64074
2.64739
2.6605
2.67457
2.67638
2.63791
2.50351
2.17382
1.49606
0.308445
-1.41955
-3.26319
-4.16143
-3.55231
-2.20364
-1.20825
-0.839324
-0.708833
-0.530106
-0.347252
-0.24477
-0.197992
-0.156631
-0.111759
-0.0744427
-0.0479338
-0.0282549
-0.013104
0.000205208
0.0012439
2.66901
2.68229
2.71317
2.75951
2.81315
2.85166
2.81863
2.59273
1.94923
0.599258
-1.64702
-4.23622
-5.36112
-4.19201
-2.17417
-0.951481
-0.685722
-0.63666
-0.444534
-0.257809
-0.188986
-0.174237
-0.146164
-0.105423
-0.0711179
-0.0471113
-0.0294499
-0.0168793
-0.00734375
-0.00776736
2.69879
2.71947
2.77036
2.85397
2.97008
3.10722
3.21571
3.15601
2.61388
1.10614
-1.89893
-5.71024
-7.14339
-5.00095
-1.9993
-0.54259
-0.496602
-0.559135
-0.330353
-0.129887
-0.0961274
-0.112954
-0.0986836
-0.0664257
-0.038639
-0.0177257
0.000189716
0.0126344
0.0181885
0.00953987
2.72691
2.75498
2.82635
2.94903
3.13358
3.38659
3.67906
3.87059
3.55525
1.93131
-2.16238
-7.93181
-9.73987
-5.89229
-1.49644
0.0797619
-0.255923
-0.449369
-0.190033
-0.00893386
-0.0299161
-0.0790598
-0.0786477
-0.0615521
-0.0475846
-0.0334076
-0.0135094
0.00277373
0.0114469
0.00349525
2.75015
2.78469
2.87437
3.0337
3.28498
3.65915
4.16389
4.70495
4.82459
3.26737
-2.36854
-11.2874
-13.5268
-7.07166
-0.590919
0.873375
-0.0397596
-0.298281
0.0357488
0.172372
0.0794425
0.00245923
-0.00910038
-0.0136294
-0.0246014
-0.0278109
-0.0129646
0.00637549
0.0193481
0.0137468
2.76563
2.80485
2.90781
3.09443
3.39941
3.87827
4.586
5.51886
6.28025
5.42782
0.424512
-13.9166
-19.641
-10.3848
0.646659
1.86496
0.155534
-0.208803
0.191044
0.261515
0.09758
0.0123266
0.00813543
-0.00115039
-0.0313081
-0.0511805
-0.0452314
-0.0255519
-0.00522096
0.00113931
2.77123
2.8127
2.92208
3.1215
3.45203
3.98616
4.82145
6.01748
7.36268
7.40512
3.5245
-19.8488
-25.4319
-12.4724
1.82278
2.99159
0.580834
0.0222734
0.377774
0.346981
0.100005
-0.00680641
-0.00342403
-0.0138903
-0.0539524
-0.0836777
-0.0834241
-0.0589603
-0.030888
0.004907
2.7659
2.80674
2.91477
3.11169
3.43765
3.96388
4.78412
5.95653
7.27391
7.35589
5.07504
-21.0472
-27.4238
-12.8599
2.8254
3.49944
0.784305
0.0624807
0.330386
0.260314
-0.000164075
-0.113678
-0.109237
-0.124395
-0.166113
-0.198605
-0.198391
-0.164532
-0.12568
-0.051132
2.74987
2.7872
2.88626
3.06581
3.35792
3.81407
4.48251
5.35456
6.05457
5.26189
2.08619
-16.801
-23.9919
-10.8458
1.42943
2.01425
0.0749333
-0.354097
0.0374994
0.159383
0.0691879
0.041416
0.0752456
0.072732
0.0269453
-0.0159601
-0.0310907
-0.0138223
0.0138307
0.0211717
2.7245
2.75606
2.83978
2.98811
3.22013
3.56197
4.0143
4.4794
4.52439
2.98677
-2.35046
-11.2843
-13.866
-6.89816
-0.225033
1.03196
0.0634399
-0.274519
-0.0242403
0.0985437
0.0383198
-0.00757263
-0.00862048
-0.0221491
-0.0575911
-0.0801933
-0.0678261
-0.0237535
0.0257188
0.0408714
2.69225
2.71648
2.78015
2.88924
3.05087
3.26728
3.50434
3.62081
3.23235
1.58913
-2.34789
-7.97671
-9.8762
-5.80105
-1.21589
0.351897
-0.0508446
-0.371277
-0.211632
-0.0452513
-0.0328678
-0.0523786
-0.050565
-0.0549821
-0.0767034
-0.0919713
-0.0820292
-0.0491482
-0.0129666
0.000707542
2.65619
2.67235
2.71446
2.78308
2.87477
2.97487
3.0309
2.90489
2.2995
0.76709
-2.13442
-5.77815
-7.17863
-4.92629
-1.80377
-0.352065
-0.378942
-0.529298
-0.352692
-0.152149
-0.0940518
-0.0945525
-0.0865104
-0.0783174
-0.0817079
-0.0828472
-0.0681135
-0.0367887
-0.00568704
0.014821
2.61971
2.62801
2.64952
2.68029
2.70946
2.71272
2.63285
2.35158
1.65927
0.295285
-1.87522
-4.31902
-5.36622
-4.13248
-2.04841
-0.817221
-0.58061
-0.571434
-0.413633
-0.243084
-0.175937
-0.161274
-0.142368
-0.12103
-0.109382
-0.101662
-0.0866281
-0.0604765
-0.0340452
-0.00485951
2.58606
2.58746
2.59093
2.58939
2.5675
2.49645
2.32126
1.94681
1.23316
0.0417078
-1.62704
-3.35553
-4.16852
-3.5081
-2.11816
-1.10832
-0.751805
-0.651391
-0.508945
-0.351336
-0.257331
-0.209717
-0.169566
-0.133187
-0.10913
-0.0939977
-0.0781063
-0.0549243
-0.0315419
-0.000746184
2.55813
2.55401
2.54319
2.51662
2.45658
2.33275
2.09489
1.66817
0.960822
-0.0918345
-1.43154
-2.73581
-3.39647
-3.05064
-2.10074
-1.27957
-0.880997
-0.715532
-0.564195
-0.406855
-0.296093
-0.231718
-0.185007
-0.146172
-0.118845
-0.10103
-0.0852139
-0.064212
-0.0424747
-0.00862405
2.53821
2.5303
2.50967
2.46619
2.38108
2.22388
1.9488
1.49525
0.801025
-0.158607
-1.30205
-2.36774
-2.9372
-2.75676
-2.06469
-1.37443
-0.964379
-0.758329
-0.598517
-0.445379
-0.330134
-0.257738
-0.206131
-0.163328
-0.130724
-0.107965
-0.0894164
-0.0679782
-0.0462331
-0.0102053
2.5277
2.5179
2.49227
2.44024
2.34267
2.16932
1.87696
1.41236
0.727278
-0.185516
-1.23681
-2.19482
-2.72245
-2.61402
-2.04042
-1.41565
-1.00446
-0.780262
-0.616196
-0.465222
-0.347298
-0.269332
-0.213562
-0.167929
-0.13284
-0.108403
-0.0895519
-0.0689194
-0.0481222
-0.0112582
2.55208
2.54445
2.52032
2.4706
2.37857
2.21552
1.94025
1.50298
0.859077
0.00145703
-0.989971
-1.90824
-2.45125
-2.42914
-1.9771
-1.4447
-1.06605
-0.834325
-0.653676
-0.489457
-0.361536
-0.277324
-0.218902
-0.17023
-0.127955
-0.0929365
-0.0637466
-0.0394376
-0.0168124
-0.00795644
2.56038
2.55436
2.5346
2.4923
2.41103
2.26184
2.00131
1.5735
0.922219
0.0262717
-1.04024
-2.04653
-2.62601
-2.55125
-2.00832
-1.42237
-1.04012
-0.818993
-0.639928
-0.473758
-0.348462
-0.269094
-0.213562
-0.165941
-0.124478
-0.090455
-0.0622039
-0.038681
-0.0167444
-0.00792274
2.57604
2.57322
2.56189
2.53412
2.47427
2.35332
2.12398
1.71832
1.05609
0.0843909
-1.13963
-2.33677
-2.99324
-2.79916
-2.06149
-1.36902
-0.985809
-0.788422
-0.611959
-0.441818
-0.321892
-0.251469
-0.200712
-0.154755
-0.115113
-0.083698
-0.0581909
-0.0371968
-0.0175836
-0.00969074
2.5977
2.59947
2.60027
2.59372
2.56592
2.4887
2.31034
1.94583
1.27624
0.192296
-1.28958
-2.81441
-3.59418
-3.17918
-2.11605
-1.26855
-0.900418
-0.742915
-0.568384
-0.394653
-0.286676
-0.230229
-0.184575
-0.138515
-0.0990145
-0.0689643
-0.0454362
-0.0266807
-0.00971163
-0.00436491
2.62325
2.63069
2.64656
2.6669
2.68103
2.66366
2.56001
2.2648
1.60449
0.378448
-1.48281
-3.53128
-4.49165
-3.69324
-2.13158
-1.09145
-0.778226
-0.681015
-0.501429
-0.323676
-0.239029
-0.207658
-0.173921
-0.132347
-0.0961612
-0.0690502
-0.0478482
-0.0314224
-0.0169408
-0.0117722
2.65012
2.66384
2.69659
2.74771
2.81167
2.86951
2.86748
2.68109
2.06613
0.688712
-1.69753
-4.54977
-5.75907
-4.33774
-2.06613
-0.815295
-0.620954
-0.610056
-0.417584
-0.230386
-0.169293
-0.161334
-0.137687
-0.101326
-0.0698632
-0.046089
-0.0260822
-0.0104008
0.00172152
0.00185571
2.67541
2.69539
2.74528