/*--------------------------------*- C++ -*----------------------------------*\
| =========                 |                                                 |
| \\      /  F ield         | OpenFOAM: The Open Source CFD Toolbox           |
|  \\    /   O peration     | Version:  2512                                  |
|   \\  /    A nd           | Website:  www.openfoam.com                      |
|    \\/     M anipulation  |                                                 |
\*---------------------------------------------------------------------------*/
FoamFile
{
    version     2.0;
    format      ascii;
    arch        "LSB;label=32;scalar=64";
    class       volScalarField;
    location    "300";
    object      p;
}
// * * * * * * * * * * * * * * * * * * * * * * * * * * * * * * * * * * * * * //

dimensions      [0 2 -2 0 0 0 0];

internalField   nonuniform List<scalar> 
84826
(
3.37454
3.3786
3.38582
3.38747
3.36477
3.2851
3.09481
2.71146
2.02758
0.934046
-0.604333
-2.44891
-4.12051
-4.95948
-4.7375
-3.82964
-2.79648
-2.00715
-1.50075
-1.13694
-0.83117
-0.593592
-0.439719
-0.350668
-0.295412
-0.250548
-0.202453
-0.148718
-0.0899559
-0.0400061
3.38554
3.39206
3.40576
3.41915
3.41526
3.36362
3.21144
2.87166
2.22123
1.11592
-0.521437
-2.58737
-4.48158
-5.3608
-5.01457
-3.93424
-2.77152
-1.94463
-1.45117
-1.09314
-0.783474
-0.550711
-0.411437
-0.337391
-0.290997
-0.247069
-0.193703
-0.131994
-0.0685302
-0.0232815
3.4065
3.41785
3.44419
3.4807
3.51438
3.52003
3.4482
3.20482
2.6366
1.52257
-0.314563
-2.88049
-5.27188
-6.22094
-5.60179
-4.14016
-2.69726
-1.81107
-1.35839
-1.00961
-0.685652
-0.45875
-0.347849
-0.307595
-0.288602
-0.260685
-0.211409
-0.144991
-0.0717206
-0.0191951
3.43568
3.45393
3.49848
3.56876
3.65868
3.75316
3.81211
3.73771
3.33498
2.25207
0.108327
-3.37711
-6.62696
-7.63501
-6.57387
-4.43934
-2.50966
-1.57373
-1.21895
-0.887252
-0.541073
-0.32124
-0.240832
-0.232614
-0.239992
-0.233009
-0.199633
-0.142629
-0.0705493
-0.00914821
3.47049
3.49729
3.56447
3.67761
3.84134
4.05801
4.30892
4.50684
4.41591
3.49123
0.933518
-4.23454
-8.84227
-9.74179
-8.05686
-4.79561
-2.09871
-1.17045
-0.982706
-0.674476
-0.333409
-0.176708
-0.169203
-0.203696
-0.226804
-0.228476
-0.212241
-0.183239
-0.138648
-0.0785236
3.50775
3.54402
3.63661
3.79899
4.05104
4.42279
4.93751
5.55274
6.01884
5.55675
2.55378
-5.61897
-12.4268
-12.8882
-10.3285
-5.07491
-1.38772
-0.650942
-0.620682
-0.214852
0.161731
0.216185
0.104208
0.0121519
-0.00811213
0.0143645
0.0357555
0.034795
0.0167329
-0.0179209
3.5439
3.58968
3.70804
3.9218
4.27023
4.82319
5.67772
6.90384
8.33517
8.9357
5.47352
-7.69253
-17.3822
-17.8433
-14.095
-4.62709
-0.17966
-0.374516
-0.707748
-0.189592
0.190082
0.0817444
-0.17901
-0.309563
-0.261082
-0.11406
0.0264537
0.0982716
0.122795
0.00357438
3.57534
3.62963
3.77126
4.03249
4.47421
5.21511
6.46312
8.51093
11.5752
14.7394
10.7938
-5.76429
-21.0619
-22.1177
-21.1425
-2.11379
3.27438
1.64309
0.912185
1.49893
1.65856
1.12514
0.473308
0.0763575
-0.0234475
0.0606946
0.177402
0.235045
0.183277
0.118606
3.59886
3.65959
3.81899
4.11706
4.63377
5.53373
7.1544
10.1128
15.5679
24.0344
24.172
-11.8879
-25.3893
-38.0638
-32.6264
-2.89691
3.47555
0.508625
-0.37399
0.437462
0.565828
-0.0803386
-0.778536
-1.16447
-1.21584
-1.02873
-0.757753
-0.503221
-0.526329
-0.0170539
3.61203
3.67623
3.84522
4.16338
4.72168
5.71214
7.55569
11.1279
18.5573
33.4996
48.22
-1.17355
-43.1624
-45.25
-26.0763
2.52542
9.60185
5.33199
3.55401
3.77839
3.28973
2.17182
1.18784
0.605151
0.380245
0.40385
0.536246
0.684184
0.551611
0.790413
3.61351
3.67776
3.84683
4.16505
4.72335
5.71469
7.56055
11.1345
18.5689
33.5364
55.6493
20.7772
-44.1635
-26.8767
3.0697
10.524
6.18078
4.21575
4.2014
3.55039
2.42909
1.52516
1.00595
0.766753
0.700934
0.726052
0.789949
0.656327
0.749541
3.60326
3.66422
3.82416
4.12314
4.64129
5.54403
7.16938
10.1336
15.6046
24.133
35.7814
-2.90495
-33.8233
-38.6007
-34.9175
-3.00935
4.2125
1.21166
-0.0906512
0.187311
0.0026142
-0.521798
-0.847669
-0.874609
-0.746888
-0.581509
-0.407003
-0.232505
-0.145229
0.0495499
3.58256
3.63728
3.77995
4.04305
4.48779
5.23308
6.48767
8.54597
11.637
14.8751
16.9547
-7.62043
-22.6265
-27.2852
-22.5735
-2.12631
4.17885
2.56875
1.33792
1.23825
0.923485
0.387283
0.0271318
-0.0721998
-0.0552862
-0.0359889
-0.00944012
0.0225315
0.153309
-0.00718622
3.55377
3.60014
3.71992
3.93613
4.2884
4.8471
5.71056
6.9516
8.41395
9.08387
5.76792
-7.09949
-16.5749
-17.2427
-14.1841
-4.469
0.320193
0.160669
-0.405222
-0.242256
-0.0890416
-0.14053
-0.171944
-0.105698
-0.019385
0.0299205
0.0544802
0.0776612
0.148952
0.0241521
3.52004
3.55703
3.65136
3.81677
4.07353
4.4523
4.97763
5.60981
6.1058
5.69717
2.78624
-5.20941
-11.8579
-12.4433
-10.2801
-5.11186
-1.32137
-0.545305
-0.585381
-0.30923
-0.0195833
0.0548401
0.0329347
0.0225423
0.027191
0.02654
0.0223442
0.0271973
0.0526821
0.0257509
3.48491
3.51255
3.58174
3.69834
3.86742
4.09192
4.35431
4.56944
4.50531
3.6223
1.13042
-3.93265
-8.44847
-9.41483
-7.94899
-4.79689
-2.09198
-1.14119
-0.94707
-0.661303
-0.364033
-0.244913
-0.246162
-0.256207
-0.23596
-0.196751
-0.15292
-0.109659
-0.0556068
-0.0322118
3.45189
3.47109
3.51784
3.59191
3.68761
3.79044
3.86121
3.80355
3.42474
2.37582
0.28046
-3.14098
-6.33687
-7.37677
-6.43803
-4.39271
-2.48786
-1.54361
-1.16895
-0.839001
-0.532387
-0.365774
-0.309863
-0.274234
-0.217014
-0.146531
-0.0815282
-0.0301302
0.0129658
0.0198966
3.42414
3.43649
3.46518
3.5057
3.54543
3.55969
3.49971
3.27241
2.72586
1.64053
-0.159799
-2.68365
-5.0425
-6.0084
-5.46345
-4.07335
-2.66834
-1.79356
-1.33904
-0.998944
-0.705769
-0.514057
-0.412802
-0.343008
-0.270976
-0.198652
-0.137956
-0.0938278
-0.0563671
-0.0383173
3.40418
3.41175
3.42789
3.44541
3.4477
3.40477
3.26436
2.94009
2.30975
1.22967
-0.37767
-2.41285
-4.28568
-5.17604
-4.88051
-3.85877
-2.73694
-1.93096
-1.44314
-1.08812
-0.788802
-0.568819
-0.430802
-0.338542
-0.261602
-0.192355
-0.133841
-0.0876039
-0.0455813
-0.0206801
3.39374
3.39886
3.40856
3.41439
3.39794
3.32699
3.14839
2.78022
2.11555
1.04548
-0.466078
-2.2847
-3.93946
-4.7874
-4.60659
-3.75068
-2.75844
-1.9929
-1.49377
-1.12943
-0.826961
-0.598995
-0.452962
-0.360497
-0.28948
-0.22559
-0.167388
-0.116614
-0.0666939
-0.0321434
3.36532
3.36865
3.37409
3.37271
3.34581
3.261
3.06543
2.67869
1.99629
0.912251
-0.605766
-2.4176
-4.05387
-4.87154
-4.65078
-3.76714
-2.76966
-2.00559
-1.5063
-1.14252
-0.838363
-0.603307
-0.450053
-0.359543
-0.30181
-0.254548
-0.204736
-0.150085
-0.0907857
-0.0407219
3.37615
3.38189
3.39366
3.40371
3.39502
3.33728
3.17825
2.83284
2.18171
1.08554
-0.528266
-2.55273
-4.40315
-5.25537
-4.90897
-3.85994
-2.74448
-1.94727
-1.45901
-1.10009
-0.79307
-0.563282
-0.423969
-0.347646
-0.298627
-0.25265
-0.197964
-0.135364
-0.0706943
-0.0235526
3.39678
3.40718
3.43128
3.46377
3.49141
3.48881
3.40676
3.15282
2.57857
1.47216
-0.335008
-2.83871
-5.16989
-6.07801
-5.45164
-4.03917
-2.67307
-1.82577
-1.37294
-1.02137
-0.702623
-0.479665
-0.366739
-0.321655
-0.298577
-0.268875
-0.219799
-0.154508
-0.0816498
-0.0271713
3.42551
3.4426
3.48445
3.5497
3.63165
3.71441
3.75736
3.6634
3.24391
2.16419
0.0612306
-3.3291
-6.49672
-7.43126
-6.33769
-4.29153
-2.49492
-1.60531
-1.23852
-0.905327
-0.572422
-0.359325
-0.273273
-0.253991
-0.250815
-0.236802
-0.200435
-0.143395
-0.0728649
-0.0127865
3.4598
3.48513
3.54899
3.65582
3.80895
4.00883
4.23461
4.39777
4.27048
3.33656
0.840787
-4.19777
-8.70463
-9.43495
-7.65946
-4.60353
-2.15376
-1.25451
-1.01197
-0.696958
-0.379896
-0.236808
-0.227332
-0.254208
-0.269009
-0.26278
-0.239051
-0.203392
-0.153041
-0.0874263
3.4965
3.53095
3.61938
3.77391
4.01219
4.36036
4.83651
5.39278
5.78888
5.29288
2.37916
-5.69266
-12.427
-12.3779
-9.5822
-4.78388
-1.57713
-0.877104
-0.757558
-0.337137
0.0359894
0.114405
0.039516
-0.0288766
-0.0399359
-0.0142445
0.012398
0.0203938
0.0131077
-0.00383136
3.5321
3.57574
3.68911
3.89292
4.22384
4.7452
5.54318
6.67758
7.98362
8.53647
5.16241
-8.30159
-17.9993
-17.0079
-13.0269
-4.31234
-0.296432
-0.437487
-0.779212
-0.408801
-0.12087
-0.219135
-0.430205
-0.5309
-0.476344
-0.331778
-0.18621
-0.0951672
-0.0536683
-0.0741551
3.56307
3.61492
3.7509
4.00027
4.41978
5.11878
6.28826
8.2067
11.094
14.2651
11.3268
-7.08554
-22.6856
-20.5363
-20.1367
-3.19395
2.40135
1.57629
0.997639
1.37142
1.40776
0.886777
0.263296
-0.152815
-0.305842
-0.279703
-0.203156
-0.16836
-0.183139
-0.234783
3.58624
3.64431
3.79751
4.08248
4.57315
5.42017
6.93755
9.71795
14.9951
24.171
26.69
-9.60881
-29.5779
-27.9205
-28.9901
-3.24715
2.22318
0.0505166
-0.815567
-0.310305
-0.278739
-0.843264
-1.4496
-1.77312
-1.76945
-1.53876
-1.23602
-0.964873
-0.889121
-0.41215
3.59922
3.66065
3.82319
4.1276
4.65819
5.59102
7.31225
10.6587
17.9248
35.1156
62.2439
-51.9415
-89.6483
-27.1645
-26.8133
2.64969
7.14801
3.15457
1.4907
1.66816
1.3948
0.607473
-0.120341
-0.529607
-0.625916
-0.50195
-0.282047
-0.0663804
-0.0513819
0.200624
3.6007
3.6622
3.82487
4.1294
4.66
5.59348
7.31666
10.6646
17.9321
35.1241
73.7525
-50.3412
-27.7104
2.92113
7.7183
3.73062
2.0545
2.19276
1.88085
1.11126
0.405809
-0.00146363
-0.150686
-0.12776
-0.0110285
0.124751
0.137461
0.23482
3.59063
3.64893
3.80295
4.08914
4.58055
5.42983
6.95146
9.73659
15.021
24.212
42.4646
-35.8659
-50.5143
-42.2833
-30.8421
-3.54556
2.37419
-0.0198933
-1.15235
-0.805875
-0.776698
-1.08193
-1.36687
-1.39889
-1.26776
-1.07541
-0.851785
-0.643436
-0.424788
-0.302811
3.57028
3.62257
3.75971
4.01108
4.43304
5.13602
6.31167
8.23896
11.1445
14.3567
17.8264
-11.6403
-25.5573
-23.7356
-21.1736
-3.44729
2.57428
1.65456
0.784569
0.815045
0.639502
0.210056
-0.173512
-0.326759
-0.347885
-0.333863
-0.292896
-0.247775
-0.0919048
-0.232909
3.54194
3.58619
3.70091
3.90709
4.24173
4.76867
5.57508
6.72266
8.05376
8.65761
5.38921
-7.83016
-17.1683
-16.4396
-13.1043
-4.26547
-0.0219145
-0.127136
-0.60883
-0.470938
-0.339789
-0.395272
-0.439911
-0.387249
-0.290044
-0.198957
-0.128863
-0.068187
0.0224906
-0.0249132
3.50875
3.54391
3.63404
3.79156
4.03448
4.38943
4.87564
5.44748
5.86972
5.41831
2.57937
-5.34153
-11.8777
-11.937
-9.49849
-4.78999
-1.51635
-0.802641
-0.764397
-0.473483
-0.186221
-0.090793
-0.0794625
-0.0621394
-0.0317758
-0.00606348
0.0073125
0.021409
0.0518665
0.0297303
3.47417
3.50032
3.56617
3.67642
3.83479
4.04228
4.27908
4.45843
4.35565
3.45873
1.0205
-3.925
-8.32946
-9.11329
-7.53944
-4.58704
-2.14229
-1.23914
-1.00842
-0.722682
-0.438443
-0.310044
-0.28822
-0.281292
-0.254724
-0.215894
-0.176499
-0.136151
-0.0842623
-0.0565355
3.44167
3.45968
3.5037
3.57269
3.66032
3.75124
3.80561
3.72764
3.3306
2.28228
0.22363
-3.10803
-6.22018
-7.18063
-6.19988
-4.23813
-2.4702
-1.5808
-1.20319
-0.873643
-0.571445
-0.397988
-0.328861
-0.286375
-0.231233
-0.166617
-0.106256
-0.0548177
-0.00818201
0.00766533
3.41436
3.42575
3.45216
3.4886
3.52219
3.52801
3.45749
3.21905
2.66548
1.58622
-0.186283
-2.6504
-4.94914
-5.87159
-5.31423
-3.96961
-2.64139
-1.8074
-1.35482
-1.01156
-0.719964
-0.528173
-0.424444
-0.354014
-0.284173
-0.214015
-0.153008
-0.105339
-0.062748
-0.0391131
3.39474
3.40149
3.41567
3.42979
3.42719
3.37797
3.23043
2.90008
2.26831
1.19636
-0.388726
-2.3837
-4.21301
-5.07499
-4.77652
-3.7835
-2.70797
-1.93169
-1.44976
-1.09469
-0.798395
-0.581364
-0.443534
-0.349858
-0.271503
-0.200785
-0.14041
-0.0917472
-0.0473614
-0.0210256
3.38447
3.38883
3.39672
3.39946
3.37869
3.30244
3.11829
2.74633
2.08253
1.02116
-0.470969
-2.25761
-3.87723
-4.703
-4.52147
-3.68782
-2.73008
-1.98932
-1.49763
-1.13423
-0.833966
-0.608088
-0.461469
-0.366583
-0.293245
-0.228171
-0.169819
-0.119197
-0.0694276
-0.0345644
3.34644
3.34803
3.34921
3.34087
3.30442
3.20787
2.99953
2.60238
1.9184
0.849602
-0.628144
-2.3726
-3.93694
-4.71574
-4.50508
-3.67145
-2.73548
-2.00872
-1.51641
-1.15027
-0.84797
-0.616185
-0.462608
-0.368392
-0.305914
-0.254378
-0.201716
-0.145763
-0.0859568
-0.0369525
3.35696
3.36081
3.368
3.37047
3.3511
3.2797
3.10497
2.745
2.08767
1.0041
-0.566424
-2.50849
-4.27131
-5.07503
-4.73914
-3.75142
-2.71321
-1.95719
-1.47117
-1.10776
-0.803778
-0.577363
-0.436211
-0.354905
-0.301084
-0.251993
-0.196108
-0.133384
-0.0682183
-0.0206098
3.37692
3.38519
3.40406
3.42767
3.44227
3.42194
3.31759
3.0399
2.44852
1.34665
-0.40973
-2.79401
-5.00118
-5.84444
-5.22387
-3.90033
-2.64889
-1.84848
-1.38516
-1.02632
-0.715322
-0.496833
-0.378239
-0.323233
-0.292142
-0.259067
-0.210818
-0.148266
-0.077886
-0.0247233
3.40472
3.41931
3.45499
3.50945
3.57473
3.63323
3.64282
3.50803
3.04883
1.95747
-0.0826473
-3.28734
-6.27568
-7.11258
-5.99909
-4.0988
-2.49132
-1.64564
-1.24013
-0.898258
-0.585073
-0.381919
-0.288449
-0.254428
-0.238865
-0.218333
-0.18146
-0.127518
-0.0621916
-0.00881345
3.4379
3.46025
3.51679
3.61027
3.74179
3.90796
4.08327
4.17651
3.9689
2.98733
0.560513
-4.15195
-8.41449
-8.97812
-7.09321
-4.31614
-2.206
-1.32748
-0.992349
-0.66437
-0.375573
-0.239644
-0.217428
-0.228741
-0.233489
-0.221859
-0.19519
-0.15805
-0.11029
-0.0570856
3.47339
3.50432
3.58414
3.72233
3.93271
4.23449
4.63518
5.07524
5.3203
4.69269
1.82585
-5.70984
-12.1065
-11.7331
-8.52384
-4.27476
-1.65457
-0.947882
-0.719391
-0.335529
-0.0187059
0.064434
0.0195291
-0.0308438
-0.0400652
-0.0160662
0.0164729
0.0388893
0.0463155
0.0367943
3.50783
3.54735
3.65067
3.83515
4.13112
4.59023
5.27748
6.22656
7.25881
7.50436
4.11596
-8.47023
-18.0101
-15.9331
-10.9704
-3.65342
-0.316617
-0.174769
-0.363071
-0.123467
0.0587618
-0.0291273
-0.210996
-0.33014
-0.332016
-0.252018
-0.149774
-0.0738639
-0.0362173
-0.0334345
3.53778
3.58495
3.70928
3.93632
4.31452
4.93483
5.9511
7.58697
9.98457
12.4869
9.72749
-7.97553
-24.8298
-20.0785
-14.5921
-2.88846
1.49944
1.33218
0.948554
1.14478
1.17224
0.850077
0.432283
0.136894
0.025224
0.0526291
0.132299
0.188595
0.192483
0.111578
3.5602
3.61322
3.75354
4.01303
4.45566
5.2101
6.53437
8.92158
13.4064
21.1361
24.1221
-11.8487
-41.8602
-27.2961
-14.5831
-0.18252
3.23348
1.9452
1.09728
1.18356
1.05716
0.569425
0.0220718
-0.334945
-0.451479
-0.381729
-0.231086
-0.0932764
-0.051482
0.0347028
3.57277
3.62895
3.77812
4.05531
4.53279
5.36173
6.86297
9.74067
15.9982
30.8632
59.782
-61.8023
-81.7577
-52.8511
-10.2366
6.02952
7.46102
4.40739
2.68645
2.45102
2.06031
1.34665
0.634744
0.164273
-0.0251016
0.00432672
0.143577
0.291709
0.309865
0.331351
3.57424
3.63049
3.77975
4.05775
4.53781
5.36798
6.86788
9.74582
15.9999
30.8341
71.0517
-77.3277
-10.7635
5.93604
7.70299
4.65271
2.9408
2.68552
2.29379
1.59349
0.868014
0.389395
0.18027
0.16935
0.268965
0.389223
0.406124
0.363964
3.56458
3.61792
3.75931
4.02076
4.46581
5.22235
6.5477
8.93719
13.4183
21.1046
39.5956
-43.0446
-74.4356
-51.3663
-14.1384
0.320229
3.55818
1.95945
0.993693
1.05561
0.942713
0.509927
0.0218147
-0.25136
-0.309948
-0.24758
-0.111955
0.0279013
0.151045
0.103898
3.54496
3.59266
3.71832
3.94742
4.32767
4.95128
5.97276
7.61495
10.0194
12.5224
15.5912
-13.6602
-30.7922
-22.9471
-14.5915
-2.93999
1.46441
1.25788
0.863157
1.02153
0.993546
0.671062
0.312932
0.113424
0.0615466
0.0786436
0.136749
0.195742
0.27139
0.140405
3.5176
3.55773
3.66233
3.84909
4.14866
4.61316
5.308
6.26747
7.31639
7.58912
4.25586
-8.15796
-17.2103
-15.4123
-10.9022
-3.61516
-0.181611
0.0151631
-0.192093
-0.0507777
0.0269427
-0.081928
-0.204724
-0.240653
-0.200046
-0.131509
-0.062963
-0.0056385
0.0555609
0.0151203
3.48555
3.51716
3.59864
3.73975
3.95462
4.26281
4.67261
5.126
5.3917
4.79656
1.98145
-5.43983
-11.612
-11.3317
-8.39746
-4.23143
-1.58566
-0.871012
-0.695131
-0.405626
-0.160019
-0.0740458
-0.0577533
-0.0348577
0.00408263
0.0419774
0.0666125
0.0867602
0.10946
0.0756174
3.45217
3.47532
3.53377
3.63057
3.76715
3.94056
4.12609
4.23386
4.04727
3.09586
0.714801
-3.92181
-8.07717
-8.6795
-6.95814
-4.26981
-2.17866
-1.31111
-0.998028
-0.69929
-0.430152
-0.290216
-0.242944
-0.219365
-0.191553
-0.160135
-0.130706
-0.0986468
-0.0572113
-0.0385466
3.42077
3.43624
3.47403
3.53212
3.6029
3.66919
3.68953
3.56945
3.1304
2.06635
0.0641329
-3.09011
-6.02275
-6.87794
-5.86017
-4.03464
-2.46083
-1.62677
-1.22112
-0.882452
-0.584868
-0.401625
-0.315618
-0.26544
-0.21592
-0.161724
-0.109439
-0.0600651
-0.0117891
0.00842549
3.39438
3.40359
3.42471
3.45216
3.47252
3.46028
3.36687
3.10371
2.53137
1.45406
-0.271372
-2.62029
-4.79609
-5.64992
-5.08967
-3.82745
-2.61407
-1.8306
-1.37058
-1.01783
-0.72593
-0.530593
-0.420147
-0.34719
-0.280163
-0.213637
-0.153181
-0.101898
-0.0542368
-0.0280321
3.37541
3.38025
3.38978
3.39619
3.38273
3.31955
3.15579
2.81008
2.17085
1.10966
-0.434526
-2.34956
-4.09217
-4.90372
-4.61076
-3.67445
-2.67455
-1.93984
-1.46141
-1.1025
-0.808407
-0.593433
-0.453869
-0.357508
-0.277584
-0.205664
-0.143327
-0.0917182
-0.0444901
-0.0176182
3.36545
3.36804
3.3716
3.36726
3.33676
3.24845
3.05106
2.66796
2.0015
0.95386
-0.499868
-2.2209
-3.7694
-4.555
-4.38013
-3.59275
-2.69445
-1.99054
-1.5068
-1.14257
-0.844599
-0.620604
-0.471486
-0.371757
-0.294552
-0.227394
-0.168222
-0.117146
-0.0671994
-0.0327119
3.31891
3.31787
3.31254
3.29373
3.24306
3.12903
2.90167
2.48825
1.80026
0.752715
-0.665825
-2.31097
-3.77111
-4.4979
-4.31052
-3.55008
-2.69387
-2.01303
-1.53156
-1.16644
-0.86923
-0.642266
-0.487954
-0.388614
-0.320027
-0.263453
-0.207334
-0.149391
-0.0878499
-0.038239
3.32893
3.32997
3.3302
3.3213
3.28613
3.19462
2.99675
2.61501
1.94752
0.881853
-0.62435
-2.4439
-4.07669
-4.82158
-4.51597
-3.61801
-2.67701
-1.97103
-1.49164
-1.12806
-0.83074
-0.608912
-0.464865
-0.376632
-0.316411
-0.263498
-0.205989
-0.142838
-0.0761693
-0.025987
3.34793
3.35304
3.36405
3.37451
3.37008
3.32412
3.18777
2.87577
2.25938
1.16606
-0.516866
-2.72514
-4.74284
-5.51113
-4.93411
-3.74047
-2.62714
-1.88102
-1.41307
-1.05398
-0.755665
-0.54238
-0.416017
-0.34797
-0.3062
-0.267488
-0.218299
-0.157355
-0.087941
-0.0333395
3.37438
3.38532
3.41181
3.45046
3.49177
3.5158
3.47852
3.28661
2.77312
1.66564
-0.288482
-3.20606
-5.90246
-6.64502
-5.58201
-3.8942
-2.50919
-1.71707
-1.28006
-0.93733
-0.647363
-0.452513
-0.34811
-0.296378
-0.265407
-0.234755
-0.193325
-0.138726
-0.0743049
-0.0212881
3.40593
3.42405
3.4697
3.54391
3.64472
3.76375
3.86902
3.86682
3.54874
2.49553
0.16167
-4.01396
-7.81226
-8.30349
-6.43661
-4.0271
-2.29623
-1.46872
-1.06786
-0.740206
-0.477136
-0.337822
-0.292263
-0.280968
-0.269237
-0.246008
-0.210043
-0.165493
-0.113819
-0.0622735
3.43967
3.46571
3.53281
3.64763
3.81888
4.05656
4.35414
4.63665
4.66919
3.8409
1.03431
-5.43311
-11.0466
-10.6817
-7.43898
-3.9381
-1.88689
-1.16078
-0.84339
-0.505471
-0.236041
-0.132682
-0.135802
-0.157198
-0.15149
-0.116731
-0.0666862
-0.0209379
0.0100557
0.0200882
3.4724
3.50636
3.59511
3.75208
3.99946
4.37344
4.91214
5.60424
6.24097
5.97681
2.55579
-7.778
-16.223
-13.9611
-8.72146
-3.48931
-0.98923
-0.516339
-0.473179
-0.279322
-0.127264
-0.152969
-0.270793
-0.367894
-0.385968
-0.334832
-0.246041
-0.165365
-0.112703
-0.0803421
3.50086
3.54185
3.64997
3.84572
4.16638
4.68041
5.49195
6.72703
8.35976
9.59316
7.00919
-7.39957
-23.3303
-18.7121
-9.62589
-3.12201
-0.182409
0.283313
0.259595
0.439419
0.542339
0.419274
0.184527
-0.00406547
-0.0816756
-0.0546536
0.0276923
0.102473
0.128165
0.0920215
3.52216
3.56841
3.69119
3.91677
4.29439
4.92538
5.99511
7.82272
10.9189
15.2402
16.5864
-9.50301
-41.4768
-26.3305
-6.9876
-1.15992
0.90788
0.738168
0.342343
0.347576
0.307887
0.0442811
-0.305271
-0.553187
-0.637013
-0.571299
-0.427738
-0.286102
-0.2073
-0.135056
3.53415
3.58322
3.71378
3.95483
4.36247
5.05582
6.27725
8.50686
12.8442
20.9685
35.3388
-29.9751
-94.6634
-46.4122
-4.31337
1.52112
2.83451
1.98059
1.15051
1.03049
0.885453
0.526516
0.10333
-0.195888
-0.299507
-0.237452
-0.0911932
0.0533607
0.104195
0.107853
3.53561
3.58487
3.7156
3.95705
4.36783
5.06378
6.28258
8.51139
12.8426
20.9205
40.7209
-29.9604
-87.0685
-61.8536
-5.23281
1.33136
2.95759
2.10011
1.25705
1.12739
0.985158
0.613767
0.16347
-0.14128
-0.239978
-0.176894
-0.0330881
0.106714
0.154474
0.129016
3.5265
3.5732
3.69673
3.92341
4.30425
4.93841
6.00793
7.83578
10.9219
15.1782
24.8517
-23.8494
-58.8526
-47.3192
-7.04341
-1.27096
0.733949
0.438662
0.0276766
0.0889307
0.0816451
-0.175588
-0.510589
-0.697995
-0.702075
-0.57582
-0.392529
-0.224161
-0.112191
-0.0886661
3.50794
3.54941
3.65858
3.85599
4.17885
4.69594
5.51183
6.75096
8.38334
9.597
10.8697
-11.495
-28.6176
-20.51
-9.53
-3.26737
-0.360447
0.129247
0.171266
0.390162
0.457739
0.270021
0.00672767
-0.146664
-0.161016
-0.0908307
0.0131569
0.101314
0.152583
0.0952308
3.48206
3.51656
3.60657
3.76571
4.01649
4.39544
4.94075
5.6407
6.28745
6.03501
2.64058
-7.56981
-15.5338
-13.5109
-8.61199
-3.52769
-1.02424
-0.497663
-0.412771
-0.240766
-0.16197
-0.246932
-0.365517
-0.410141
-0.367466
-0.280098
-0.185068
-0.108468
-0.050398
-0.0517341
3.45169
3.47838
3.54708
3.66467
3.84014
4.08375
4.38939
4.68294
4.73104
3.92519
1.15442
-5.22623
-10.6266
-10.3326
-7.30586
-3.91337
-1.87434
-1.13307
-0.826739
-0.541381
-0.331426
-0.249562
-0.226111
-0.193994
-0.139677
-0.0796221
-0.0285735
0.0121255
0.0429894
0.0315602
3.42004
3.43891
3.48641
3.56379
3.66939
3.79516
3.90969
3.92014
3.61949
2.59
0.29177
-3.82358
-7.52063
-8.0358
-6.29846
-3.97411
-2.27475
-1.4622
-1.08054
-0.777296
-0.529918
-0.386343
-0.319412
-0.278805
-0.240507
-0.201459
-0.164028
-0.125177
-0.0810923
-0.0536533
3.39025
3.40203
3.43055
3.47267
3.51921
3.55056
3.52318
3.34449
2.84854
1.76408
-0.158705
-3.03427
-5.67899
-6.43242
-5.44704
-3.82686
-2.48064
-1.70862
-1.27839
-0.937536
-0.651817
-0.463374
-0.361227
-0.300282
-0.249105
-0.196751
-0.144141
-0.0913371
-0.037861
-0.00832974
3.3652
3.37121
3.38438
3.39852
3.39959
3.36126
3.23511
2.93642
2.33711
1.26535
-0.390845
-2.56865
-4.55748
-5.3327
-4.80603
-3.66727
-2.59246
-1.86704
-1.40505
-1.04888
-0.7607
-0.562302
-0.443566
-0.365998
-0.299845
-0.235318
-0.173656
-0.117618
-0.0636607
-0.0313821
3.34719
3.34917
3.35164
3.34653
3.317
3.23328
3.04571
2.6772
2.02623
0.980664
-0.502153
-2.29778
-3.91208
-4.66287
-4.39424
-3.5424
-2.63795
-1.95398
-1.48347
-1.12414
-0.834384
-0.621704
-0.479753
-0.380396
-0.299066
-0.226126
-0.161047
-0.104952
-0.0527533
-0.02183
3.33772
3.33763
3.33459
3.31961
3.27463
3.16843
2.95138
2.55106
1.8792
0.850859
-0.546083
-2.17028
-3.61602
-4.3484
-4.1924
-3.47354
-2.65255
-1.99432
-1.5227
-1.16079
-0.86756
-0.646358
-0.49448
-0.389379
-0.307854
-0.238046
-0.176681
-0.123229
-0.0710049
-0.0348088
3.28423
3.28001
3.26667
3.23502
3.16718
3.03246
2.78339
2.35348
1.66514
0.648267
-0.695501
-2.22085
-3.55749
-4.22824
-4.0757
-3.40249
-2.63401
-2.00517
-1.54073
-1.18159
-0.891355
-0.668805
-0.512589
-0.407035
-0.331463
-0.269316
-0.209445
-0.149037
-0.0853232
-0.0355101
3.29363
3.29128
3.28293
3.26011
3.20587
3.09054
2.86619
2.46183
1.78775
0.750772
-0.671282
-2.34266
-3.81901
-4.50283
-4.24714
-3.45762
-2.62112
-1.97108
-1.50583
-1.14756
-0.85811
-0.639742
-0.491198
-0.394447
-0.326467
-0.268784
-0.209243
-0.145443
-0.0774945
-0.0261528
3.31142
3.31273
3.31407
3.30846
3.28112
3.20489
3.0318
2.68303
2.04498
0.974082
-0.607572
-2.60029
-4.38593
-5.08163
-4.59112
-3.55606
-2.58422
-1.89736
-1.43494
-1.0809
-0.793975
-0.583219
-0.447306
-0.364899
-0.310848
-0.26486
-0.213185
-0.152734
-0.0844135
-0.0310354
3.33619
3.34274
3.35794
3.37731
3.38984
3.37332
3.28229
3.02849
2.46328
1.35777
-0.469528
-3.02675
-5.3528
-6.02084
-5.1063
-3.67529
-2.50278
-1.76847
-1.31609
-0.974949
-0.700266
-0.507242
-0.38966
-0.32024
-0.273786
-0.232683
-0.185422
-0.12929
-0.0662705
-0.0174978
3.36571
3.3787
3.41104
3.46179
3.52587
3.58972
3.6158
3.50992
3.08096
1.97628
-0.191388
-3.70544
-6.89676
-7.38743
-5.75967
-3.76247
-2.34802
-1.57301
-1.1344
-0.805934
-0.553403
-0.401183
-0.328906
-0.293236
-0.263947
-0.228332
-0.182655
-0.131462
-0.078419
-0.0359229
3.39727
3.41738
3.4688
3.55521
3.67989
3.84299
4.02393
4.13459
3.94914
2.94095
0.335483
-4.80264
-9.36144
-9.28622
-6.51104
-3.75239
-2.07993
-1.31491
-0.927892
-0.612583
-0.365632
-0.239771
-0.20534
-0.19926
-0.179893
-0.136881
-0.0764673
-0.0176208
0.0245723
0.0360283
3.42788
3.4551
3.52578
3.64902
3.83865
4.11428
4.48638
4.89956
5.12283
4.39351
1.25138
-6.58469
-13.267
-11.7001
-7.14753
-3.56564
-1.58937
-0.841671
-0.586863
-0.373737
-0.206437
-0.165112
-0.214259
-0.272904
-0.285689
-0.243441
-0.162475
-0.0822066
-0.027904
-0.00720137
3.4545
3.48806
3.57594
3.73288
3.98478
4.37464
4.95743
5.75974
6.62086
6.59478
2.84064
-9.61211
-19.578
-14.891
-7.4108
-3.34477
-1.15333
-0.325732
-0.101408
0.0914828
0.236347
0.233163
0.121033
0.00587257
-0.0467428
-0.0215882
0.0547983
0.132238
0.16676
0.135575
3.47444
3.51274
3.6136
3.79632
4.0974
4.58374
5.36065
6.57524
8.26216
9.71639
8.48508
-9.15138
-29.2457
-20.2981
-6.98815
-2.65057
-0.508218
0.0912136
0.0867639
0.159049
0.228003
0.153496
-0.0194593
-0.168437
-0.229489
-0.190149
-0.09299
0.00701787
0.0586582
0.059485
3.48567
3.52651
3.63438
3.83064
4.15715
4.69636
5.59206
7.08558
9.444
12.3895
15.0414
-13.4427
-44.08
-26.0627
-7.41142
-1.9218
0.513474
0.895158
0.643215
0.598713
0.585389
0.433902
0.201795
0.0112738
-0.0643313
-0.0300829
0.0629317
0.155965
0.183918
0.14259
3.4871
3.52808
3.63635
3.83341
4.16127
4.70094
5.59624
7.08915
9.44217
12.3582
16.5491
-15.0283
-46.0743
-28.5058
-7.31473
-1.7466
0.682442
1.01018
0.727036
0.669704
0.652076
0.48749
0.23944
0.0521276
-0.00579883
0.0438438
0.141001
0.226851
0.243162
0.172567
3.47869
3.51729
3.61903
3.80329
4.10591
4.59362
5.37185
6.5863
8.26455
9.6753
11.3406
-12.6771
-34.291
-22.5824
-6.97775
-2.63669
-0.5035
0.0533168
0.0410134
0.129784
0.192365
0.0843348
-0.108031
-0.23114
-0.229318
-0.134636
-0.0100833
0.0915416
0.132907
0.0913545
3.46146
3.4954
3.58429
3.74288
3.99667
4.38937
4.97583
5.78091
6.64008
6.59824
2.82559
-9.54149
-18.7408
-14.5283
-7.32562
-3.36176
-1.18206
-0.341965
-0.0833835
0.125712
0.232727
0.159646
0.00956529
-0.0785749
-0.0621782
0.0208366
0.118743
0.190671
0.21136
0.146222
3.43739
3.46512
3.53701
3.66233
3.8551
4.13514
4.51276
4.93219
5.16192
4.44051
1.31862
-6.42974
-12.7706
-11.3641
-7.04963
-3.57881
-1.61158
-0.824995
-0.526417
-0.313742
-0.200017
-0.220794
-0.288768
-0.309005
-0.258484
-0.169157
-0.0778814
-0.0115346
0.0251796
0.00971882
3.40912
3.42984
3.48277
3.57179
3.70037
3.86882
4.05679
4.1766
4.00309
3.01138
0.434657
-4.63876
-9.03742
-9.0113
-6.39423
-3.72547
-2.06747
-1.28275
-0.886609
-0.599474
-0.403357
-0.313206
-0.275549
-0.231826
-0.166204
-0.0925546
-0.0274534
0.0210798
0.0518287
0.0421667
3.37962
3.39332
3.4274
3.48114
3.54968
3.6197
3.65401
3.55899
3.14435
2.0586
-0.0803851
-3.54781
-6.65859
-7.16461
-5.63438
-3.70863
-2.32346
-1.55882
-1.13171
-0.822567
-0.588049
-0.44041
-0.356343
-0.297419
-0.243024
-0.190086
-0.140736
-0.0958105
-0.0520813
-0.0290326
3.35183
3.35918
3.3763
3.39895
3.41636
3.40659
3.32452
3.08237
2.53214
1.44585
-0.355666
-2.87886
-5.16198
-5.83665
-4.98295
-3.60984
-2.47382
-1.75971
-1.31532
-0.975998
-0.702613
-0.512158
-0.395842
-0.321139
-0.261354
-0.204406
-0.147983
-0.0927141
-0.0380007
-0.00783578
3.32845
3.33061
3.33399
3.33186
3.30968
3.24053
3.07677
2.73995
2.11688
1.06452
-0.494443
-2.46151
-4.22244
-4.92283
-4.47337
-3.48584
-2.54994
-1.88408
-1.42847
-1.07532
-0.792915
-0.591783
-0.463486
-0.377958
-0.308561
-0.243024
-0.179359
-0.11975
-0.0618875
-0.0271482
3.31163
3.31016
3.30394
3.28471
3.23578
3.1277
2.91283
2.52047
1.86112
0.84181
-0.559954
-2.21071
-3.67102
-4.35935
-4.13471
-3.38546
-2.58263
-1.95406
-1.49797
-1.1431
-0.858728
-0.647579
-0.502291
-0.398965
-0.315356
-0.240796
-0.172864
-0.112492
-0.0556723
-0.0216162
3.30278
3.29946
3.28828
3.26026
3.19777
3.07037
2.83081
2.41285
1.73903
0.739202
-0.585601
-2.09269
-3.41679
-4.0921
-3.96632
-3.32964
-2.59337
-1.98629
-1.53223
-1.17671
-0.889638
-0.671281
-0.516714
-0.40643
-0.320264
-0.246964
-0.182322
-0.125402
-0.070193
-0.0328473
3.24411
3.23632
3.21396
3.16796
3.08113
2.92401
2.65228
2.20647
1.52066
0.541135
-0.717547
-2.11222
-3.31819
-3.9343
-3.82598
-3.24908
-2.57115
-1.99662
-1.55411
-1.2044
-0.921395
-0.702137
-0.543188
-0.431062
-0.348342
-0.280346
-0.216369
-0.153263
-0.0871135
-0.0362843
3.25279
3.24664
3.22867
3.19034
3.11512
2.97416
2.7224
2.29613
1.61902
0.619069
-0.706611
-2.21779
-3.53307
-4.15984
-3.96795
-3.29627
-2.56354
-1.97052
-1.52541
-1.1761
-0.894239
-0.678245
-0.52483
-0.419371
-0.343033
-0.279587
-0.217186
-0.152504
-0.083441
-0.0306863
3.26923
3.2663
3.25681
3.23338
3.18103
3.07252
2.86193
2.47795
1.82352
0.786964
-0.675339
-2.43874
-3.99122
-4.62911
-4.25005
-3.38121
-2.54022
-1.91318
-1.46577
-1.12007
-0.842384
-0.633159
-0.488992
-0.393678
-0.327368
-0.27284
-0.217068
-0.15612
-0.0883043
-0.0351081
3.29208
3.29376
3.2964
3.29452
3.2759
3.2166
3.07103
2.75825
2.15082
1.06919
-0.604956
-2.80061
-4.75981
-5.38071
-4.66601
-3.48615
-2.48896
-1.81565
-1.36709
-1.03089
-0.765894
-0.572831
-0.44449
-0.360334
-0.300016
-0.248392
-0.194757
-0.136645
-0.0737666
-0.0257899
3.31931
3.32664
3.3442
3.36929
3.39399
3.40029
3.34661
3.14264
2.62275
1.50746
-0.454641
-3.34195
-5.94231
-6.45757
-5.18415
-3.56649
-2.38367
-1.66827
-1.22312
-0.897157
-0.649713
-0.486452
-0.392407
-0.335572
-0.290195
-0.243123
-0.189599
-0.133931
-0.0788874
-0.0382706
3.34841
3.36195
3.39608
3.45165
3.52686
3.61312
3.67853
3.63051
3.26389
2.1631
-0.164558
-4.14121
-7.70834
-7.90909
-5.77531
-3.58699
-2.18555
-1.45222
-1.04628
-0.744726
-0.510771
-0.369783
-0.305934
-0.27468
-0.240666
-0.189972
-0.124976
-0.0610603
-0.011348
0.00840381
3.3766
3.39636
3.44717
3.534
3.66283
3.83845
4.04781
4.20942
4.09229
3.10395
0.331379
-5.35744
-10.3069
-9.67778
-6.29637
-3.53468
-1.88903
-1.11288
-0.776702
-0.547945
-0.370424
-0.286695
-0.282964
-0.303324
-0.301121
-0.259436
-0.186463
-0.111147
-0.0553192
-0.0305186
3.40112
3.42637
3.49204
3.60752
3.78708
4.05187
4.41635
4.83485
5.08904
4.39567
1.16812
-7.13317
-14.1794
-11.7952
-6.47832
-3.27314
-1.55971
-0.770578
-0.469201
-0.268881
-0.109602
-0.0517356
-0.08279
-0.13907
-0.163957
-0.136025
-0.0667628
0.00849716
0.0545993
0.0498058
3.41949
3.44883
3.52565
3.66294
3.88305
4.22235
4.72518
5.40478
6.10665
6.00128
2.48924
-9.19578
-19.1337
-14.3602
-6.44938
-2.53144
-0.93678
-0.393609
-0.27553
-0.179319
-0.0861987
-0.0820475
-0.157263
-0.246839
-0.289462
-0.266827