/*--------------------------------*- C++ -*----------------------------------*\
| =========                 |                                                 |
| \\      /  F ield         | OpenFOAM: The Open Source CFD Toolbox           |
|  \\    /   O peration     | Version:  2512                                  |
|   \\  /    A nd           | Website:  www.openfoam.com                      |
|    \\/     M anipulation  |                                                 |
\*---------------------------------------------------------------------------*/
FoamFile
{
    version     2.0;
    format      ascii;
    arch        "LSB;label=32;scalar=64";
    class       surfaceScalarField;
    location    "300";
    object      phi;
}
// * * * * * * * * * * * * * * * * * * * * * * * * * * * * * * * * * * * * * //

dimensions      [0 3 -1 0 0 0 0];

oriented        oriented;

internalField   nonuniform List<scalar> 
260615
(
1.59993
-5.71184e-05
0.000127504
1.59984
-0.000187595
0.00026516
1.59978
-0.000368471
0.000430232
1.59978
-0.000648851
0.00063898
1.59997
-0.0010959
0.000904819
1.60049
-0.00174941
0.00121991
1.60119
-0.00227004
0.00156579
1.60431
-0.00512817
0.00199897
1.608
-0.00648688
0.00278803
1.61336
-0.00870128
0.00333451
1.6201
-0.0104232
0.00368506
1.61889
-0.00237032
0.00357763
1.6307
-0.0148873
0.00307474
1.63127
-0.00263265
0.00206307
1.62907
0.00125976
0.000952364
1.62557
0.0034366
6.367e-05
1.62131
0.00444205
-0.000173499
1.61919
0.00247251
-0.000350649
1.61721
0.00231816
-0.000324925
1.61565
0.00177447
-0.000209915
1.6145
0.00121062
-5.99924e-05
1.61371
0.000703939
8.72517e-05
1.61316
0.000309751
0.000244053
1.61275
1.96912e-05
0.00039555
1.61242
-0.000200371
0.000527148
1.61217
-0.000372897
0.000634898
1.61197
-0.000507858
0.00070879
1.61181
-0.000607735
0.000771019
1.61166
-0.000660539
0.000821568
-0.000654124
0.000847933
1.59992
-0.000108847
0.000130938
1.59981
-0.000358808
0.000271343
1.59971
-0.000706917
0.000440609
1.59964
-0.00125008
0.000656895
1.59973
-0.0021242
0.000936685
1.60016
-0.00346987
0.0012799
1.60133
-0.00511311
0.00167287
1.60364
-0.00958461
0.00213987
1.60731
-0.0132328
0.00306483
1.61294
-0.0180826
0.00374602
1.62041
-0.0221322
0.00423419
1.61999
-0.00616676
0.00421631
1.6321
-0.0305922
0.00359693
1.63247
-0.00547917
0.00248708
1.62978
0.00279033
0.00116716
1.62576
0.00734181
0.000113643
1.6219
0.00843916
-0.000126347
1.61907
0.00561393
-0.000300059
1.617
0.00462323
-0.000234939
1.61545
0.00342654
-9.72555e-05
1.61435
0.00223986
7.57959e-05
1.6136
0.00119262
0.000255973
1.61309
0.000393296
0.00043458
1.61269
-0.000192791
0.000606525
1.61237
-0.000643364
0.000762045
1.61212
-0.00100638
0.000888243
1.61192
-0.00130335
0.000996373
1.61176
-0.00153424
0.00109036
1.61163
-0.00170016
0.00116707
-0.00173581
0.00123105
1.5999
-0.00015119
0.000136249
1.59976
-0.000499824
0.000282437
1.59958
-0.000988932
0.000457742
1.59939
-0.00176021
0.000690271
1.59928
-0.00301984
0.00100293
1.59941
-0.0050232
0.00141206
1.60011
-0.00775277
0.00193899
1.60219
-0.0141132
0.00243301
1.60576
-0.0204826
0.00366949
1.61191
-0.0288908
0.00465362
1.62104
-0.0367182
0.00545489
1.62229
-0.0130473
0.00563373
1.63506
-0.048107
0.00476125
1.63501
-0.00886951
0.00344528
1.63121
0.00495885
0.00163501
1.62606
0.0123038
0.000201849
1.62153
0.0129738
4.49422e-06
1.61866
0.00867007
-0.000173235
1.61655
0.00671259
3.052e-05
1.61502
0.00472725
0.000232941
1.614
0.00278423
0.000475581
1.61335
0.00111828
0.000726396
1.6129
-0.000121742
0.000960389
1.61257
-0.00102232
0.00116464
1.61229
-0.00171435
0.00134224
1.61208
-0.00227513
0.0014821
1.61191
-0.00274144
0.00160832
1.61177
-0.0031229
0.00172541
1.61168
-0.00343265
0.0018256
-0.00357466
0.00189405
1.59989
-0.000179835
0.000139324
1.59968
-0.000597024
0.00029655
1.59939
-0.00118781
0.000484518
1.59902
-0.00213239
0.000737248
1.5986
-0.003706
0.00109675
1.59827
-0.00629304
0.00159342
1.59833
-0.0100934
0.00228172
1.59977
-0.018547
0.00297648
1.603
-0.0283794
0.00465555
1.60989
-0.0419802
0.00619414
1.62206
-0.0564308
0.00753995
1.62645
-0.0251923
0.0077516
1.63984
-0.0687362
0.00723935
1.63927
-0.0136089
0.00531555
1.63344
0.0082577
0.00256031
1.6263
0.0190403
0.000417801
1.62099
0.0180796
0.00021848
1.61795
0.0115539
0.00017098
1.61577
0.00839491
0.000499605
1.61431
0.0053932
0.000804899
1.61342
0.0024774
0.00120518
1.61286
5.5447e-05
0.00161667
1.61247
-0.00172791
0.0019957
1.61217
-0.00304083
0.00231583
1.61194
-0.00405655
0.00257162
1.61177
-0.0048744
0.00277512
1.61163
-0.00554785
0.00294422
1.61152
-0.00610033
0.00308809
1.61146
-0.00660151
0.00322578
-0.00708944
0.00330832
1.59986
-0.000191479
0.000145933
1.59959
-0.00063946
0.000306759
1.59916
-0.00128075
0.000516283
1.59855
-0.00232258
0.000798172
1.59773
-0.00409981
0.0012113
1.59673
-0.00713235
0.0018299
1.59577
-0.0118703
0.00272987
1.59606
-0.0226186
0.00377288
1.59834
-0.0367964
0.00612599
1.60609
-0.058308
0.00856149
1.62381
-0.0849585
0.0107891
1.65341
-0.0665166
0.0117166
1.64689
-0.0738155
0.0115919
1.64609
-0.0216589
0.00887224
1.63652
0.0134969
0.00430877
1.62627
0.0282251
0.00108868
1.61998
0.023226
0.00116728
1.61672
0.0133715
0.00147815
1.61455
0.00868342
0.0019079
1.61334
0.00436785
0.00225442
1.61274
0.000303386
0.00279279
1.61238
-0.00295115
0.00338011
1.6121
-0.00539442
0.00395282
1.61189
-0.0073193
0.00448929
1.61176
-0.00890274
0.00497165
1.61172
-0.0102263
0.00539899
1.61173
-0.0113327
0.00577455
1.61179
-0.0122391
0.00607915
1.61188
-0.0130414
0.00636143
-0.0134905
0.00655562
1.59984
-0.000184318
0.000152806
1.59949
-0.000620644
0.000321255
1.59891
-0.00125157
0.000547503
1.59801
-0.00229389
0.000865178
1.59668
-0.00411801
0.00134162
1.59481
-0.00736256
0.00209904
1.59258
-0.0129321
0.00327924
1.59062
-0.0255274
0.00485557
1.59061
-0.0449572
0.00815955
1.599
-0.0786698
0.0119473
1.62663
-0.128372
0.0157526
1.64991
-0.108686
0.0188678
1.65667
-0.100858
0.0202587
1.65632
-0.0379788
0.0166302
1.63965
0.021676
0.00850058
1.62537
0.0395633
0.00294878
1.61813
0.0271307
0.00337579
1.61406
0.0128872
0.00459932
1.61178
0.00527497
0.00573054
1.61093
-0.00144194
0.00670012
1.61088
-0.00735756
0.00774613
1.61117
-0.0118762
0.00865263
1.61172
-0.0153307
0.00939554
1.61253
-0.0181756
0.0100588
1.61349
-0.0205822
0.0107189
1.61451
-0.0226082
0.0113655
1.61545
-0.0242793
0.0120157
1.61621
-0.0256122
0.0126241
1.6169
-0.0269838
0.0132591
-0.0271752
0.0137649
1.59981
-0.00015827
0.000156526
1.59939
-0.000539556
0.000338269
1.59865
-0.00109553
0.0005787
1.59745
-0.00202578
0.000928786
1.59554
-0.00369616
0.00147874
1.59262
-0.00682768
0.00237935
1.5886
-0.0128194
0.00389719
1.58084
-0.0241484
0.00637627
1.57813
-0.0528513
0.0105822
1.58615
-0.103152
0.016439
1.62911
-0.0385055
0.0226904
-0.0482581
-0.0478803
-0.0594175
1.66526
-0.0425994
0.0324258
-0.0387584
-0.0482194
-0.0477139
1.67155
-0.0291536
0.0403862
-0.0337369
-0.0377686
-0.0468916
1.67251
-0.0212397
0.0361276
-0.00567105
-0.031025
-0.0172059
1.64065
0.0302899
0.0232294
1.62124
0.0456417
0.0133545
1.61501
0.0218239
0.0115774
1.61058
0.0052292
0.0121401
1.61006
-0.00723709
0.0130921
1.61186
-0.0181889
0.0150041
1.61385
-0.0270721
0.017764
1.61467
-0.0335503
0.0208864
1.61376
-0.0384993
0.0240952
1.61089
-0.0426703
0.0273752
1.60597
-0.0461914
0.030539
1.59911
-0.0491417
0.0333982
1.59053
-0.051573
0.0358816
1.58103
-0.0539156
0.0378175
1.56915
-0.0548643
0.0397691
-0.0581676
0.0396925
1.59979
-0.000115406
0.000159746
1.5993
-0.000402317
0.000353399
1.59841
-0.000822516
0.000605963
1.59693
-0.00152866
0.000986843
1.59444
-0.0028217
0.0016039
1.59027
-0.00530855
0.00264165
1.58344
-0.0105117
0.00451397
1.57282
-0.0215326
0.00800119
1.55863
-0.0517957
0.0131191
0.392052
-0.12037
0.0215962
0.388508
0.388646
0.385019
0.396514
-0.0442331
0.00124444
-0.406728
0.420724
-0.0606301
0.00401098
-0.425032
0.426969
-0.0404065
0.00931311
-0.425227
0.429902
-0.0332555
0.00735194
1.66321
0.0132498
0.079085
-0.427376
-0.433853
-0.426498
-0.437633
1.63472
0.0124417
0.0617181
1.61448
-0.0192021
0.061304
1.59635
-0.0413017
0.0647156
1.57527
-0.0542026
0.0681041
1.54874
-0.0633848
0.0717795
1.51647
-0.069589
0.0748432
1.47999
-0.0733963
0.0763626
1.44135
-0.0763494
0.0765076
1.40253
-0.0794542
0.0756161
1.3654
-0.0825958
0.0735477
1.33153
-0.085583
0.0703304
1.30213
-0.0884768
0.0663215
1.27795
-0.091617
0.0619002
1.25757
-0.0919515
0.057489
-0.0981151
0.0499479
1.59978
-5.98617e-05
0.00016211
1.59923
-0.000222387
0.000365435
1.59823
-0.000458317
0.000626087
1.59652
-0.00085046
0.00103316
1.59356
-0.00156965
0.00170317
1.58834
-0.00295965
0.00285788
1.57877
-0.00599222
0.00504387
1.56094
-0.0129939
0.0092819
1.52646
-0.0328098
0.0154913
0.377969
-0.10081
0.0218981
0.372261
0.371463
0.363279
0.384579
-0.0556851
-0.000475219
0.0495081
0.422475
-0.407578
0.0783566
-0.0255512
-0.0236031
-0.0293045
-0.0213186
0.00349274
0.000167948
0.00341174
-0.000654788
-0.42384
0.425804
0.060398
-0.0263868
-0.0249491
-0.0304856
-0.0196016
0.0123697
0.0074101
0.00816226
0.0110073
-0.434962
0.449766
0.0579887
-0.022456
-0.0319678
-0.0237246
-0.0200799
0.00504773
0.00541298
0.00922104
0.0055781
1.14046
-0.109238
0.179601
-0.404681
-0.326803
-0.34845
-0.117759
1.07917
-0.0294219
0.103201
1.03322
-0.0637521
0.0905347
0.998591
-0.085091
0.0784762
0.973112
-0.093608
0.0649542
0.954636
-0.098206
0.0533678
0.94259
-0.100165
0.042678
0.937582
-0.100656
0.0323056
0.939024
-0.100894
0.0231257
0.946226
-0.101542
0.0149008
0.960156
-0.102794
0.00628367
0.980591
-0.103724
-0.00227534
1.00562
-0.103781
-0.00969895
1.03215
-0.102752
-0.0153765
1.06291
-0.101354
-0.021343
-0.0942717
-0.0263723
1.59976
2.51912e-06
0.000178304
1.59916
-1.92367e-05
0.00038517
1.59809
-4.39543e-05
0.000654689
1.59623
-7.06487e-05
0.00107358
1.59299
-0.000102931
0.00177082
1.58717
-0.000144095
0.00299718
1.57598
-0.000192629
0.00537964
1.55306
-0.000252881
0.0101802
1.50361
-0.000333723
0.0169624
0.352705
-0.000585316
0.0152988
0.348562
0.343217
0.343579
-0.0314033
-0.0150124
0.0501606
0.0844882
0.0899432
0.0857783
0.0887118
0.0276775
-0.100552
0.105031
-0.024527
-0.00257297
-0.00206228
-0.0017537
-0.00126277
-0.102749
0.0507101
0.102035
-0.0147126
-0.0169193
-0.0190986
-0.0157518
0.00520677
0.00298078
0.00467039
0.00340797
-0.0775256
0.0118476
0.00272085
-0.0177081
0.0805553
-0.0526982
-0.018845
-0.244973
-0.0643005
0.0524412
0.11293
0.106033
0.275585
-0.0163068
-0.341347
0.499734
-0.0201094
-0.267759
0.654508
-0.0197683
-0.220053
0.770732
-0.0206549
-0.189119
0.85948
-0.0217558
-0.165146
0.92966
-0.0228943
-0.147412
0.98813
-0.0242527
-0.134851
1.03849
-0.0256066
-0.125636
1.08243
-0.0268535
-0.11862
1.12082
-0.027951
-0.11323
1.15433
-0.0285593
-0.108662
1.18388
-0.0286317
-0.104687
1.20933
-0.0277066
-0.100476
1.23442
-0.0278129
-0.0986255
-0.023427
-0.0928834
1.59974
6.46109e-05
0.000193278
1.59913
0.000183936
0.000400049
1.59805
0.000370497
0.000666483
1.59618
0.00070773
0.00108927
1.59292
0.00136279
0.0017864
1.58716
0.00268614
0.00292399
1.57597
0.00562343
0.00536875
1.55304
0.0125026
0.0101737
1.50356
0.0321573
0.0169787
0.348463
0.0997994
0.0154748
0.352611
0.343485
0.34312
0.000285804
0.030871
-0.0209377
0.0822666
0.0868209
0.0820575
0.0870608
0.000481212
-0.0977417
0.0906092
0.00916769
-0.000336551
-0.000908271
-0.00031404
-0.000973012
0.0116174
0.00163953
0.001118
-0.0106367
-0.00305158
-0.0228578
0.113557
-0.339903
0.0521832
-0.00380045
0.0773047
0.10454
0.327348
0.0358306
-0.4023
0.56141
0.069818
-0.323953
0.724324
0.0931253
-0.275762
0.844915
0.102956
-0.244144
0.93452
0.106977
-0.218285
1.00256
0.106624
-0.197521
1.05644
0.102567
-0.180676
1.10027
0.0968563
-0.166293
1.13645
0.0906639
-0.153686
1.1666
0.0844483
-0.142543
1.19186
0.0787521
-0.132564
1.2134
0.0735485
-0.123719
1.23146
0.0695307
-0.115284
1.2488
0.0645829
-0.109738
0.0592882
-0.0993819
1.59975
0.000119836
0.000192077
1.5992
0.000365587
0.00036245
1.5982
0.000738499
0.000626264
1.59645
0.00139212
0.00105801
1.59346
0.00262603
0.00172537
1.58831
0.00504458
0.00279038
1.57872
0.01016
0.0050465
1.56086
0.0210616
0.00929948
1.52628
0.0511576
0.0155752
0.372084
0.119541
0.0222953
0.377816
0.363079
0.371261
-0.0498235
0.05539
-0.00401417
0.093324
0.0904952
0.0920039
0.094689
-0.0276271
-0.100889
0.106538
-0.00417737
0.0261623
-0.0108572
-0.104371
0.111418
0.00813108
0.0356484
-0.00948181
-0.0149865
-0.0156027
-0.00744239
-0.0983685
-0.0116031
0.097535
0.0200178
1.00373
0.00627197
0.172384
-0.277997
-0.393718
-0.0744175
-0.322733
0.935034
0.0182342
0.0863383
0.886593
0.0530737
0.0652279
0.862741
0.0732041
0.0438257
0.858834
0.0838096
0.0231147
0.869834
0.0907794
0.0052515
0.892288
0.0940565
-0.00984997
0.921856
0.0947161
-0.0216992
0.953962
0.0942922
-0.0295365
0.986415
0.0928369
-0.0346263
1.0172
0.0911933
-0.0375292
1.04546
0.0893825
-0.0388802
1.07097
0.0872767
-0.0392372
1.09339
0.0855547
-0.0384476
1.11509
0.0820516
-0.0391631
0.0806498
-0.0356068
1.59978
0.0001624
0.000177739
1.5993
0.000504983
0.000335862
1.59842
0.00101668
0.000589394
1.59691
0.00189822
0.00100123
1.59441
0.00351346
0.00161412
1.59022
0.00657787
0.00265131
1.58336
0.0124868
0.004533
1.57267
0.0237034
0.00804323
1.55833
0.0522696
0.0132304
0.388331
0.102459
0.0219972
0.391882
0.384781
0.388424
-0.0492334
0.391882
0.0439549
0.00172822
-0.0779329
-0.406575
0.418884
0.0603132
0.00528697
-0.0621924
-0.421535
0.423192
0.0415321
0.0189174
-0.0614333
-0.426799
0.438717
0.0354079
0.0141557
1.66386
-0.0159653
0.0907897
-0.437074
-0.428243
-0.438783
-0.428282
1.63164
-0.027159
0.0776527
1.60205
0.000706469
0.082002
1.57206
0.0164454
0.086793
1.54176
0.0257636
0.0883898
1.51183
0.0327364
0.0880089
1.4831
0.0372801
0.0855323
1.45704
0.0396492
0.0811328
1.43444
0.0406908
0.076203
1.41546
0.0411987
0.0706203
1.39953
0.0415793
0.0655425
1.38671
0.0416962
0.0605158
1.37617
0.041771
0.0560409
1.36797
0.0418393
0.0519225
1.36007
0.041686
0.0482702
0.0422012
0.0437284
1.59981
0.000187855
0.000159581
1.59938
0.000588978
0.000339049
1.59865
0.00117987
0.00057128
1.59742
0.00217787
0.000938015
1.5955
0.00395172
0.0014847
1.59255
0.00713643
0.00238915
1.58848
0.0126342
0.00391453
1.58064
0.0251327
0.00641446
1.57778
0.0444568
0.0106789
1.58547
0.0780616
0.0167135
1.62729
0.127364
0.0233767
-0.0382931
-0.047777
-0.0475942
-0.0588683
1.66177
0.108491
0.0343
-0.0424543
-0.0389252
-0.0480127
-0.0478429
1.66709
0.103297
0.0418648
-0.029898
-0.0339313
-0.038905
-0.0476845
1.67056
0.0460839
0.0395
-0.0230559
-0.00907311
-0.034083
-0.0227584
1.63844
-0.0123167
0.0285038
1.6204
-0.0298789
0.0208024
1.61671
-0.0161523
0.0205973
1.61434
-0.00259492
0.0214527
1.61439
0.00370872
0.0220413
1.61532
0.00889873
0.0229382
1.6157
0.012963
0.0239558
1.61512
0.0154254
0.0248064
1.61372
0.0166825
0.0254133
1.61171
0.0173076
0.0259099
1.60913
0.0176421
0.0265162
1.60632
0.0177923
0.0267154
1.60318
0.0178763
0.0270413
1.60012
0.017744
0.0271577
1.59665
0.0178509
0.027303
0.0174525
0.0270032
1.59984
0.000194308
0.000152804
1.59949
0.000611433
0.000322165
1.5989
0.00121781
0.000546598
1.59798
0.00222141
0.000871598
1.59663
0.00395561
0.0013472
1.59471
0.00693769
0.00210873
1.59243
0.0116159
0.00329779
1.59038
0.0222886
0.00489368
1.59022
0.036384
0.00824263
1.59834
0.0578145
0.0121393
1.62522
0.0843645
0.0161468
1.6475
0.066433
0.0198098
1.65376
0.0757058
0.0213729
1.65464
0.026754
0.0184868
1.6386
-0.00724089
0.0109976
1.6249
-0.0218868
0.00574736
1.61868
-0.0164202
0.00653304
1.6153
-0.00696409
0.00777843
1.6134
-0.00313014
0.00876285
1.61273
0.00013014
0.00946068
1.61266
0.00292462
0.0101192
1.61277
0.00477099
0.0105529
1.61293
0.00576342
0.0107624
1.61313
0.00629416
0.0108251
1.61329
0.00663793
0.0108392
1.61348
0.00688364
0.0107252
1.61363
0.00706138
0.0106675
1.61376
0.00713016
0.0104808
1.6141
0.00717263
0.0103484
0.00712337
0.0100597
1.59986
0.000181806
0.00014595
1.59959
0.000573276
0.000307818
1.59915
0.00113522
0.000518571
1.59852
0.00204839
0.000802142
1.59766
0.00358687
0.00121797
1.59662
0.00613338
0.00184123
1.5956
0.00988683
0.00274983
1.5958
0.018284
0.00380974
1.59794
0.0280581
0.00619627
1.60544
0.0416161
0.0087042
1.62268
0.0560917
0.0110582
1.6516
0.0252599
0.0122771
1.64492
0.0700308
0.0123912
1.64482
0.0168431
0.0100406
1.63587
-0.00409312
0.00583184
1.62607
-0.0148111
0.00275952
1.62043
-0.0137581
0.00300262
1.61769
-0.00752683
0.00332928
1.61584
-0.00491409
0.00365001
1.61482
-0.00259481
0.00376448
1.61431
-0.000487327
0.00393319
1.614
0.00106116
0.00402361
1.61374
0.00199549
0.00402677
1.61351
0.00255746
0.00397622
1.61328
0.00295398
0.00390923
1.61308
0.00325576
0.00383618
1.61288
0.00347053
0.00378629
1.61271
0.00357908
0.00372062
1.61254
0.00365793
0.00368813
0.00369482
0.00363495
1.59989
0.00015227
0.000139338
1.59968
0.000480952
0.00029771
1.59937
0.000947887
0.000487092
1.59898
0.00169518
0.000741733
1.59853
0.00292822
0.00110415
1.59816
0.00490136
0.00160554
1.59815
0.00759673
0.00230211
1.5995
0.0139176
0.0030118
1.6026
0.0202502
0.00471761
1.60927
0.0286412
0.00630808
1.62111
0.0365275
0.0077429
1.62513
0.0131526
0.00811815
1.6384
0.0489798
0.00780219
1.63825
0.0108875
0.00612369
1.6329
-0.00229847
0.00357615
1.62615
-0.00955311
0.00151685
1.62128
-0.0102288
0.00136973
1.6186
-0.00614118
0.00130603
1.61669
-0.00455968
0.00156739
1.6154
-0.00305018
0.00175374
1.61461
-0.00165546
0.00197341
1.61409
-0.000564175
0.00214821
1.61369
0.000132514
0.00226581
1.61335
0.000559136
0.00233958
1.61305
0.000854786
0.00239443
1.6128
0.00107314
0.00243674
1.61257
0.00121717
0.0024844
1.61236
0.00129388
0.002494
1.61224
0.0012765
0.0025048
0.00117964
0.00250662
1.5999
0.000109086
0.000136248
1.59975
0.000345373
0.000283675
1.59956
0.000678472
0.000460511
1.59935
0.00120551
0.000695076
1.5992
0.0020619
0.00101077
1.59929
0.00338767
0.0014247
1.59992
0.0050088
0.00195962
1.60191
0.00945565
0.0024673
1.60536
0.0130832
0.00372619
1.61133
0.0179292
0.00475005
1.62022
0.0220312
0.00561695
1.62123
0.00625946
0.00590267
1.63393
0.0311267
0.00517065
1.63416
0.00665546
0.00401942
1.63075
-0.0012169
0.00234193
1.62594
-0.00569095
0.000963638
1.62176
-0.00681126
0.000778641
1.6192
-0.00413031
0.000562085
1.61734
-0.00337702
0.000686121
1.616
-0.0024692
0.000768724
1.61509
-0.0015964
0.000852966
1.61448
-0.000865346
0.000915664
1.61403
-0.000362115
0.000952235
1.61365
-3.84585e-05
0.000971389
1.61333
0.000186419
0.00098809
1.61307
0.000352777
0.000985959
1.61283
0.000468515
0.000984673
1.61262
0.000537654
0.000963819
1.61241
0.00056162
0.000932653
0.000623098
0.000905633
1.59992
5.65449e-05
0.000130887
1.59981
0.000180045
0.000272603
1.59969
0.000353402
0.000443473
1.5996
0.000625779
0.000661892
1.59965
0.0010641
0.000944835
1.60004
0.00170793
0.00129292
1.60113
0.00221803
0.00169376
1.60335
0.00506471
0.00217363
1.60691
0.00641501
0.00311891
1.61238
0.00863036
0.00383316
1.61967
0.0103825
0.00437381
1.61909
0.00242599
0.00443516
1.63116
0.0151444
0.00392089
1.63173
0.0031753
0.0029267
1.62935
-0.000527499
0.00170153
1.62565
-0.00266311
0.000689173
1.62209
-0.00368748
0.000450967
1.61953
-0.00179496
0.000238579
1.61769
-0.00176024
0.000236921
1.6163
-0.00135646
0.000286337
1.61529
-0.000940072
0.000357685
1.61458
-0.000582735
0.000428493
1.61406
-0.00033422
0.000496268
1.61363
-0.000180083
0.000561452
1.61328
-8.09004e-05
0.00061987
1.61299
-1.13093e-05
0.000656689
1.61274
3.5521e-05
0.000681959
1.6125
6.71838e-05
0.000701164
1.61229
6.84611e-05
0.000705553
9.67037e-05
0.000725051
1.59993
0.000127405
1.59984
0.000266405
1.59976
0.000433105
1.59974
0.00064402
1.59989
0.000913059
1.60036
0.00123305
1.60099
0.00158672
1.60403
0.00203247
1.60761
0.00284073
1.61282
0.00341769
1.6194
0.00381483
1.61806
0.00377433
1.62986
0.00335808
1.6306
0.0024405
1.62867
0.00140216
1.62548
0.000543191
1.6215
0.000296205
1.61964
7.23462e-05
1.61786
2.78192e-05
1.61645
5.67435e-05
1.6154
0.000111796
1.61466
0.000157056
1.61412
0.000205906
1.61369
0.000247771
1.61334
0.000276188
1.61303
0.000294488
1.61277
0.000296095
1.61253
0.000306295
1.61229
0.000306445
0.000337251
1.60004
-5.63939e-05
0.00013241
1.60008
-0.000184839
0.000406952
1.60014
-0.000362074
0.000728307
1.60028
-0.000635988
0.00113366
1.60059
-0.00107149
0.00165408
1.60116
-0.00151828
0.00216796
1.60171
-0.00117701
0.00218068
1.6019
-0.00334484
0.00514732
1.60558
-0.00655005
0.00565121
1.61116
-0.00868503
0.00643819
1.61472
-0.00687247
0.00699194
1.61533
-0.00354836
0.00652111
1.62518
-0.01294
0.00616219
1.62885
-0.00557424
0.0039718
1.62643
0.00155622
0.0018177
1.62303
0.00353402
-6.17723e-05
1.62184
0.00251967
-0.00149829
1.61993
0.00122976
0.00033083
1.61803
0.00196458
-0.000376899
1.6165
0.00164509
-0.000324111
1.61538
0.00111797
-5.65685e-05
1.61457
0.00065124
0.00025705
1.61395
0.000294356
0.000565694
1.61347
3.79558e-05
0.000835274
1.61305
-0.000150456
0.00110567
1.61265
-0.000292457
0.00133456
1.6124
-0.000399998
0.00136114
1.61221
-0.000475502
0.00143704
1.61205
-0.000510907
0.00150522
-0.000479524
0.00154783
1.60004
-0.000108473
0.000134586
1.60006
-0.00035463
0.000414601
1.60009
-0.00069607
0.000744539
1.60017
-0.00122719
0.00116503
1.60039
-0.00207931
0.00171301
1.60119
-0.00333287
0.00229394
1.60357
-0.00435013
0.0024566
1.60381
-0.0069942
0.00553702
1.60705
-0.0128006
0.00606465
1.61216
-0.0172767
0.00722174
1.61506
-0.0135311
0.0079967
1.61691
-0.00845362
0.0072716
1.62657
-0.0265747
0.00757615
1.63144
-0.0126665
0.00471754
1.6293
0.00270133
0.00216743
1.62585
0.00697536
0.000122089
1.62423
0.00558862
-0.00156014
1.62024
0.0046155
0.000305122
1.61796
0.00431413
-0.000290773
1.61644
0.0032586
-0.00019226
1.61536
0.00216783
0.000110827
1.61458
0.0012235
0.000462908
1.61399
0.000518257
0.000801262
1.6135
1.63543e-05
0.00111067
1.61303
-0.000355186
0.00143524
1.61267
-0.000643865
0.00160792
1.61242
-0.000873643
0.00172162
1.61223
-0.00104508
0.0018502
1.61209
-0.00116735
0.00197153
-0.00116475
0.00208859
1.60003
-0.000150615
0.000138784
1.60002
-0.000494439
0.000430154
1.59997
-0.000973769
0.000777042
1.59993
-0.00172744
0.00122817
1.59996
-0.00295442
0.00183836
1.60029
-0.00487133
0.0026222
1.60167
-0.00712392
0.00332542
1.60216
-0.0108227
0.00575481
1.60543
-0.0194918
0.00708936
1.61102
-0.0271613
0.0089404
1.6167
-0.0240912
0.0103323
1.61951
-0.0151886
0.009558
1.63046
-0.0427443
0.00999396
1.63368
-0.0186714
0.00623765
1.63051
0.00468366
0.00283501
1.62591
0.011535
0.000255413
1.6232
0.00944932
-0.00113983
1.61975
0.00795332
-5.09612e-05
1.61763
0.00662387
-0.000153795
1.61614
0.00484944
0.000130615
1.61513
0.00310716
0.00054343
1.61444
0.00164549
0.000997042
1.61391
0.000590117
0.00141293
1.61345
-0.000147241
0.00178024
1.61301
-0.000683252
0.00210975
1.61272
-0.0010963
0.00221905
1.61251
-0.00142366
0.0023682
1.61235
-0.00167785
0.00251821
1.61222
-0.00187286
0.00265671
-0.00191513
0.00276903
1.60001
-0.000179208
0.000150739
1.59995
-0.000590573
0.000445823
1.5998
-0.00116929
0.00082281
1.59958
-0.0020916
0.00131816
1.59933
-0.00362227
0.00201117
1.59919
-0.00612767
0.00298432
1.59963
-0.00951272
0.00422209
1.59979
-0.014555
0.00654253
1.60277
-0.0267527
0.00892532
1.60906
-0.0390835
0.0118133
1.61737
-0.0389666
0.0141028
1.62483
-0.027615
0.0127193
1.63476
-0.0604232
0.0149995
1.63768
-0.0254474
0.00919029
1.6326
0.00839214
0.00395353
1.62614
0.018262
0.000163043
1.62245
0.0143859
-0.00101245
1.61919
0.0115782
-0.000189323
1.61707
0.00910454
0.000139171
1.61566
0.00647958
0.000590944
1.61477
0.00399235
0.0012078
1.61416
0.00197933
0.00188944
1.61364
0.000540551
0.00256275
1.6132
-0.000488737
0.00309358
1.61284
-0.0012601
0.00349999
1.61262
-0.0018663
0.00376563
1.61246
-0.00234968
0.00402647
1.61233
-0.00272374
0.00426042
1.61226
-0.00305231
0.00447643
-0.00334236
0.00463087
1.59997
-0.000190878
0.000179038
1.59986
-0.000631185
0.000455505
1.59959
-0.001262
0.000873567
1.59914
-0.0022768
0.00142943
1.59849
-0.00400297
0.00222947
1.5977
-0.00693209
0.00342364
1.59694
-0.0112306
0.00519372
1.59632
-0.0180924
0.00792975
1.59839
-0.0343894
0.0116787
1.60567
-0.0539868
0.0161658
1.62068
-0.063932
0.0207281
1.65352
-0.0679573
0.0192101
1.64309
-0.0609275
0.0225183
1.6443
-0.0321985
0.0144167
1.63568
0.0153422
0.00600929
1.62643
0.0286889
-7.10169e-05
1.62149
0.0213938
-0.000888575
1.61827
0.015929
0.000350789
1.61623
0.0119292
0.00113343
1.61506
0.00814025
0.00176785
1.61448
0.0048126
0.0025618
1.61404
0.00239171
0.00340203
1.61358
0.000750016
0.00419832
1.61325
-0.000393033
0.00472041
1.61303
-0.00126608
0.00520028
1.61289
-0.00196873
0.00564106
1.61279
-0.00253436
0.00605769
1.61272
-0.00297882
0.00640277
1.6126
-0.00331465
0.00674337
-0.00345145
0.0070101
1.59993
-0.00018388
0.000207972
1.59975
-0.000612787
0.000479248
1.59934
-0.00122919
0.000917634
1.59862
-0.00225188
0.00155298
1.59749
-0.00401689
0.00247851
1.59587
-0.00714276
0.00392775
1.59391
-0.0122489
0.0062467
1.59207
-0.0213503
0.00994107
1.59176
-0.0414876
0.0155602
1.60003
-0.0732425
0.0229162
1.63934
-0.119723
0.0322108
1.6548
-0.0960702
0.0315118
1.66827
-0.091055
0.0369131
1.65529
-0.0284037
0.0258524
1.6399
0.0292576
0.00999136
1.6274
0.0446029
-0.000441026
1.62079
0.0323262
-0.000937424
1.61699
0.0229318
0.00142286
1.61487
0.0165621
0.00322814
1.61391
0.010862
0.00496205
1.61347
0.0060918
0.0069195
1.61318
0.00269158
0.00864956
1.61287
0.000431595
0.0100192
1.6128
-0.00114091
0.0108805
1.61285
-0.00227396
0.0116761
1.61299
-0.00307878
0.0123391
1.61317
-0.00358968
0.0128913
1.61333
-0.00380777
0.0132958
1.61359
-0.00401051
0.0136918
-0.0035146
0.0138018
1.5999
-0.000158136
0.000224672
1.59962
-0.000532928
0.000536148
1.59908
-0.00107629
0.000959286
1.59808
-0.00198007
0.00165223
1.59641
-0.00361208
0.00273991
1.59378
-0.00661394
0.00447055
1.59028
-0.0122961
0.00743118
1.58536
-0.0225198
0.0124613
1.5801
-0.0464287
0.020768
1.58399
-0.0937858
0.0330765
1.62452
-0.0413803
0.0500717
-0.0549869
-0.0379312
-0.053359
1.65803
-0.0396876
0.0531256
-0.0388246
-0.0352193
-0.0365639
1.66412
-0.0259767
0.0628076
-0.0390687
-0.0208325
-0.0336982
1.66835
-0.0209053
0.0504115
-0.0112986
-0.011126
-0.00360919
1.64217
0.0596042
0.0190919
1.627
0.0695231
0.00363147
1.61956
0.0478826
0.00348275
1.6156
0.0337641
0.00528614
1.61433
0.0250248
0.00592037
1.61422
0.0188839
0.00711486
1.6143
0.0147192
0.00907755
1.61415
0.012548
0.0111921
1.6138
0.0116093
0.0132722
1.61333
0.0112572
0.015444
1.61263
0.0111527
0.0178141
1.61165
0.0110846
0.0202175
1.61031
0.0111076
0.0225408
1.60864
0.0110734
0.0246069
1.60629
0.0114221
0.026695
0.0106917
0.0279891
1.59987
-0.000115721
0.000240356
1.59949
-0.000397911
0.000595981
1.59879
-0.000808459
0.00103241
1.59756
-0.00149466
0.0017252
1.59533
-0.00274339
0.00296248
1.59152
-0.00512448
0.00494848
1.58517
-0.0101058
0.00866847
1.57573
-0.0202808
0.0151938
1.56126
-0.0459325
0.027085
0.390082
-0.113002
0.0483098
0.38615
0.390688
0.386825
-0.00692822
0.393785
-0.0495417
0.0113691
-0.00968665
-0.404498
0.417155
-0.0576564
0.0149995
-0.0192149
-0.420525
0.420938
-0.0314042
0.0242335
-0.0224374
-0.421055
0.42585
-0.0342224
0.0309709
1.65217
0.143624
0.0440831
-0.423184
-0.429069
-0.423289
-0.425592
1.63346
0.121179
0.0288254
1.62192
0.0799985
0.0407405
1.61588
0.0520683
0.052464
1.61249
0.0363986
0.0601394
1.6077
0.0278903
0.0675853
1.5998
0.0239184
0.0735649
1.58839
0.0226696
0.077657
1.5739
0.0227112
0.0799073
1.55698
0.0230998
0.0806949
1.53854
0.0229708
0.0801743
1.51972
0.0216692
0.0785765
1.50142
0.0196653
0.0760762
1.48483
0.0168705
0.0727046
1.4682
0.0159256
0.0696246
0.00849081
0.063251
1.59985
-6.07079e-05
0.000251244
1.5994
-0.00022102
0.000631661
1.59854
-0.000451699
0.00112013
1.59707
-0.000832975
0.00184155
1.5944
-0.00152787
0.00314758
1.5897
-0.00285591
0.00528337
1.58066
-0.00570087
0.00967503
1.56423
-0.0120925
0.0175196
1.53127
-0.0312332
0.0337386
0.37249
-0.10273
0.0680366
0.362969
0.373833
0.365559
-0.0666113
0.0138504
-0.00489421
0.0543931
0.0941644
0.0940823
0.0932101
0.0942684
-0.00131508
-0.0994485
0.0209626
0.104955
-0.0270631
0.00190978
-0.107526
-0.0130928
0.0100334
0.106202
-0.00946043
0.0138416
-0.105283
-0.0177181
0.0175441
-0.024892
0.0224002
0.107933
1.24501
0.228344
0.0381029
-0.35739
-0.109385
-0.400059
-0.321377
1.24185
0.22083
0.00676144
1.23454
0.158689
0.0191641
1.22444
0.113629
0.0270281
1.21477
0.0844087
0.0266322
1.20868
0.0638346
0.0235312
1.20722
0.0491464
0.0189307
1.21166
0.0383045
0.0122509
1.22283
0.0297456
0.0049292
1.24023
0.0227842
-0.00216706
1.26066
0.01723
-0.00839726
1.28137
0.0124955
-0.013804
1.30179
0.00825393
-0.0186855
1.32162
0.00439362
-0.0227136
1.34238
0.00129036
-0.0274641
-0.000885462
-0.0289311
1.59985
1.07543e-06
0.000253834
1.59938
-2.11461e-05
0.000650011
1.59847
-4.59766e-05
0.00116234
1.59684
-7.35486e-05
0.00194129
1.5939
-0.000104394
0.00328161
1.58863
-0.000139782
0.0055375
1.57829
-0.000184471
0.0102029
1.55774
-0.000238759
0.018869
1.50649
-0.000296452
0.0372725
0.335686
-0.000410357
0.0830683
0.332962
0.334846
0.332897
-0.0435789
0.008363
0.0114929
0.0668495
0.0703456
0.0750718
0.0715306
0.0755987
0.00227554
0.00379482
-0.00576122
0.00651027
-0.00228677
-0.0010725
-0.00126734
-0.0010819
-0.00111096
-0.00752591
0.00217855
-0.00479809
0.00506301
0.00854567
-0.000807173
-0.000937135
-0.000886787
-0.000834414
-0.000427859
-0.00153577
0.000832882
-0.000544152
0.00189674
-0.000237187
0.674648
0.0297995
-0.450576
0.0192044
-0.0421917
-0.164173
-0.0833472
0.907665
0.0345657
-0.388035
1.06488
0.0353808
-0.301648
1.16625
0.0363013
-0.244079
1.23351
0.0350415
-0.206992
1.28102
0.0317323
-0.180538
1.31641
0.0271466
-0.160778
1.34476
0.0217101
-0.146587
1.3689
0.0161632
-0.136178
1.39016
0.0109144
-0.128002
1.40917
0.00619698
-0.121203
1.42622
0.00214666
-0.115352
1.4415
-0.00137179
-0.110323
1.45488
-0.00401168
-0.105449
1.46736
-0.00717092
-0.102635
-0.0082203
-0.0950543
1.59988
6.27319e-05
0.000247815
1.59943
0.000178767
0.000638257
1.59857
0.000360201
0.00111748
1.59697
0.000687906
0.00192582
1.59406
0.00132129
0.0032647
1.58864
0.00258273
0.00561493
1.57827
0.00533675
0.0102113
1.55772
0.0116157
0.018866
1.50648
0.0306204
0.0373028
0.332938
0.101883
0.0833111
0.33569
0.332881
0.33483
0.000175342
0.0432057
0.00664617
0.0161842
0.0666621