/*--------------------------------*- C++ -*----------------------------------*\
| =========                 |                                                 |
| \\      /  F ield         | OpenFOAM: The Open Source CFD Toolbox           |
|  \\    /   O peration     | Version:  2512                                  |
|   \\  /    A nd           | Website:  www.openfoam.com                      |
|    \\/     M anipulation  |                                                 |
\*---------------------------------------------------------------------------*/
FoamFile
{
    version     2.0;
    format      ascii;
    arch        "LSB;label=32;scalar=64";
    class       surfaceScalarField;
    location    "300";
    object      phi;
}
// * * * * * * * * * * * * * * * * * * * * * * * * * * * * * * * * * * * * * //

dimensions      [0 3 -1 0 0 0 0];

oriented        oriented;

internalField   nonuniform List<scalar> 
278528
(
1.59951
0.00040003
9.04474e-05
1.59907
0.00021422
0.000222653
1.59889
-0.000187496
0.000363131
1.59914
-0.000805007
0.000548057
1.59883
-0.000477271
0.000778995
1.59853
-0.000757875
0.00104638
1.59834
-0.00152792
0.00169973
1.60089
-0.00448398
0.0019161
1.6037
-0.00520688
0.00238177
1.6139
-0.0127904
0.00258333
1.61923
-0.00785906
0.00251208
1.61513
0.00226719
0.00182207
1.62336
-0.00907771
0.000826601
1.62136
0.00227052
-0.000286752
1.61864
0.00373095
-0.00101928
1.61644
0.0035446
-0.00134962
1.61402
0.00365246
-0.00124136
1.61339
0.00201347
-0.00138358
1.61251
0.00236265
-0.00148773
1.61186
0.00215815
-0.0015033
1.61142
0.00192639
-0.00149159
1.61114
0.00178897
-0.00150271
1.61094
0.00171512
-0.0015172
1.6108
0.00166438
-0.00152565
1.6107
0.00163044
-0.00153177
1.61062
0.00161498
-0.00154068
1.61058
0.00161279
-0.00156689
1.61055
0.00161175
-0.0015858
1.61056
0.00161417
-0.00161755
0.001615
-0.00166643
1.59996
0.000352316
9.11661e-05
1.59985
9.85549e-05
0.000223849
1.59975
-0.000477879
0.000378668
1.59968
-0.00129688
0.000564343
1.59939
-0.000974448
0.000768398
1.59959
-0.00209984
0.00112581
1.59853
-0.00238865
0.00191035
1.6006
-0.00872739
0.00214831
1.60457
-0.011919
0.00272199
1.61405
-0.0252543
0.00297592
1.62017
-0.0170121
0.00302478
1.61643
0.00376922
0.00222324
1.62439
-0.0179697
0.000906052
1.62183
0.00518749
-0.000368818
1.61872
0.00800163
-0.00117388
1.61639
0.00735327
-0.00149344
1.61463
0.00673894
-0.00133047
1.61335
0.00479692
-0.00150213
1.61242
0.00488109
-0.00159176
1.6118
0.00437926
-0.00159711
1.61139
0.00390243
-0.00157192
1.61113
0.00363155
-0.00157466
1.61095
0.0034888
-0.00159359
1.61082
0.00339367
-0.00160613
1.61073
0.00333444
-0.00161335
1.61067
0.00331198
-0.00163231
1.61062
0.00331317
-0.00165555
1.6106
0.00331573
-0.00167718
1.6106
0.00331723
-0.00171027
0.00328392
-0.00177321
1.59994
0.000314352
9.3935e-05
1.59984
-3.90975e-05
0.000236663
1.59956
-0.000603272
0.000402441
1.59938
-0.00172445
0.000602462
1.59895
-0.0013236
0.000766781
1.59847
-0.00291866
0.00128658
1.5985
-0.00471022
0.00227385
1.59914
-0.012035
0.00264293
1.6032
-0.0194425
0.00344424
1.61433
-0.0403725
0.00397682
1.62225
-0.0291305
0.00417957
1.61921
0.00371761
0.00308131
1.62659
-0.0263523
0.000983482
1.62277
0.00963162
-0.000648589
1.61884
0.0135224
-0.00161112
1.61629
0.0117981
-0.0019126
1.6144
0.0102615
-0.00163202
1.61321
0.00792337
-0.00193985
1.61231
0.0077869
-0.00200659
1.61174
0.00696307
-0.00201583
1.61138
0.00625947
-0.00199415
1.61114
0.00587789
-0.00200186
1.61098
0.0056704
-0.00202241
1.61088
0.00553104
-0.00203714
1.61081
0.00545507
-0.00204888
1.61076
0.00544113
-0.00208038
1.61073
0.00546484
-0.00211767
1.61071
0.00548942
-0.0021537
1.6107
0.00552758
-0.00220508
0.00554251
-0.00229864
1.59998
0.000237386
9.76235e-05
1.59976
-7.7375e-05
0.000253234
1.59942
-0.00069562
0.000434759
1.59898
-0.00195682
0.000661435
1.59867
-0.00184613
0.000824529
1.59757
-0.00332042
0.00148469
1.596
-0.0059492
0.00278853
1.59714
-0.0166393
0.00344051
1.60138
-0.0283501
0.00464959
1.61466
-0.0596906
0.0060176
1.62598
-0.0468407
0.00637134
1.62428
0.00112682
0.00427354
1.63013
-0.0335991
0.00138264
1.62414
0.0167548
-0.00116683
1.61887
0.0211271
-0.0023659
1.61603
0.0172562
-0.00263458
1.61408
0.0144544
-0.00225021
1.61289
0.0116947
-0.00258861
1.61208
0.0112137
-0.00261653
1.61165
0.00999787
-0.00259452
1.61136
0.00911844
-0.00256862
1.61116
0.00869351
-0.00260748
1.61102
0.00845912
-0.0026496
1.61094
0.00829706
-0.00267808
1.61088
0.00821929
-0.00270258
1.61083
0.00822142
-0.00273195
1.6108
0.00826519
-0.00276539
1.61078
0.00830809
-0.00279406
1.61079
0.00834875
-0.00283304
0.00830174
-0.00290995
1.59999
0.000151687
9.89818e-05
1.59967
-3.06559e-05
0.000272642
1.59927
-0.000782272
0.00047705
1.59867
-0.0021017
0.000738777
1.59911
-0.00321533
0.000924801
1.59723
-0.00300558
0.00155069
1.59526
-0.00751328
0.00350704
1.59404
-0.0201379
0.00470171
1.59949
-0.0406689
0.00685354
1.615
-0.0849552
0.00973353
1.63245
-0.0746431
0.010347
1.65275
-0.0256933
0.00649352
1.63524
-0.0175584
0.00143447
1.62588
0.0284106
-0.00232225
1.61876
0.0320745
-0.00385735
1.61579
0.024359
-0.00415161
1.61373
0.0203086
-0.00381225
1.61248
0.0172592
-0.00431659
1.61178
0.0162864
-0.00437402
1.61151
0.0145401
-0.00427696
1.61134
0.0134611
-0.00416993
1.61123
0.0129827
-0.00416972
1.61117
0.0127156
-0.00419294
1.61114
0.0125508
-0.00422201
1.61112
0.012512
-0.00426631
1.61109
0.012576
-0.00432353
1.61106
0.0126875
-0.00438522
1.61104
0.0127839
-0.00445548
1.61101
0.0129005
-0.00452684
0.0128696
-0.00465868
1.59997
8.64347e-05
9.75962e-05
1.59975
-0.000104306
0.000290496
1.59903
-0.000575409
0.000514044
1.59798
-0.0018987
0.000835668
1.5976
-0.00393357
0.00109067
1.59834
-0.00486553
0.00110494
1.59452
-0.00788621
0.00417608
1.59176
-0.0244808
0.00709126
1.59505
-0.0547083
0.010733
1.60294
-0.10955
0.0166856
1.64372
-0.133862
0.0183931
1.65179
-0.0444924
0.0106713
1.64209
-0.00911537
0.00118635
1.62709
0.0472499
-0.00387682
1.61733
0.0475109
-0.00571687
1.61485
0.032771
-0.00596073
1.61317
0.027467
-0.00548887
1.6118
0.0247417
-0.0061168
1.61134
0.023133
-0.00638257
1.61124
0.0210973
-0.00645252
1.61113
0.0200538
-0.00648133
1.61106
0.0196198
-0.00655615
1.61105
0.0193498
-0.00660948
1.61106
0.019196
-0.00665412
1.61107
0.019195
-0.00667901
1.61106
0.0193093
-0.00671957
1.61105
0.0194674
-0.00675784
1.61103
0.0196055
-0.00680355
1.61104
0.019763
-0.00687045
0.0196903
-0.00699072
1.60004
-5.23571e-05
9.57651e-05
1.59971
-5.12573e-05
0.00028362
1.59919
-0.000509742
0.000452215
1.59792
-0.00150417
0.000870785
1.59579
-0.00337302
0.001557
1.59577
-0.00609315
0.0012439
1.59326
-0.00923309
0.00384413
1.5843
-0.0259658
0.0104376
1.58107
-0.0688776
0.0173897
1.60136
-0.0315335
0.0296924
-0.0422501
-0.0372428
-0.0485238
1.66136
-0.0614437
0.0348098
-0.0464376
-0.0678879
-0.0529154
1.6736
-0.0220246
0.0191387
-0.0103746
-0.0246857
-0.0188047
1.6524
0.0061316
0.00188364
0.00969602
-0.00256631
-0.00311809
1.62791
0.0207106
-0.00448785
0.0237097
0.0140286
0.0177255
1.61481
0.0682986
-0.00771966
1.61059
0.0465424
-0.00957671
1.61112
0.0368599
-0.00993712
1.60994
0.0360961
-0.010172
1.61008
0.0330771
-0.0100907
1.6104
0.0307242
-0.00994354
1.61054
0.0298517
-0.00992921
1.61064
0.0295789
-0.010052
1.61074
0.0294272
-0.0101773
1.61083
0.0294006
-0.0102858
1.61087
0.0295173
-0.0103646
1.6109
0.0297195
-0.0104288
1.61091
0.0299263
-0.0104647
1.61092
0.0300754
-0.0104826
1.61094
0.0302595
-0.0105225
0.0299627
-0.010602
1.59991
-5.34438e-05
9.35126e-05
1.59984
-0.000209959
0.000222517
1.5997
-0.000309897
-5.95319e-05
1.59868
-0.000920626
0.000435993
1.59487
-0.0022227
0.00265496
1.59088
-0.00463559
0.00252923
1.58664
-0.00907672
0.00407935
1.56911
-0.0227277
0.0143003
0.390429
-0.0136955
0.028137
0.387186
0.388544
0.385306
-0.0237085
-0.0159105
-0.0260666
0.393081
-0.0385119
0.00433801
0.41273
-0.0806987
0.00720476
-0.400725
-0.423307
0.433411
-0.0388265
0.00670587
-0.433017
0.429944
0.00988545
-0.00068721
-0.420557
0.414133
0.0297066
-0.00259901
1.61648
0.0987138
-0.0156668
-0.407692
-0.408927
-0.406893
-0.407772
1.61338
0.0687968
-0.0191898
1.60959
0.0626626
-0.0220204
1.60837
0.0609163
-0.0236095
1.60848
0.0568694
-0.0238939
1.6086
0.0540713
-0.0234583
1.6086
0.0528437
-0.0229806
1.60862
0.0521385
-0.0225708
1.60863
0.0515957
-0.0221781
1.60858
0.051259
-0.021806
1.60849
0.0511139
-0.0215046
1.60838
0.0510863
-0.021249
1.60825
0.0510913
-0.0210432
1.60815
0.0510221
-0.0208526
1.60804
0.0511477
-0.0207758
0.0502607
-0.0208111
1.59985
1.09416e-06
9.31228e-05
1.59951
-8.83366e-05
0.000227063
1.59962
-0.000224308
-0.000205672
1.59937
-0.000418041
-0.000246563
1.59512
-0.000527199
0.00254629
1.58832
-0.0022028
0.00437126
1.57931
-0.00610382
0.00603064
0.389891
-0.014263
0.0183553
0.388606
0.387638
0.386374
0.385077
-0.0121105
0.00323858
0.376681
-0.0548099
0.011356
0.0461079
-0.379244
0.417044
0.0275848
-0.390967
0.113925
-0.0501166
-0.0351241
-0.044791
-0.0376799
0.448196
-0.44417
0.0603326
-0.0200249
-0.0313059
-0.0304547
-0.0239345
0.0139689
0.00704175
0.00659913
0.0136632
-0.443798
0.43754
-0.0105534
0.00489089
-0.00236647
0.00151755
0.00224517
0.00578506
-0.000540509
-0.000857902
0.00635229
-0.428494
0.418025
-0.0362403
0.00990666
0.0112455
0.0118486
0.0105858
-0.00112719
0.0026967
0.00262866
-0.00110038
1.61166
0.135832
-0.0442767
-0.407316
-0.390446
-0.404296
-0.402499
1.62208
0.103316
-0.0449872
1.62749
0.102501
-0.0452664
1.6331
0.10276
-0.0474626
1.63722
0.101581
-0.0488298
1.63961
0.101024
-0.0493283
1.64092
0.101079
-0.0495421
1.64155
0.101049
-0.0495426
1.64158
0.100787
-0.0492157
1.64108
0.100364
-0.0486112
1.64023
0.0997918
-0.0478245
1.63914
0.0990181
-0.046845
1.63788
0.0980805
-0.0457367
1.63664
0.0966612
-0.0444007
1.63498
0.0961446
-0.0433507
0.0912181
-0.0413147
1.59984
6.95325e-05
9.41802e-05
1.59933
0.000124592
0.000294935
1.59864
0.000181688
0.000284263
1.59812
0.000256889
-0.000157318
1.59551
0.000382987
0.00170667
1.58756
0.000623949
0.00511523
1.57278
0.00118383
0.00750232
0.385978
0.00292496
0.0202163
0.38477
0.383024
0.381631
0.375217
-0.00369703
0.00488758
0.00959733
0.0110661
-0.0906522
0.0881082
-0.00981157
0.00132277
0.0525384
-0.0894972
0.0783054
0.00723785
-0.0110209
-0.0130865
-0.0140709
-0.0103566
0.0799325
-0.044461
0.0550156
-0.10207
0.0023506
0.003498
0.00437274
0.00114062
-0.0537135
0.025292
0.0513552
-0.0302191
0.00159075
0.00195717
0.0019434
0.0018002
-0.0524759
0.00629923
-0.0151383
0.0066442
0.054668
1.06109
0.0456878
-0.0546626
-0.232245
-0.13322
-0.326448
-0.224477
1.14937
0.0879637
-0.0730108
1.22073
0.104799
-0.0736973
1.28208
0.113956
-0.0725579
1.33261
0.119851
-0.0688014
1.37446
0.123853
-0.0646812
1.40997
0.127004
-0.061438
1.44033
0.129683
-0.0589966
1.46611
0.132112
-0.0571166
1.48786
0.134318
-0.0557096
1.50607
0.136235
-0.0546738
1.52123
0.137685
-0.0538301
1.53367
0.138703
-0.0530759
1.54379
0.138646
-0.0521195
1.55212
0.139617
-0.051811
0.134781
-0.0501185
1.59984
0.00013564
9.36201e-05
1.59934
0.000332796
0.00029358
1.59866
0.000578718
0.000281483
1.59817
0.000916909
-0.000162671
1.5956
0.00125541
0.00169366
1.58775
0.00338794
0.00508564
1.57336
0.00817603
0.00740897
0.385142
0.0189315
0.0198048
0.386609
0.38208
0.383749
-0.00127702
0.375304
0.00612008
0.00504932
-0.00117152
-0.0890072
0.0822819
0.00603946
0.00187828
0.00362663
-0.0263296
0.067579
0.0225839
-0.00949207
-0.0245894
-0.0101348
-0.0233089
0.0238546
-0.0592195
0.0495863
-0.00894926
-0.00536723
-0.0386728
0.0219424
-0.00939708
-0.0114156
0.0375378
0.630561
-0.0164786
0.011176
-0.111571
-0.129527
-0.164107
-0.174502
0.689048
0.0194699
0.00991517
0.758192
0.0273965
0.00821122
0.828575
0.0369079
0.00664464
0.893002
0.04765
0.00776679
0.952194
0.0558005
0.00885573
1.00761
0.0624542
0.0091232
1.05979
0.0688374
0.00866797
1.10878
0.0753883
0.0077219
1.15467
0.0821137
0.00630599
1.19741
0.0890415
0.0044348
1.23686
0.0959897
0.00223869
1.27283
0.102745
-1.47081e-05
1.3046
0.109118
-0.00224984
1.33536
0.113626
-0.0047854
0.122463
-0.00772406
1.59986
0.000183391
9.14733e-05
1.59953
0.0004407
0.000222966
1.59969
0.000639555
-0.000213785
1.59949
0.00137555
-0.000262255
1.59538
0.00285466
0.00251195
1.58889
0.00559565
0.00428724
1.58088
0.0104117
0.00578115
0.38968
0.0251494
0.0173324
0.391082
0.387606
0.38898
-0.0112664
0.384038
0.0130792
0.00387861
-0.0118903
0.0540225
0.013279
-0.0163213
-0.0141012
-0.0193082
0.0932783
0.0908022
0.0923736
0.0945765
-0.376651
-0.0424009
-0.0999613
0.106022
0.00406173
0.0322824
-0.0406753
-0.085949
0.0735448
0.0309715
0.0221105
-0.0166957
-0.056003
0.0534948
0.0102644
0.00899123
-0.00607233
-0.0500257
0.00489999
0.050343
0.000837554
1.42615
-0.0756347
0.0506113
-0.292786
-0.396361
-0.336929
-0.391611
1.41173
-0.027823
0.0616723
1.38263
-0.0109221
0.0673958
1.35219
-0.00113972
0.0684676
1.32029
0.0105196
0.0690256
1.28812
0.0197751
0.068186
1.25784
0.0263992
0.0663236
1.23115
0.0317417
0.0637742
1.2089
0.0365086
0.0611287
1.19213
0.0405113
0.0583561
1.18116
0.0441097
0.0558959
1.17603
0.0475982
0.0535179
1.17643
0.0509533
0.0513923
1.18088
0.0554457
0.0492183
1.19179
0.0558541
0.0468568
0.0689428
0.043842
1.59992
0.000171728
9.08528e-05
1.59989
0.000260682
0.000215947
1.5998
0.000804045
-7.2339e-05
1.59887
0.00189336
0.000411585
1.59525
0.00387544
0.00260411
1.59169
0.00674546
0.00240748
1.58847
0.00990822
0.00373414
1.57402
0.0263485
0.0132689
0.390197
0.0668067
0.0241923
-0.0140272
-0.0235757
-0.0164373
-0.0261315
0.392986
0.388633
0.39144
-0.0432172
0.392482
0.0351863
0.00578262
-0.0845009
0.416876
0.0625802
0.00815885
-0.403167
-0.0261731
-0.428247
0.434418
0.0196055
0.000414677
0.0220171
-0.430769
0.426405
-0.0180483
0.000461743
0.0400353
-0.419687
0.411112
-0.0313371
-0.000237698
1.60155
-0.0584894
-0.00623814
-0.404097
-0.403808
-0.401998
-0.402597
1.60171
-0.0295418
0.00153409
1.59887
-0.0138554
0.00576689
1.59729
-0.0086528
0.00908258
1.59504
-0.000802175
0.0135653
1.58965
0.00655034
0.0186109
1.58061
0.0120608
0.0233804
1.568
0.0166045
0.0277422
1.55198
0.0207099
0.0318181
1.53296
0.0243776
0.0351479
1.51115
0.0276118
0.0383104
1.48756
0.030365
0.0408291
1.46248
0.0328811
0.0431552
1.43757
0.0354352
0.0449266
1.40948
0.0376333
0.046309
0.0410365
0.0478415
1.60006
1.93127e-05
9.2231e-05
1.59976
0.000287608
0.000274772
1.59931
0.000825441
0.000435881
1.59815
0.0022137
0.000840028
1.59623
0.00430369
0.00149464
1.59662
0.00524754
0.00110585
1.59495
0.00808804
0.00349555
1.58788
0.0238907
0.00953622
1.58805
0.0517846
0.0148833
1.60785
0.0976656
0.022281
-0.0285005
-0.0354982
-0.0340423
-0.0416704
1.65788
0.107221
0.0186218
-0.0495399
-0.0316631
-0.055991
-0.0386508
1.66568
0.0212111
0.00546205
-0.0102009
-0.00157853
-0.0131835
-0.00944555
1.64191
-0.0035485
-0.00395057
0.0124801
0.0128343
0.00491614
0.00103613
1.61863
-0.0496237
-0.00572111
0.0219598
0.0228793
0.016256
0.0175279
1.60777
-0.0424563
-0.00518467
1.60454
-0.0226969
-0.00362604
1.60543
-0.0128792
-0.00186806
1.60435
-0.0071068
-0.000462751
1.605
-0.00276459
0.0013082
1.60639
0.00202444
0.00314034
1.60798
0.00570723
0.00476273
1.60969
0.0086567
0.00623952
1.61126
0.0114149
0.00772273
1.61233
0.0140434
0.00926089
1.61237
0.0164639
0.0111122
1.61122
0.0187005
0.0128176
1.60828
0.0209503
0.0148738
1.60407
0.0228488
0.0168003
1.59668
0.025858
0.0191701
0.0272421
0.0221615
1.59999
-6.15861e-05
9.32777e-05
1.59982
0.000184007
0.000280168
1.59916
0.000985775
0.00049512
1.59823
0.00234483
0.000801
1.59804
0.00347077
0.0010241
1.59913
0.0031992
0.000967488
1.5959
0.00744066
0.00387661
1.59413
0.0192726
0.00639768
1.59882
0.0379277
0.00918556
1.60606
0.077361
0.0130861
1.64172
0.0602476
0.0113451
1.64679
0.0122636
0.00392153
1.63555
0.00996017
-0.00224191
1.62065
-0.0299862
-0.00471993
1.61176
-0.0288108
-0.00475205
1.60977
-0.0175097
-0.00319614
1.60856
-0.0107955
-0.000868195
1.60744
-0.00606849
8.63209e-05
1.60715
-0.00363305
0.00116523
1.60725
-0.000289857
0.00221599
1.60739
0.00244011
0.00313476
1.60763
0.00452708
0.00388577
1.60807
0.00636948
0.00460143
1.60875
0.00807579
0.00528744
1.60961
0.00960784
0.00599441
1.61069
0.0109854
0.00663452
1.61193
0.012354
0.00735952
1.61324
0.0135834
0.00795694
1.61528
0.0151569
0.00866491
0.0165817
0.00964142
1.60001
-0.000164433
9.40996e-05
1.59974
0.000199531
0.000261119
1.59941
0.000853403
0.000456312
1.59892
0.00213579
0.000702205
1.59953
0.0020126
0.000858646
1.59791
0.00339712
0.00142464
1.59634
0.00575713
0.00325999
1.59563
0.0157853
0.00419807
1.60159
0.0261401
0.00585215
1.6164
0.0547841
0.00777869
1.63097
0.0386013
0.00710188
1.64903
-0.00911213
0.00335135
1.63043
0.0287441
-0.000162161
1.62086
-0.0179998
-0.00240065
1.61413
-0.0193352
-0.00273627
1.61166
-0.013107
-0.00191295
1.61007
-0.00854815
-0.000647157
1.60908
-0.00452505
-0.000553343
1.60853
-0.00291414
-0.000156067
1.60839
-0.000534698
0.000390187
1.60833
0.00150556
0.000991923
1.60832
0.00302089
0.00152361
1.60834
0.0042866
0.00205286
1.6084
0.00543566
0.00257832
1.60847
0.00645576
0.00308295
1.60855
0.00735369
0.00355303
1.60869
0.00820039
0.00401076
1.60888
0.00897338
0.00442064
1.60941
0.00977409
0.00485052
0.010668
0.00541776
1.60001
-0.000259268
9.23268e-05
1.59984
0.000130006
0.000240875
1.59956
0.00071794
0.000412985
1.59923
0.00184838
0.000624392
1.59906
0.00142566
0.000760767
1.59815
0.00293298
0.00137243
1.59683
0.0044998
0.00258524
1.59822
0.0113337
0.00307078
1.60255
0.0178355
0.00398946
1.61522
0.0372402
0.00488888
1.62482
0.0243064
0.00472022
1.62156
-0.00850244
0.00266982
1.62653
0.0233042
0.000482185
1.62028
-0.0104796
-0.00124844
1.61514
-0.0124647
-0.00172199
1.61259
-0.00920853
-0.00133464
1.61092
-0.00648012
-0.000381866
1.60991
-0.00325784
-0.000248537
1.60921
-0.00238675
0.000183024
1.60887
-0.000874715
0.000676004
1.60871
0.000502573
0.00116882
1.60863
0.00153171
0.00156631
1.60862
0.00237129
0.00192529
1.60865
0.00313494
0.00226699
1.6087
0.00382282
0.00258736
1.60874
0.00442935
0.0028792
1.60879
0.00498676
0.00316384
1.60885
0.00549752
0.00341141
1.60899
0.00596037
0.00367474
0.00649495
0.00400982
1.59997
-0.00031541
8.83216e-05
1.59992
-3.83658e-05
0.000223734
1.59971
0.000552381
0.000380051
1.59962
0.00137429
0.000565436
1.59931
0.00103146
0.000705835
1.59897
0.0020899
0.00118519
1.59915
0.00222159
0.00210401
1.59989
0.00824211
0.00235945
1.60387
0.0108833
0.00298758
1.61446
0.0233872
0.00327646
1.62123
0.014307
0.00324246
1.61703
-0.00646389
0.00217736
1.62369
0.016207
0.000456024
1.61957
-0.00568766
-0.000664898
1.61564
-0.00738641
-0.00113265
1.61325
-0.00582427
-0.000980472
1.61155
-0.0044774
-0.000287834
1.61053
-0.00198534
-0.00024265
1.60976
-0.00162164
8.39915e-06
1.60931
-0.000710429
0.000286782
1.60907
0.000175773
0.000571122
1.60894
0.000853871
0.000806444
1.60889
0.00139767
0.00102273
1.60889
0.00188427
0.00124674
1.60891
0.00231845
0.00147811
1.60896
0.00269385
0.0016922
1.60901
0.00302605
0.00190689
1.60907
0.00332183
0.0021122
1.60914
0.0035771
0.00231067
0.00390574
0.00258187
1.59998
-0.000381205
8.53387e-05
1.59992
-0.000183937
0.000210515
1.5999
0.000224513
0.000355822
1.5999
0.000842594
0.000527316
1.59972
0.000503148
0.000709328
1.60004
0.000748134
0.00103179
1.59907
0.00143851
0.00176149
1.60116
0.00423982
0.00191614
1.60498
0.00470576
0.00237682
1.61396
0.0119232
0.0024915
1.61921
0.00664479
0.00243071
1.61456
-0.00347197
0.00167174
1.6219
0.00828497
0.000598012
1.61904
-0.00248301
-0.000329305
1.61587
-0.00341968
-0.000781292
1.61363
-0.00279587
-0.000773386
1.61201
-0.00254441
-0.000306749
1.61088
-0.000632002
-0.000212923
1.61008
-0.000756746
-6.07638e-05
1.60957
-0.000350241
0.000157007
1.60927
8.19761e-05
0.0003954
1.6091
0.000417067
0.000601508
1.60902
0.000681493
0.000791222
1.609
0.000913707
0.000987737
1.60901
0.00111906
0.00118493
1.60904
0.00129469
0.00136147
1.60909
0.00144763
0.00152567
1.60915
0.00158213
0.00167744
1.6092
0.00169808
0.00182432
0.00185298
0.00201068
1.59954
8.45799e-05
1.59915
0.000209227
1.59903
0.000340277
1.59936
0.000511445
1.59915
0.000721643
1.59894
0.000957134
1.59882
0.00156303
1.60135
0.00171127
1.60398
0.00209141
1.61371
0.00220084
1.61829
0.00207467
1.61338
0.00144005
1.62103
0.000646119
1.61873
-0.000174912
1.61592
-0.000598549
1.61376
-0.000632777
1.61147
-0.000242783
1.61097
-0.000132081
1.61022
-1.60981e-06
1.60967
0.0001996
1.60934
0.000415583
1.60915
0.000598575
1.60906
0.000770301
1.60903
0.000941427
1.60904
0.00110776
1.60907
0.00126247
1.60912
0.00139423
1.60918
0.00152025
1.60923
0.00164691
0.00180166
1.59961
0.000347114
0.000130238
1.59924
0.000190086
0.000399914
1.59908
-0.000181299
0.000701847
1.59899
-0.000418144
0.00104649
1.5995
-0.00136064
0.00162016
1.59977
-0.00143378
0.00220174
1.60029
-0.00179376
0.00295235
1.60326
-0.00485416
0.00378713
1.60623
-0.00516114
0.0045594
1.61
-0.0061551
0.00495441
1.61653
-0.00879354
0.00476965
1.61154
0.00369962
0.00310048
1.61793
-0.0075041
0.00192176
1.6191
-0.00110873
-0.000372334
1.6162
0.00369187
-0.00182054
1.61404
0.00350353
-0.00270277
1.61463
0.00170068
-0.00353049
1.61419
0.000715328
-0.00166266
1.61337
0.00191482
-0.00258909
1.61273
0.0019179
-0.00278412
1.61231
0.00170617
-0.00277329
1.61198
0.00158436
-0.00275617
1.6117
0.00152303
-0.00276026
1.61146
0.00148374
-0.00277987
1.61125
0.00146279
-0.00277692
1.61098
0.00144951
-0.00273206
1.61085
0.0014516
-0.00288102
1.61075
0.00145364
-0.00294474
1.61069
0.00145897
-0.00301416
0.00145679
-0.00308516
1.6
0.000298819
0.000133008
1.59993
7.57383e-05
0.000409571
1.59987
-0.000467028
0.000719413
1.59969
-0.000711998
0.00103287
1.59954
-0.00221166
0.0017558
1.59988
-0.00299892
0.00234178
1.6006
-0.00382393
0.00319869
1.603
-0.0093193
0.00419717
1.60709
-0.0117319
0.00518784
1.61256
-0.0144575
0.00579966
1.6174
-0.0163163
0.00569351
1.61321
0.0067382
0.00335785
1.61885
-0.0148071
0.00255248
1.62091
-0.00310601
-0.000453075
1.61838
0.00708899
-0.00205595
1.61655
0.00663384
-0.00279681
1.61693
0.00373608
-0.00375657
1.61449
0.00355041
-0.00189232
1.61332
0.00423034
-0.00274267
1.61271
0.0038286
-0.00289951
1.61232
0.00340144
-0.00287149
1.61201
0.00316873
-0.00285048
1.61174
0.00305486
-0.00286109
1.61151
0.00299393
-0.00288852
1.61126
0.00294625
-0.00284825
1.61106
0.00294257
-0.00291947
1.61093
0.00296043
-0.00304035
1.61085
0.00297837
-0.00311905
1.61079
0.00299583
-0.00319365
0.00297806
-0.00329388
1.59996
0.000287243
0.000138297
1.59993
-8.72382e-05
0.000428137
1.59969
-0.00058799
0.000755837
1.59947
-0.000915183
0.00102383
1.59901
-0.00299565
0.0019997
1.59883
-0.00417165
0.00262281
1.60083
-0.0072646
0.00370409
1.60176
-0.0126924
0.00505953
1.60593
-0.0190143
0.00654267
1.61229
-0.0245162
0.00765677
1.61189
-0.0194552
0.00771533
1.61616
0.000971141
0.0045682
1.62198
-0.0227561
0.00309152
1.62161
-0.00243712
-0.000978209
1.61833
0.0115919
-0.00285079
1.61618
0.0102985
-0.00343595
1.61598
0.00623505
-0.00393665
1.61418
0.00641898
-0.00301757
1.61324
0.00668865
-0.0035242
1.61269
0.00595109
-0.0035822
1.61233
0.00531677
-0.00354917
1.61204
0.00499541
-0.0035385
1.61179
0.00485671
-0.00357255
1.61157
0.00474519
-0.00357121
1.6113
0.00470907
-0.00353759
1.61114
0.00472679
-0.00371036
1.61104
0.00477541
-0.00382545
1.61096
0.00482063
-0.00391643
1.61089
0.00487559
-0.00401788
0.00489795
-0.00415527
1.6
0.000236691
0.000145737
1.59983
-0.000124667
0.00045427
1.59957
-0.000703474
0.000809045
1.59934
-0.00111254
0.00108286
1.59862
-0.00374187
0.00228459
1.59776
-0.00489657
0.00305283
1.59814
-0.00939055
0.00450869
1.59983
-0.0174538
0.00649679
1.60411
-0.0275975
0.00893189
1.61283
-0.0381232
0.0109022
1.62035
-0.0320548
0.011436
1.62209
-0.00231703
0.0058016
1.62495
-0.0288433
0.00458197
1.62284
0.000316662
-0.00185058
1.6183
0.0180898
-0.00434597
1.61584
0.0149042
-0.00479575
1.61535
0.00928574
-0.00482341
1.61391
0.00969555
-0.00442542
1.61307
0.00954115
-0.00463331
1.61262
0.00841387
-0.00460827
1.61233
0.0076101
-0.00456764
1.61207
0.00724464
-0.00458875
1.61183
0.00709202
-0.00464475
1.61157
0.00696073
-0.00463062
1.61134
0.00693899
-0.00470723
1.61121
0.00699222
-0.00486198
1.61111
0.00708202
-0.00497247
1.61102
0.0071682
-0.00505507
1.61097
0.00724648
-0.00515041
0.00724039
-0.00528125
1.6
0.000177266
0.000154648
1.59976
-0.000104587
0.000485991
1.59947
-0.000815266
0.000875716
1.59961
-0.00170613
0.00119191
1.59546
-6.24983e-05
0.00138147
1.59651
-0.00927139
0.00486501
1.59615
-0.0112021
0.00566136
1.59648
-0.0218031
0.00870021
1.60157
-0.0387089
0.0128573
1.61554
-0.0589863
0.0166094
1.6307
-0.0552768
0.018369
1.65199
-0.0258973
0.00874213
1.6311
-0.0119059
0.00535927
1.62465
0.0083992
-0.00400063
1.61814
0.0276556
-0.00693716
1.61556
0.0205945
-0.00728775
1.61471
0.01337
-0.00705046
1.61348
0.01364
-0.00703065
1.61279
0.0129398
-0.00708484
1.61251
0.0113564
-0.00693553
1.61233
0.0104448
-0.0068249
1.61211
0.0101592
-0.0068583
1.61187
0.00998406
-0.00684588
1.61167
0.00994355
-0.00699157
1.61152
0.0100096
-0.00718266
1.6114
0.0101586
-0.00737059
1.6113
0.010339
-0.00753246
1.6112
0.0104938
-0.00768362
1.61109
0.0106564
-0.00783259
0.010654
-0.00801814
1.60007
3.10753e-05
0.000164494
1.59977
-1.85956e-05
0.000505026
1.59921
-0.00066241
0.000919402
1.59878
-0.00182295
0.00137886
1.60146
-0.00242752
0.000767004
1.595
-0.00830433
0.00659054
1.59351
-0.0127771
0.00722264
1.59204
-0.0251614
0.0118997
1.59627
-0.0513336
0.0191137
1.61644
-0.0896275
0.0271208
1.65279
-0.104747
0.0315184
1.65319
-0.0298017
0.0141584
1.65295
-0.0165764
0.0060516
1.62693
0.0379883
-0.00747331
1.61746
0.0419925
-0.0106125
1.61564
0.0265105
-0.0100699
1.61425
0.0185724
-0.00930978
1.61291
0.0183706
-0.00951272
1.61242
0.0167601
-0.00971467
1.61228
0.0146874
-0.00965108
1.61215
0.0137702
-0.0096665
1.61204
0.0134194
-0.0097092
1.61176
0.013364
-0.00970964
1.61164
0.0134468
-0.0100295
1.61154
0.0136754
-0.0102411
1.61145
0.0139994
-0.0104584
1.61135
0.0143409
-0.0106604
1.61125
0.0146407
-0.0108462
1.61115
0.0149199
-0.0110356
0.0149646
-0.0112454
1.59992
3.35918e-05
0.000167379
1.59996
-0.000284991
0.00051366
1.59943
-0.000316574
0.000626472
1.59862
-0.00148222
0.00133676
1.59831
-0.00274755
0.00218514
1.59168
-0.00626578
0.0058237
1.58591
-0.0135484
0.0103806
1.58303
-0.0282236
0.0163729
1.58954
-0.0696324
0.0291507
1.60545
-0.0307862
0.0459923
-0.0357316
-0.0288095
-0.0265241
1.65231
-0.052284
0.0569678
-0.0430011
-0.0412447
-0.0372464
1.65868
-0.0132536
0.0255408
-0.0116786
-0.00700954
-0.0107068
1.64394
0.00230027
0.00540376
-0.00176527
0.000834116
-0.00677525
1.62411
0.017674
-0.0140469
0.0194913
0.0155202
0.0146661
1.61498
0.0624374
-0.01906
1.6142
0.0350842
-0.0173854
1.61278
0.0258057
-0.0157487
1.61162
0.0249491
-0.0155916
1.61177
0.0220603
-0.0155368
1.61201
0.0199916
-0.0154758
1.61215
0.0192298
-0.0155308
1.61199
0.0191994
-0.0156644
1.61181
0.0193416
-0.015974
1.61172
0.0196432
-0.0163807
1.61161
0.0200959
-0.0166687
1.61148
0.0206287
-0.016929
1.61136
0.0211509
-0.0171421
1.61122
0.0215881
-0.0172953
1.61106
0.0220142
-0.0174579
0.0218947
-0.0175471
1.59995
2.52485e-06
0.000165554
1.59966
-0.000116448
0.000344032
1.59905
-0.000722672
0.000958575
1.59759
-0.00117946
0.00159503
1.59694
-0.00106826
0.0016152
1.59179
-0.00505505
0.00646577
1.58037
-0.0115959
0.0135415
1.57332
-0.0289546
0.0220794
0.390534
-0.014803
0.0461848
0.388019
0.39217
0.389384
-0.0232126
-0.0147583
-0.0217232
-0.0107462
0.392305
-0.0368257
0.0150102
-0.016464
0.41015
-0.0672492
0.0215691
-0.40032
-0.0122578
-0.418968
0.424756
-0.0196656
0.0129244
-0.00193067
-0.425703
0.423753
0.00432608
0.0018056
0.00201819
-0.418145
0.412565
0.0247987
-0.00359135
1.61427
0.103189
-0.0433559
-0.406721
-0.406825
-0.406842
-0.406966
1.61251
0.0566737
-0.0390253
1.60934
0.0440809
-0.0371333
1.60904
0.0383274
-0.0366884
1.6098
0.0327216
-0.0353089
1.61065
0.0299664
-0.0342744
1.61085
0.0293963
-0.0333486
1.61089
0.0295763
-0.0329819
1.61087
0.0300261
-0.0328474
1.6108
0.0306672
-0.0327593
1.61065
0.0314263
-0.0326865
1.61047
0.0321894
-0.0326263
1.61025
0.0328532
-0.032528
1.61005
0.0332734
-0.0323404
1.60972
0.0337792
-0.0322233
0.0328497
-0.0317112
1.5999
1.89715e-05
0.000173852
1.59972
-2.51827e-05
0.000311024
1.59841
-0.000207934
0.000594208
1.59471
-0.000662284
0.0029348
1.59524
-0.000969957
0.00191608
1.58938
-0.00159712
0.00676535
1.57582
-0.00590878
0.0139074
0.388674
-0.0168795
0.0303948
0.386992
0.389345
0.386691
-0.00774636
0.384236
-0.0134587
0.0108447
0.376418
-0.0462122
0.0282879
-0.0210352
0.0424931
-0.379905
0.0530729
-0.0480765
-0.392817
0.0863804
0.105564
0.104034
0.104936
0.104462
-0.0252974
-0.0312322
-0.0323345
-0.0288011
-0.00740305
-0.108414
0.00757259
0.110702
-0.00842013
0.00594615
-0.110423
0.000899541
-0.00167681
0.109775
0.00301299
-0.00160003
-0.105455
0.00181655
-0.00868531
0.00997372
-0.00232566
0.104666
1.60392
0.173118
-0.118519
-0.402966
-0.406823
-0.405678
-0.384171
1.60626
0.113942
-0.10461
1.60954
0.0948024
-0.099272
1.61428
0.0838465
-0.097721
1.61673
0.0754219
-0.0939825
1.61801
0.070254
-0.0908937
1.61863
0.0674004
-0.0881572
1.61893
0.06557
-0.0858411
1.61895
0.0643021
-0.0835172
1.61876
0.0634695
-0.0812382
1.61841
0.0629281
-0.0789863
1.61797
0.0625012
-0.0767273
1.61739
0.0621271
-0.0744348
1.61683
0.0613797
-0.0719583
1.61572
0.0614186
-0.0698952
0.057308
-0.0657422
1.59986
6.53781e-05
0.000185276
1.5995
0.000117495
0.000512025
1.59933
0.000170257
7.32371e-05
1.59665
0.00023902
0.00162241
1.59402
0.000351688
0.00301041
1.58954
0.000571083
0.00742471
1.57683
0.00105359
0.0132523
0.385837
0.00256199
0.0353063
0.38546
0.384863
0.386145
0.374743
-0.00451082
0.0146256
-0.0102099
0.0111997
-0.00780531
0.0103939
-0.090133
0.087482
-0.00955598
0.00964382
-0.00819156
0.0115628
-0.0228961
0.0242698
-0.0130504
0.00831034
0.00165936
-0.000525136
-0.00512835
0.00578453
-0.00188245
1.98395e-05
-2.46778e-06
-2.63471e-05
0.000100591
0.00189888
-0.000692617
-0.00717317
0.00724888
-0.00187563
0.000162892
0.000116008
0.000198666
0.0001179
-0.00642988
0.000760988
-0.000776451
0.00075924
-0.000660659
0.00634364
0.997534
0.0615954
-0.167684
-0.278293
-0.176364
-0.238686
-0.0797047
1.10203
0.078821
-0.142418
1.17339
0.0791919
-0.129474
1.2261
0.0797067
-0.121135
1.26498
0.0796245
-0.111886
1.29604