/*--------------------------------*- C++ -*----------------------------------*\
| =========                 |                                                 |
| \\      /  F ield         | OpenFOAM: The Open Source CFD Toolbox           |
|  \\    /   O peration     | Version:  2512                                  |
|   \\  /    A nd           | Website:  www.openfoam.com                      |
|    \\/     M anipulation  |                                                 |
\*---------------------------------------------------------------------------*/
FoamFile
{
    version     2.0;
    format      ascii;
    arch        "LSB;label=32;scalar=64";
    class       volVectorField;
    location    "300";
    object      U;
}
// * * * * * * * * * * * * * * * * * * * * * * * * * * * * * * * * * * * * * //

dimensions      [0 1 -1 0 0 0 0];

internalField   nonuniform List<vector> 
84826
(
(20 -0.000217764 0.000216912)
(19.9998 -0.000718136 0.000698768)
(19.9995 -0.00140891 0.00127328)
(19.9997 -0.00247669 0.00199928)
(20.0013 -0.00417474 0.00294029)
(20.006 -0.00684731 0.00415565)
(20.0165 -0.0109065 0.0056847)
(20.037 -0.0167271 0.00750248)
(20.0727 -0.0242534 0.00944799)
(20.128 -0.0322371 0.0112029)
(20.2037 -0.0381049 0.0123103)
(20.2902 -0.0364911 0.0121315)
(20.3635 -0.0252127 0.0102632)
(20.398 -0.00914458 0.006959)
(20.3869 0.00461414 0.00307766)
(20.3456 0.0121217 -0.000270451)
(20.2972 0.0132571 -0.00218752)
(20.2574 0.011185 -0.00269581)
(20.2292 0.00877661 -0.00250807)
(20.2083 0.00662231 -0.00212843)
(20.1917 0.00444984 -0.0016359)
(20.179 0.00239646 -0.00101058)
(20.1701 0.000774295 -0.000316733)
(20.164 -0.000332343 0.000357492)
(20.1597 -0.00105022 0.000953888)
(20.1562 -0.00158578 0.00145409)
(20.1532 -0.00212547 0.00186382)
(20.1503 -0.00281418 0.00220047)
(20.1479 -0.00356518 0.00247654)
(20.1438 -0.00461424 0.00276733)
(20 -0.000632351 0.000220807)
(19.9996 -0.00208871 0.000712473)
(19.999 -0.00410656 0.00130226)
(19.9986 -0.00724043 0.00205555)
(19.9992 -0.0122564 0.00304674)
(20.0025 -0.0202181 0.00435214)
(20.0111 -0.0324588 0.00603726)
(20.0296 -0.0502512 0.0081155)
(20.064 -0.0737216 0.0104473)
(20.1203 -0.0992004 0.0126661)
(20.2015 -0.118882 0.014214)
(20.2983 -0.114418 0.0141679)
(20.3804 -0.0785803 0.0122054)
(20.4163 -0.0279877 0.00833166)
(20.4 0.0151718 0.00362357)
(20.3511 0.0382398 -0.000430602)
(20.297 0.04087 -0.00256032)
(20.2552 0.0339983 -0.00293578)
(20.227 0.0267577 -0.00259271)
(20.2062 0.0204497 -0.00209456)
(20.1897 0.0139837 -0.00145095)
(20.1773 0.00778681 -0.000639778)
(20.1689 0.00285123 0.000235729)
(20.1633 -0.000462372 0.00106773)
(20.1593 -0.00236106 0.00181494)
(20.1559 -0.00328381 0.00247846)
(20.1528 -0.00373355 0.00307011)
(20.1497 -0.00405469 0.003609)
(20.147 -0.00459934 0.00405667)
(20.1439 -0.00494933 0.00459057)
(19.9999 -0.000990876 0.000228824)
(19.9993 -0.00328141 0.000740967)
(19.998 -0.00647517 0.001363)
(19.9964 -0.0114788 0.00217436)
(19.9951 -0.0195855 0.00327256)
(19.9955 -0.0326674 0.00477206)
(20.0001 -0.0532447 0.00679289)
(20.0139 -0.0840202 0.00943074)
(20.0449 -0.126229 0.0126185)
(20.1025 -0.174181 0.0158921)
(20.1957 -0.214588 0.0185075)
(20.3154 -0.20802 0.0187609)
(20.4165 -0.141276 0.0167187)
(20.4551 -0.0497381 0.0116938)
(20.4273 0.0286902 0.00506668)
(20.3617 0.0690773 -0.000636495)
(20.2954 0.070408 -0.00314193)
(20.2497 0.0561746 -0.00309073)
(20.2218 0.043281 -0.00230835)
(20.2014 0.0325349 -0.00147094)
(20.1848 0.0214854 -0.000433558)
(20.173 0.0107953 0.000824256)
(20.1657 0.00183974 0.00209598)
(20.1614 -0.005009 0.00322788)
(20.1584 -0.00998132 0.00419045)
(20.1558 -0.0134285 0.00502721)
(20.1531 -0.0157219 0.00579701)
(20.15 -0.017215 0.00653685)
(20.1475 -0.0182976 0.00722606)
(20.1441 -0.0194765 0.00803227)
(19.9999 -0.00126301 0.000239354)
(19.9988 -0.00419583 0.000779893)
(19.9966 -0.00831905 0.00144681)
(19.9933 -0.0148581 0.00234047)
(19.989 -0.02564 0.0035949)
(19.9848 -0.0434665 0.0053872)
(19.9829 -0.0724552 0.00793657)
(19.9884 -0.117725 0.0114958)
(20.0123 -0.183468 0.0161663)
(20.0697 -0.263524 0.0213728)
(20.1828 -0.339648 0.0259716)
(20.3435 -0.330378 0.0269815)
(20.4768 -0.218487 0.0253232)
(20.5192 -0.0755201 0.0186676)
(20.4719 0.049084 0.00838207)
(20.3767 0.109322 -0.000399829)
(20.2897 0.103744 -0.00342682)
(20.2393 0.0772875 -0.00270877)
(20.2131 0.0559913 -0.00139266)
(20.1934 0.0386395 -3.75587e-05)
(20.1768 0.0219122 0.00181353)
(20.1655 0.00748692 0.00408569)
(20.1594 -0.00331885 0.00633879)
(20.1561 -0.0111656 0.00829041)
(20.1539 -0.0171749 0.00985449)
(20.152 -0.0219493 0.0110747)
(20.1499 -0.0255406 0.0120538)
(20.1474 -0.027719 0.0128823)
(20.145 -0.0286504 0.01362)
(20.1422 -0.0285083 0.014482)
(19.9998 -0.00142033 0.000251617)
(19.9983 -0.00473589 0.000826091)
(19.9949 -0.00944362 0.00154991)
(19.9892 -0.0170224 0.00254791)
(19.9812 -0.0297964 0.00400386)
(19.9705 -0.0515948 0.00619097)
(19.9588 -0.0886272 0.00949001)
(19.9507 -0.149931 0.0144441)
(19.9606 -0.245821 0.0214562)
(20.012 -0.373901 0.0300592)
(20.1572 -0.515137 0.0377918)
(20.3893 -0.506249 0.0400113)
(20.572 -0.325052 0.0392836)
(20.6172 -0.110299 0.0302691)
(20.5391 0.0829183 0.0128799)
(20.3952 0.163742 -0.000521961)
(20.2767 0.143522 -0.00235129)
(20.2214 0.102033 0.000947127)
(20.1988 0.0700544 0.00359198)
(20.1809 0.0402908 0.00575248)
(20.1659 0.0102383 0.00872044)
(20.1573 -0.0148116 0.0124545)
(20.1537 -0.0326331 0.0163852)
(20.1521 -0.045145 0.0201676)
(20.151 -0.05516 0.0236549)
(20.1502 -0.0644064 0.0267861)
(20.1497 -0.0730507 0.0295319)
(20.1496 -0.0803027 0.0319008)
(20.1501 -0.0852818 0.0338301)
(20.1474 -0.0873583 0.035924)
(19.9998 -0.00144371 0.000264921)
(19.9977 -0.00483496 0.000875638)
(19.9929 -0.00969943 0.00166636)
(19.9847 -0.0176602 0.00278901)
(19.9719 -0.0314144 0.0044844)
(19.9531 -0.055782 0.00715628)
(19.9276 -0.0994593 0.0114438)
(19.8979 -0.177459 0.0183367)
(19.8815 -0.311376 0.0289734)
(19.9116 -0.513192 0.0425107)
(20.1071 -0.769442 0.0554282)
(20.4591 -0.757439 0.0630128)
(20.7142 -0.494921 0.0710894)
(20.7598 -0.17552 0.0599495)
(20.6304 0.139844 0.0277792)
(20.4068 0.226314 0.00402739)
(20.2463 0.1714 0.00332885)
(20.1884 0.117079 0.0118567)
(20.1687 0.086878 0.0194762)
(20.1496 0.0578449 0.0261762)
(20.1366 0.0260239 0.0328773)
(20.136 -0.000661862 0.0392124)
(20.144 -0.0194119 0.044769)
(20.155 -0.0329311 0.0499735)
(20.1665 -0.0450526 0.0553703)
(20.178 -0.0585006 0.0612191)
(20.1892 -0.0737963 0.0674406)
(20.1994 -0.0893003 0.0737716)
(20.208 -0.104536 0.0796981)
(20.2132 -0.114758 0.0868534)
(19.9997 -0.00132611 0.000277847)
(19.997 -0.00446429 0.000923905)
(19.9909 -0.009006 0.00177664)
(19.9799 -0.0165487 0.00303747)
(19.9619 -0.0299053 0.0050081)
(19.9334 -0.0545387 0.00823587)
(19.8896 -0.101349 0.0137209)
(19.8279 -0.193314 0.0231359)
(19.7618 -0.369649 0.0383175)
(19.7463 -0.696919 0.0599135)
(19.9962 -1.15326 0.0741723)
(20.5363 -1.05538 0.0983036)
(20.9044 -0.776072 0.143034)
(20.9805 -0.334807 0.129916)
(20.758 0.222401 0.0808551)
(20.389 0.286146 0.048753)
(20.1845 0.131926 0.0443213)
(20.1396 0.00545665 0.0480212)
(20.1405 -0.0753989 0.0551787)
(20.1448 -0.145849 0.0710664)
(20.1596 -0.207089 0.0956338)
(20.1799 -0.25019 0.124499)
(20.1877 -0.274742 0.15375)
(20.1691 -0.285679 0.181479)
(20.12 -0.288953 0.206526)
(20.0421 -0.289855 0.228205)
(19.9414 -0.29114 0.246015)
(19.8213 -0.294431 0.259016)
(19.7063 -0.296667 0.269403)
(19.5128 -0.302348 0.268829)
(19.9996 -0.00107513 0.000288908)
(19.9965 -0.00364169 0.000966856)
(19.9891 -0.00738133 0.00187249)
(19.9755 -0.0136452 0.00324946)
(19.9525 -0.0249859 0.00548801)
(19.9135 -0.0465295 0.00936696)
(19.8478 -0.0901738 0.0161529)
(19.7413 -0.183689 0.0290494)
(19.5839 -0.391137 0.0472352)
(19.4512 -0.881363 0.0857709)
(19.7113 -1.25283 0.0225439)
(20.567 -1.66386 0.00497175)
(21.2116 -1.00128 0.109737)
(21.3646 -0.672581 0.0571767)
(21.2826 0.24736 0.2788)
(20.5498 0.451099 0.266724)
(20.2097 0.321578 0.296178)
(20.0733 0.198473 0.318511)
(19.8724 0.101185 0.330608)
(19.5534 -0.00133326 0.3413)
(19.1623 -0.0994169 0.348467)
(18.7306 -0.180393 0.346658)
(18.2684 -0.244283 0.334263)
(17.7867 -0.295517 0.312295)
(17.306 -0.337887 0.282471)
(16.8523 -0.376271 0.247794)
(16.4462 -0.413474 0.211092)
(16.1056 -0.455412 0.175064)
(15.836 -0.480849 0.141876)
(15.5914 -0.550463 0.0930164)
(19.9996 -0.000713802 0.000297128)
(19.996 -0.00244166 0.000998029)
(19.9877 -0.00495641 0.00194625)
(19.9721 -0.00915606 0.0034076)
(19.945 -0.0168581 0.00583792)
(19.8968 -0.0316286 0.0102863)
(19.8107 -0.0632515 0.0183915)
(19.6472 -0.134216 0.0349467)
(19.3625 -0.321875 0.0576586)
(18.888 -0.837004 0.10119)
(19.0666 -1.64586 -0.0174579)
(20.7362 -2.53109 0.137496)
(21.2652 -2.18723 0.426688)
(21.9149 -2.36086 0.109155)
(15.0702 -0.844297 0.823233)
(13.7335 -0.724117 0.5582)
(12.9988 -0.961976 0.443209)
(12.6826 -1.10652 0.308391)
(12.3631 -1.15138 0.16683)
(12.0294 -1.16535 0.0503262)
(11.8007 -1.15786 -0.041823)
(11.7075 -1.13362 -0.119033)
(11.7157 -1.10664 -0.185995)
(11.784 -1.08736 -0.247769)
(11.909 -1.0747 -0.304886)
(12.1255 -1.05921 -0.348511)
(12.4037 -1.0408 -0.378325)
(12.7406 -1.02218 -0.393446)
(13.0319 -0.999526 -0.408217)
(13.5537 -0.960536 -0.406241)
(19.9996 -0.000279175 0.000301466)
(19.9958 -0.000993761 0.00101423)
(19.9869 -0.00200705 0.00198311)
(19.9703 -0.00364211 0.00348705)
(19.9409 -0.00657151 0.00601436)
(19.8874 -0.0121593 0.0107084)
(19.7888 -0.0242518 0.019485)
(19.5857 -0.0518242 0.0389798)
(19.1832 -0.130458 0.0646502)
(18.2636 -0.364733 0.112348)
(17.7442 -1.1864 -0.224526)
(20.7085 -3.29892 -0.424898)
(21.2152 -6.5084 0.762353)
(15.1073 -0.774046 -1.27759)
(-2.23943 0.431709 -2.06757)
(1.42739 0.976998 -2.38071)
(4.74749 0.644736 -2.00822)
(7.38118 0.352206 -1.69989)
(9.08391 0.146122 -1.48071)
(10.2456 -0.00754068 -1.30181)
(11.1856 -0.116922 -1.15765)
(11.9962 -0.195754 -1.0483)
(12.6928 -0.25806 -0.965473)
(13.2907 -0.311274 -0.900656)
(13.8048 -0.355986 -0.847841)
(14.249 -0.388574 -0.802091)
(14.6305 -0.407673 -0.7621)
(14.9782 -0.413077 -0.722616)
(15.2354 -0.418946 -0.697536)
(15.6628 -0.384514 -0.649548)
(19.9996 0.00018226 0.000301516)
(19.9958 0.000552141 0.00101414)
(19.9869 0.00116012 0.00198068)
(19.9702 0.00233164 0.00347954)
(19.9409 0.00466915 0.00599847)
(19.8873 0.00957381 0.0106926)
(19.7886 0.0207922 0.0194869)
(19.5853 0.0471793 0.0389997)
(19.1824 0.124173 0.0647513)
(18.2612 0.354729 0.112978)
(17.4051 0.583532 -0.283804)
(19.8897 0.56829 -0.636759)
(-2.51749 0.0182143 -0.395305)
(-1.84479 -0.672051 -2.98909)
(2.04006 -1.00695 -2.89059)
(5.47851 -0.771027 -2.44365)
(8.20093 -0.556594 -2.10947)
(9.9827 -0.400402 -1.86706)
(11.1938 -0.269667 -1.66852)
(12.1321 -0.162291 -1.50525)
(12.8959 -0.0853808 -1.37379)
(13.5146 -0.0373773 -1.26358)
(14.016 -0.0121172 -1.16681)
(14.4266 -0.00118623 -1.07987)
(14.7676 0.00507452 -1.00075)
(15.0489 0.0111424 -0.929697)
(15.2974 0.0229481 -0.861913)
(15.4751 0.0233551 -0.813008)
(15.7706 0.0416396 -0.730159)
(19.9996 0.000618865 0.000296903)
(19.996 0.0020143 0.000999754)
(19.9876 0.00415218 0.00194243)
(19.972 0.00792991 0.00337823)
(19.9448 0.0151695 0.00580398)
(19.8964 0.0293336 0.0102754)
(19.81 0.0601196 0.0184267)
(19.6461 0.129906 0.0350409)
(19.3602 0.315815 0.0579742)
(18.8821 0.827365 0.102788)
(18.5556 1.62005 -0.0509609)
(20.6897 3.32805 -0.259329)
(21.912 4.78728 0.390832)
(19.2054 1.96178 -0.79923)
(13.7148 1.06981 0.652531)
(12.015 0.988176 0.299843)
(11.0622 1.26253 0.117478)
(10.8311 1.39317 -0.0681687)
(10.748 1.41348 -0.24324)
(10.746 1.4129 -0.38361)
(10.9553 1.38646 -0.482886)
(11.3138 1.33391 -0.550484)
(11.7279 1.26491 -0.587944)
(12.1449 1.18744 -0.601863)
(12.5424 1.10796 -0.599041)
(12.9108 1.03363 -0.585508)
(13.2425 0.966474 -0.566702)
(13.5407 0.913388 -0.541861)
(13.7841 0.85542 -0.527124)
(14.0969 0.795399 -0.483163)
(19.9996 0.00098542 0.000288889)
(19.9964 0.00323494 0.00096803)
(19.989 0.00660357 0.00187242)
(19.9753 0.0124398 0.00323782)
(19.952 0.023266 0.00548453)
(19.9128 0.0441745 0.00939129)
(19.8467 0.0870371 0.016223)
(19.7393 0.179453 0.0292047)
(19.5803 0.3852 0.0476409)
(19.4432 0.873213 0.0874588)
(19.426 1.37252 0.0326573)
(20.59 2.03399 0.0765903)
(21.1752 1.46713 0.274673)
(21.61 1.25197 0.119471)
(21.3764 -0.0486516 0.299938)
(20.5819 -0.255061 0.308058)
(20.1135 -0.101477 0.373184)
(19.8163 0.0318001 0.418262)
(19.4802 0.123159 0.432817)
(19.091 0.206389 0.425233)
(18.7114 0.275588 0.400142)
(18.3704 0.32408 0.362155)
(18.0687 0.355209 0.320219)
(17.8085 0.374711 0.280098)
(17.5904 0.387195 0.244081)
(17.4097 0.396189 0.212121)
(17.2669 0.402406 0.184088)
(17.1407 0.410846 0.159209)
(17.0612 0.410101 0.138954)
(16.9323 0.427557 0.110414)
(19.9997 0.00124239 0.000278427)
(19.997 0.00408696 0.000925828)
(19.9907 0.00828931 0.00178199)
(19.9796 0.0154483 0.0030495)
(19.9614 0.0283601 0.00503277)
(19.9324 0.0524485 0.00827886)
(19.888 0.0985749 0.0137984)
(19.8253 0.189557 0.0232946)
(19.7571 0.364691 0.0387274)
(19.7374 0.690756 0.0611372)
(19.977 1.1458 0.0776204)
(20.498 1.06421 0.108138)
(20.8497 0.802075 0.154532)
(20.9419 0.406373 0.145424)
(20.7464 -0.182309 0.100849)
(20.3842 -0.254665 0.0756767)
(20.1828 -0.0861739 0.0798425)
(20.1647 0.0499543 0.0933432)
(20.188 0.131102 0.107499)
(20.1987 0.189398 0.123499)
(20.2024 0.226606 0.140203)
(20.201 0.241722 0.155516)
(20.1891 0.241857 0.168988)
(20.1657 0.236003 0.180941)
(20.1346 0.22943 0.191295)
(20.0994 0.223179 0.199198)
(20.063 0.21831 0.204588)
(20.0203 0.213475 0.207615)
(19.9865 0.213857 0.209605)
(19.9247 0.212077 0.207198)
(19.9998 0.00136812 0.000265688)
(19.9976 0.00449721 0.000879576)
(19.9927 0.00906008 0.00167524)
(19.9843 0.0166805 0.00280451)
(19.9712 0.0300392 0.00450964)
(19.9519 0.0539274 0.00719943)
(19.9257 0.0970223 0.0115249)
(19.8949 0.174283 0.0185008)
(19.8764 0.30743 0.0293407)
(19.9031 0.508976 0.0434124)
(20.0917 0.766492 0.0574175)
(20.4319 0.763385 0.0678789)
(20.6777 0.520893 0.0782512)
(20.7303 0.228065 0.0701621)
(20.6181 -0.0833858 0.0395953)
(20.4045 -0.166141 0.016316)
(20.2491 -0.10318 0.0162621)
(20.1968 -0.0435684 0.0253923)
(20.1836 -0.0138461 0.0334376)
(20.1714 0.00562231 0.0402845)
(20.1628 0.0190281 0.0468342)
(20.1616 0.024634 0.0525983)
(20.1639 0.0256724 0.0570529)
(20.1662 0.0267462 0.0603761)
(20.1681 0.0294871 0.062762)
(20.17 0.0329501 0.0641524)
(20.1719 0.0363071 0.0647575)
(20.1733 0.0385338 0.0648569)
(20.1739 0.0422716 0.0646418)
(20.178 0.0418378 0.0635599)
(19.9998 0.00135464 0.000252587)
(19.9982 0.00444529 0.000830795)
(19.9947 0.00889543 0.00155987)
(19.9888 0.0161865 0.00256533)
(19.9803 0.0286313 0.00403313)
(19.9692 0.0500434 0.00624085)
(19.9567 0.0866271 0.0095782)
(19.9473 0.147429 0.014608)
(19.9554 0.242909 0.0217805)
(20.0039 0.371111 0.0307303)
(20.1444 0.513764 0.0391428)
(20.3695 0.510506 0.0427709)
(20.5471 0.343135 0.0435596)
(20.5966 0.14491 0.0360765)
(20.5295 -0.0431675 0.0196368)
(20.3943 -0.124871 0.0063985)
(20.2817 -0.105095 0.00450312)
(20.2311 -0.064827 0.00760891)
(20.2123 -0.0364831 0.0101318)
(20.1976 -0.0138743 0.012192)
(20.1853 0.00656646 0.0146704)
(20.1789 0.0227637 0.0171153)
(20.1763 0.0347167 0.0188715)
(20.1742 0.0440779 0.0198981)
(20.1714 0.0516208 0.0204806)
(20.1681 0.057137 0.020852)
(20.165 0.0604902 0.021219)
(20.1613 0.0620022 0.0216242)
(20.1591 0.0626648 0.0219949)
(20.1525 0.062272 0.0224818)
(19.9999 0.00120866 0.000240426)
(19.9988 0.00395912 0.000785104)
(19.9964 0.00787507 0.00145783)
(19.9928 0.0141848 0.00235988)
(19.9881 0.0247081 0.00362729)
(19.9833 0.0422393 0.00544104)
(19.9806 0.0709015 0.00802796)
(19.9849 0.115844 0.0116556)
(20.0071 0.181389 0.0164572)
(20.0622 0.261671 0.0219065)
(20.1718 0.339062 0.026952)
(20.3283 0.333608 0.0287112)
(20.4587 0.230133 0.0279488)
(20.5036 0.0968201 0.0222416)
(20.4633 -0.0238764 0.0126093)
(20.375 -0.0847678 0.00402076)
(20.2931 -0.0809302 0.000963493)
(20.2464 -0.0572061 0.0015715)
(20.2227 -0.0396279 0.00284082)
(20.2051 -0.026776 0.0041773)
(20.1909 -0.0150814 0.00577198)
(20.182 -0.0058515 0.00730756)
(20.177 -0.000220655 0.00837782)
(20.1731 0.00241779 0.00900732)
(20.1689 0.00311689 0.00946523)
(20.1646 0.00257782 0.00995431)
(20.1606 0.00125252 0.0105451)
(20.1569 -0.000417742 0.011167)
(20.154 -0.00187489 0.0116798)
(20.1516 -0.00326219 0.0121631)
(19.9999 0.000949324 0.000229957)
(19.9992 0.00310476 0.000746531)
(19.9978 0.00614619 0.0013748)
(19.9959 0.0109825 0.00219514)
(19.9942 0.0189034 0.00330709)
(19.9939 0.0317791 0.00482873)
(19.9977 0.0521388 0.0068864)
(20.0104 0.0827166 0.00958742)
(20.0398 0.124844 0.0128848)
(20.0954 0.173032 0.016344)
(20.186 0.214422 0.0192674)
(20.3029 0.210315 0.0199844)
(20.4024 0.148485 0.0185133)
(20.4427 0.0626072 0.0141069)
(20.4198 -0.0129496 0.0079325)
(20.3596 -0.0532349 0.00239939)
(20.2978 -0.0555353 -0.000134205)
(20.2557 -0.0427384 -0.000245752)
(20.2306 -0.0312176 0.000287866)
(20.2124 -0.0216684 0.000781592)
(20.1981 -0.0121735 0.00130656)
(20.1881 -0.00394361 0.00184249)
(20.1816 0.00168246 0.00226159)
(20.1766 0.0050029 0.00256763)
(20.1719 0.00708479 0.00286914)
(20.1675 0.00874376 0.00322532)
(20.1635 0.0103052 0.00360698)
(20.1598 0.011894 0.00394739)
(20.1575 0.013317 0.00411896)
(20.1513 0.0151001 0.00427807)
(20 0.000604753 0.000221937)
(19.9995 0.00197661 0.000718187)
(19.9988 0.0039006 0.00131449)
(19.9981 0.00693223 0.00207726)
(19.9982 0.0118361 0.0030829)
(20.0009 0.0196762 0.00441108)
(20.0087 0.0317931 0.00613271)
(20.026 0.0494811 0.00827054)
(20.0589 0.0729265 0.0106996)
(20.1135 0.0985804 0.0130707)
(20.1926 0.118875 0.0148523)
(20.2874 0.115798 0.0151341)
(20.3685 0.0825235 0.0135738)
(20.4058 0.0348877 0.0101176)
(20.3931 -0.00657959 0.00573061)
(20.3488 -0.0294558 0.00181508)
(20.2989 -0.0326386 -0.000334485)
(20.2605 -0.0266432 -0.000858246)
(20.2349 -0.0203423 -0.00075672)
(20.2162 -0.0151472 -0.000557453)
(20.2012 -0.0104024 -0.000251889)
(20.19 -0.00672838 0.00018824)
(20.1821 -0.00472175 0.000673841)
(20.1761 -0.00396889 0.00112321)
(20.171 -0.00366364 0.00152316)
(20.1665 -0.00331844 0.00187627)
(20.1625 -0.00290359 0.00217618)
(20.1588 -0.00256424 0.00241728)
(20.156 -0.00253255 0.0025428)
(20.1511 -0.00281114 0.00275109)
(20 0.000207538 0.000217943)
(19.9997 0.000678567 0.000704334)
(19.9993 0.00133738 0.00128541)
(19.9992 0.00237069 0.00202114)
(20.0003 0.00403138 0.00297708)
(20.0044 0.00666399 0.00421572)
(20.014 0.0106834 0.0057815)
(20.0335 0.016472 0.0076577)
(20.0678 0.0239946 0.0096948)
(20.1214 0.0320432 0.0115879)
(20.1952 0.0381205 0.0128967)
(20.2801 0.0369581 0.0129883)
(20.3528 0.0264744 0.0114431)
(20.3885 0.0113156 0.00846824)
(20.3805 -0.00189949 0.00483628)
(20.3434 -0.00934361 0.00159651)
(20.299 -0.0106813 -0.000352796)
(20.2627 -0.00894245 -0.00101448)
(20.237 -0.00693091 -0.0010671)
(20.2179 -0.00527621 -0.000971229)
(20.2027 -0.00379824 -0.00078038)
(20.191 -0.00259928 -0.000481738)
(20.1828 -0.00176942 -0.000158618)
(20.1767 -0.00111562 0.000100866)
(20.1717 -0.000382626 0.000271939)
(20.1672 0.000524979 0.000381305)
(20.1632 0.00151672 0.000468315)
(20.1592 0.00248716 0.000563012)
(20.1564 0.00320542 0.000634117)
(20.1502 0.00402636 0.000852154)
(20 -0.000217598 0.000654728)
(19.9998 -0.00071089 0.00205409)
(19.9997 -0.00138907 0.0036954)
(20 -0.00243411 0.00576526)
(20.0018 -0.004091 0.00845934)
(20.0068 -0.00669009 0.0119724)
(20.0176 -0.0106254 0.0164324)
(20.0383 -0.0162272 0.0218584)
(20.074 -0.0234565 0.0279068)
(20.129 -0.0311412 0.0335373)
(20.204 -0.0366351 0.037108)
(20.2895 -0.0349991 0.0365632)
(20.3621 -0.0240076 0.0308482)
(20.3961 -0.00850313 0.0211686)
(20.3852 0.00452821 0.0104647)
(20.3449 0.0114198 0.0020658)
(20.298 0.0123746 -0.0021479)
(20.2593 0.0104147 -0.00284438)
(20.2315 0.00813149 -0.00199729)
(20.2107 0.00606936 -0.00085629)
(20.1943 0.00402116 0.000464997)
(20.1818 0.00212725 0.00203513)
(20.173 0.000662371 0.00367339)
(20.1671 -0.000308944 0.00515338)
(20.1629 -0.000898147 0.00637264)
(20.1597 -0.00129284 0.00730234)
(20.1569 -0.0016663 0.00797232)
(20.1542 -0.00214965 0.00842795)
(20.1521 -0.00271599 0.00878496)
(20.1484 -0.00341664 0.00892854)
(20 -0.000631373 0.000665394)
(19.9996 -0.00206626 0.00209216)
(19.9992 -0.00404669 0.00377636)
(19.9989 -0.0071129 0.00592191)
(19.9998 -0.0120047 0.00875411)
(20.0034 -0.0197438 0.0125142)
(20.0124 -0.0316041 0.0174043)
(20.0311 -0.0487187 0.0235232)
(20.0655 -0.0712428 0.0306154)
(20.1216 -0.095743 0.0376078)
(20.2021 -0.114219 0.042623)
(20.2976 -0.109786 0.0427607)
(20.3788 -0.0747348 0.0365836)
(20.4141 -0.0258219 0.0255993)
(20.3982 0.0148946 0.0130354)
(20.3508 0.0358873 0.00314034)
(20.2987 0.0380421 -0.00143345)
(20.2582 0.031702 -0.00180242)
(20.2304 0.0249943 -0.000697607)
(20.2098 0.01907 0.000547326)
(20.1935 0.0130506 0.0020265)
(20.1813 0.00737533 0.00381696)
(20.173 0.00291319 0.00564175)
(20.1675 -3.70093e-05 0.0072599)
(20.1636 -0.0016631 0.00860315)
(20.1604 -0.00236561 0.00970214)
(20.1574 -0.00259343 0.0106195)
(20.1545 -0.00267623 0.0113975)
(20.152 -0.00295894 0.0120612)
(20.1492 -0.0030491 0.0126197)
(19.9999 -0.000989175 0.000686921)
(19.9993 -0.00324573 0.00216938)
(19.9982 -0.00637947 0.00394124)
(19.9968 -0.0112719 0.00624213)
(19.9958 -0.019171 0.00935906)
(19.9965 -0.0318707 0.0136345)
(20.0017 -0.0517876 0.019439)
(20.0161 -0.0813639 0.0270549)
(20.0473 -0.121782 0.0364263)
(20.1048 -0.167825 0.0465266)
(20.1968 -0.205872 0.0547916)
(20.3146 -0.199265 0.0562674)
(20.4144 -0.133391 0.0490243)
(20.4519 -0.0444665 0.0353847)
(20.4244 0.0291105 0.0184904)
(20.3611 0.0653849 0.00511634)
(20.2979 0.0660703 -4.16848e-05)
(20.254 0.0529629 0.000537961)
(20.2266 0.0410353 0.00227951)
(20.2063 0.0310757 0.0038207)
(20.19 0.0210599 0.00575053)
(20.1784 0.0116009 0.00811636)
(20.1712 0.00381123 0.0103927)
(20.1669 -0.00206446 0.0122048)
(20.164 -0.00629558 0.0135241)
(20.1615 -0.0091923 0.014497)
(20.159 -0.0110614 0.0153228)
(20.1561 -0.0121753 0.0160811)
(20.1538 -0.0129211 0.0168825)
(20.1503 -0.013467 0.0175353)
(19.9999 -0.00126103 0.000716461)
(19.9989 -0.00415026 0.00227634)
(19.9968 -0.0081943 0.00417149)
(19.9937 -0.0145847 0.00669496)
(19.9899 -0.0250824 0.0102301)
(19.9862 -0.0423643 0.0152834)
(19.9851 -0.0703703 0.0225199)
(19.9916 -0.113778 0.032588)
(20.0162 -0.176569 0.0459199)
(20.0736 -0.253325 0.061658)
(20.1849 -0.325094 0.0754276)
(20.3429 -0.315049 0.0790703)
(20.4741 -0.202612 0.0709742)
(20.5143 -0.0630689 0.0537011)
(20.4668 0.0523046 0.0286485)
(20.3757 0.105802 0.00875018)
(20.2939 0.100936 0.00302233)
(20.2459 0.0774955 0.00519348)
(20.22 0.0579607 0.00753933)
(20.2006 0.0418147 0.00933781)
(20.1845 0.0267307 0.0121509)
(20.1737 0.0143535 0.0158679)
(20.1676 0.00569955 0.0194996)
(20.1643 -6.40029e-05 0.0224046)
(20.1622 -0.00412437 0.0244665)
(20.1604 -0.00719565 0.0258506)
(20.1585 -0.00941017 0.0268382)
(20.1564 -0.0105874 0.0275795)
(20.1543 -0.010855 0.0283793)
(20.1518 -0.0103692 0.0289806)
(19.9998 -0.00141822 0.000752789)
(19.9983 -0.0046854 0.00240194)
(19.9951 -0.00930161 0.00444568)
(19.9898 -0.016699 0.00724937)
(19.9822 -0.0291205 0.0113242)
(19.9725 -0.0502155 0.0174212)
(19.962 -0.0859007 0.026676)
(19.9555 -0.144498 0.040398)
(19.9669 -0.235887 0.0600656)
(20.0186 -0.358292 0.0846752)
(20.1609 -0.492055 0.108079)
(20.3905 -0.480198 0.116603)
(20.5694 -0.290147 0.111159)
(20.6095 -0.0803445 0.0893454)
(20.5307 0.0937342 0.0480159)
(20.3953 0.161608 0.0167055)
(20.2858 0.143797 0.0124945)
(20.233 0.109344 0.0187022)
(20.2099 0.0827135 0.0219487)
(20.1923 0.0574028 0.0234775)
(20.1782 0.0314903 0.0265751)
(20.1705 0.00965728 0.0310027)
(20.1674 -0.00600545 0.0354406)
(20.1659 -0.0168804 0.0393611)
(20.1647 -0.0253102 0.0426804)
(20.1634 -0.0327971 0.045438)
(20.1621 -0.0395547 0.0476594)
(20.1607 -0.0449265 0.0492446)
(20.1599 -0.0482881 0.0505397)
(20.154 -0.0487627 0.0510196)
(19.9998 -0.0014424 0.000791823)
(19.9977 -0.00477873 0.00253888)
(19.9932 -0.00954981 0.00473144)
(19.9853 -0.0173207 0.00784185)
(19.9733 -0.0306668 0.0125502)
(19.9557 -0.0541984 0.0199346)
(19.9321 -0.0961454 0.0318109)
(19.9053 -0.170555 0.0507662)
(19.8917 -0.297861 0.0795174)
(19.9225 -0.490212 0.11828)
(20.1153 -0.742739 0.160187)
(20.4684 -0.715752 0.181386)
(20.7201 -0.41982 0.19065)
(20.7522 -0.107051 0.164221)
(20.6202 0.179703 0.0883655)
(20.4141 0.249748 0.0325958)
(20.2709 0.193435 0.0280302)
(20.2175 0.140223 0.040093)
(20.197 0.112471 0.0479676)
(20.1779 0.0908125 0.0548475)
(20.1639 0.070466 0.0638214)
(20.1592 0.0563757 0.0725751)
(20.1599 0.0493298 0.0791964)
(20.1615 0.046152 0.0839174)
(20.1624 0.0431576 0.0877948)
(20.1632 0.0379453 0.0914538)
(20.1642 0.030124 0.0949057)
(20.1661 0.020907 0.0976726)
(20.1681 0.0117851 0.100027)
(20.1708 0.0036507 0.100274)
(19.9997 -0.00132507 0.000828866)
(19.9971 -0.00441549 0.00267583)
(19.9912 -0.00885591 0.00502098)
(19.9808 -0.0162244 0.00840183)
(19.9637 -0.0291962 0.0137576)
(19.9368 -0.0528867 0.0225784)
(19.8958 -0.0976453 0.0376583)
(19.8386 -0.185043 0.0635151)
(19.7778 -0.352735 0.105413)
(19.7617 -0.667977 0.1658)
(20.0121 -1.14604 0.238763)
(20.5715 -0.976441 0.296426)
(20.9329 -0.615817 0.370791)
(20.9765 -0.19602 0.348511)
(20.7538 0.322628 0.213397)
(20.4129 0.405004 0.129534)
(20.2297 0.278779 0.115454)
(20.1944 0.15968 0.112171)
(20.1907 0.0755837 0.104941)
(20.1784 0.00426199 0.106871)
(20.1703 -0.0541739 0.119297)
(20.1722 -0.0930289 0.1358)
(20.1768 -0.112168 0.151751)
(20.1771 -0.11618 0.167563)
(20.1706 -0.111027 0.184172)
(20.1579 -0.101985 0.201878)
(20.1406 -0.0921672 0.219932)
(20.1188 -0.082441 0.236334)
(20.0982 -0.0741871 0.25217)
(20.0524 -0.0615802 0.260647)
(19.9996 -0.00107554 0.000861352)
(19.9966 -0.00360213 0.00279325)
(19.9894 -0.00726558 0.0052947)
(19.9765 -0.0133532 0.00892942)
(19.9546 -0.0243704 0.0148114)
(19.9179 -0.0452287 0.0247754)
(19.8562 -0.0868414 0.0432129)
(19.7557 -0.175729 0.0769889)
(19.6069 -0.370932 0.13583)
(19.459 -0.871545 0.227052)
(19.5809 -1.48833 0.251078)
(20.5019 -1.93454 0.324683)
(21.1232 -0.949867 0.629619)
(21.1648 -0.753659 0.789042)
(21.0713 0.56607 0.632546)
(20.4975 0.693702 0.527275)
(20.2515 0.588352 0.57036)
(20.2213 0.512123 0.60313)
(20.206 0.474842 0.617372)
(20.1483 0.442983 0.639827)
(20.0595 0.41474 0.66846)
(19.9434 0.394124 0.68929)
(19.7894 0.380149 0.697188)
(19.5953 0.368924 0.693591)
(19.3697 0.356875 0.681464)
(19.1276 0.341605 0.663709)
(18.886 0.323101 0.641972)
(18.6567 0.298217 0.616448)
(18.4647 0.281787 0.591222)
(18.2208 0.227798 0.542282)
(19.9996 -0.000715346 0.000885467)
(19.9961 -0.00241943 0.00288029)
(19.9881 -0.0048821 0.00548997)
(19.9732 -0.00897732 0.00936702)
(19.9475 -0.016442 0.015701)
(19.9022 -0.0305371 0.0265511)
(19.8214 -0.0606962 0.0475834)
(19.6669 -0.1284 0.0881007)
(19.3866 -0.306708 0.163195)
(18.8317 -0.839279 0.295632)
(18.6534 -2.07971 0.255674)
(20.3831 -3.5182 0.117631)
(21.3259 -1.33926 1.46847)
(21.5531 -2.79495 2.19353)
(15.7878 1.14451 1.1505)
(15.5153 0.837978 0.754445)
(15.407 0.382848 0.761817)
(15.3944 0.0839674 0.741757)
(15.2867 -0.0788585 0.675728)
(15.1426 -0.170245 0.613648)
(15.0677 -0.212241 0.556915)
(15.0905 -0.219778 0.494743)
(15.1987 -0.207934 0.428758)
(15.3917 -0.185094 0.362241)
(15.6443 -0.158121 0.297467)
(15.8999 -0.13767 0.233941)
(16.1485 -0.124975 0.173888)
(16.3985 -0.121314 0.12078)
(16.6199 -0.115975 0.0655552)
(16.9322 -0.124303 0.0091676)
(19.9996 -0.000282127 0.000898199)
(19.9959 -0.000989284 0.00292878)
(19.9874 -0.00198158 0.00559581)
(19.9714 -0.00357087 0.00960219)
(19.9435 -0.00638287 0.0162502)
(19.8932 -0.0117071 0.0279399)
(19.8009 -0.0230587 0.0505767)
(19.6101 -0.0478284 0.0951956)
(19.2035 -0.123451 0.17976)
(18.0646 -0.37537 0.331626)
(16.1787 -1.62813 -0.0345896)
(19.3511 -11.0654 -4.12866)
(15.1251 -7.76907 13.3903)
(-0.094669 -1.38255 2.92399)
(6.66611 2.7824 -2.35612)
(9.9666 2.7328 -2.28909)
(12.3824 2.22935 -1.81506)
(14.0552 1.80633 -1.47681)
(15.0821 1.48903 -1.25887)
(15.7301 1.2378 -1.08983)
(16.2126 1.03478 -0.960484)
(16.6126 0.866083 -0.872933)
(16.9538 0.721633 -0.815758)
(17.2479 0.595595 -0.776322)
(17.5038 0.487176 -0.746698)
(17.7284 0.396138 -0.722042)
(17.9256 0.320919 -0.701238)
(18.1055 0.258904 -0.678776)
(18.2442 0.204761 -0.669794)
(18.4445 0.156246 -0.634484)
(19.9996 0.000177473 0.000898537)
(19.9959 0.000536761 0.00292989)
(19.9873 0.00112176 0.00560376)
(19.9714 0.00223729 0.00961146)
(19.9435 0.00450709 0.0161949)
(19.8931 0.00921994 0.0277679)
(19.8007 0.0197691 0.0503941)
(19.6097 0.0434476 0.0950621)
(19.2031 0.117696 0.179772)
(18.0639 0.367335 0.333052)
(15.5857 0.834899 -0.138798)
(-0.325251 -0.416827 -0.792068)
(6.77825 -2.44538 -2.8444)
(9.99295 -2.20008 -2.71942)
(12.4362 -1.65871 -2.21252)
(14.2089 -1.23466 -1.86181)
(15.3523 -0.939849 -1.62887)
(16.1078 -0.73256 -1.43844)
(16.6683 -0.587024 -1.28317)
(17.1097 -0.48953 -1.16405)
(17.4589 -0.425211 -1.06857)
(17.7345 -0.383759 -0.986399)
(17.9537 -0.356842 -0.913379)
(18.1297 -0.336561 -0.848056)
(18.2707 -0.32024 -0.791043)
(18.3871 -0.301236 -0.738642)
(18.4742 -0.297133 -0.702842)
(18.5788 -0.271506 -0.640462)
(19.9996 0.000613846 0.000887157)
(19.9961 0.00197279 0.00287667)
(19.988 0.00408749 0.00551813)
(19.9731 0.00778062 0.00939847)
(19.9473 0.0147546 0.0156771)
(19.9018 0.0282229 0.026468)
(19.8207 0.0575516 0.047548)
(19.6658 0.124147 0.0882088)
(19.3851 0.300853 0.163792)
(18.8293 0.830533 0.299079)
(17.8184 2.12783 0.176402)
(19.414 9.4373 -2.88286)
(17.6081 4.55917 11.5151)
(4.78822 3.91751 3.7668)
(15.1768 -1.0482 1.13969)
(14.9605 -0.756365 0.633422)
(15.0519 -0.348587 0.566162)
(15.4403 -0.127636 0.491743)
(15.8802 -0.0446533 0.391532)
(16.3432 -0.0201212 0.306224)
(16.7761 -0.0135981 0.226662)
(17.1827 -0.0219226 0.151505)
(17.5255 -0.0354772 0.0875179)
(17.8076 -0.0524641 0.0407026)
(18.0319 -0.0694451 0.00912514)
(18.2044 -0.0824549 -0.0112624)
(18.3335 -0.090679 -0.0246949)
(18.4132 -0.0888636 -0.0328751)
(18.4879 -0.0952624 -0.0420753)
(18.4461 -0.0758027 -0.0384832)
(19.9996 0.000980306 0.000865698)
(19.9965 0.00319028 0.00279474)