/*--------------------------------*- C++ -*----------------------------------*\
| =========                 |                                                 |
| \\      /  F ield         | OpenFOAM: The Open Source CFD Toolbox           |
|  \\    /   O peration     | Version:  2512                                  |
|   \\  /    A nd           | Website:  www.openfoam.com                      |
|    \\/     M anipulation  |                                                 |
\*---------------------------------------------------------------------------*/
FoamFile
{
    version     2.0;
    format      ascii;
    arch        "LSB;label=32;scalar=64";
    class       volVectorField;
    location    "300";
    object      U;
}
// * * * * * * * * * * * * * * * * * * * * * * * * * * * * * * * * * * * * * //

dimensions      [0 1 -1 0 0 0 0];

internalField   nonuniform List<vector> 
90398
(
(20 -0.000215754 0.000210577)
(19.9998 -0.000725371 0.000673567)
(19.9998 -0.00144445 0.0012233)
(20.0005 -0.00257137 0.00191412)
(20.003 -0.00435929 0.0027974)
(20.0091 -0.00712359 0.00390838)
(20.0219 -0.0111673 0.00528296)
(20.0454 -0.0166159 0.00684456)
(20.0834 -0.0227287 0.00829136)
(20.1381 -0.0278122 0.00918293)
(20.2045 -0.0278431 0.00878357)
(20.2654 -0.0190298 0.0066219)
(20.2968 -0.00433212 0.00301525)
(20.2881 0.00814712 -0.000783787)
(20.2532 0.0133581 -0.00356074)
(20.2164 0.0128861 -0.00500229)
(20.1916 0.0109812 -0.00552748)
(20.1768 0.00980744 -0.005731)
(20.1657 0.00896915 -0.00587618)
(20.1562 0.00795973 -0.0059352)
(20.1492 0.00706068 -0.00589008)
(20.1449 0.00654974 -0.00581002)
(20.1419 0.00632467 -0.00575048)
(20.1396 0.00620145 -0.00571363)
(20.1376 0.00610704 -0.00569185)
(20.136 0.0060255 -0.00568731)
(20.1347 0.00595642 -0.00571236)
(20.1335 0.00589445 -0.00575543)
(20.1327 0.00588764 -0.00584757)
(20.1314 0.0058596 -0.00599849)
(20 -0.000625887 0.000215082)
(19.9996 -0.00210967 0.000689846)
(19.9993 -0.00421419 0.0012581)
(19.9993 -0.00753313 0.00198301)
(20.0008 -0.0128462 0.00292787)
(20.0056 -0.0211608 0.00414989)
(20.0168 -0.0335099 0.00570586)
(20.0389 -0.0504885 0.00756623)
(20.0772 -0.0701281 0.00943686)
(20.1356 -0.0871716 0.0108215)
(20.2102 -0.0881384 0.0105461)
(20.2799 -0.0598078 0.00793227)
(20.3135 -0.0126109 0.00349166)
(20.2991 0.0264183 -0.00116797)
(20.2564 0.0416962 -0.0043695)
(20.2154 0.0392387 -0.00586808)
(20.1901 0.0329859 -0.0063243)
(20.176 0.02948 -0.00648361)
(20.165 0.0271322 -0.00659119)
(20.1555 0.0243237 -0.00658135)
(20.1488 0.02188 -0.00646139)
(20.1449 0.0204925 -0.00633745)
(20.1422 0.0197779 -0.00626768)
(20.14 0.0192637 -0.00623723)
(20.138 0.0188601 -0.00621815)
(20.1365 0.0186095 -0.00620032)
(20.1352 0.018526 -0.00619465)
(20.1341 0.0185804 -0.00620018)
(20.1333 0.018848 -0.00625747)
(20.1324 0.0191873 -0.00640192)
(19.9999 -0.000977846 0.000224574)
(19.9993 -0.00331102 0.000723783)
(19.9982 -0.00665173 0.00133094)
(19.997 -0.011985 0.00212785)
(19.9965 -0.0206701 0.00320383)
(19.9984 -0.034563 0.00465493)
(20.006 -0.0558613 0.00660483)
(20.0251 -0.0862413 0.00912371)
(20.0632 -0.123187 0.0119235)
(20.1292 -0.157992 0.0144258)
(20.2224 -0.162681 0.0144305)
(20.3121 -0.108101 0.0106152)
(20.3499 -0.0183709 0.00415279)
(20.3221 0.0519881 -0.00240962)
(20.2623 0.0763498 -0.00649677)
(20.2127 0.0690261 -0.00810558)
(20.1872 0.0568219 -0.00844836)
(20.1747 0.0502171 -0.00858165)
(20.1641 0.0453781 -0.0087089)
(20.1546 0.0400104 -0.00868474)
(20.1485 0.0359305 -0.00853339)
(20.1452 0.0339128 -0.00838501)
(20.1428 0.0328618 -0.00829238)
(20.1406 0.0318786 -0.0082367)
(20.1388 0.0308805 -0.00819953)
(20.1374 0.0300131 -0.00817961)
(20.1364 0.0293323 -0.00819028)
(20.1354 0.0287888 -0.00823247)
(20.1348 0.0285489 -0.00834746)
(20.1334 0.0284464 -0.00861082)
(19.9999 -0.00123883 0.000237297)
(19.9988 -0.00422045 0.000770217)
(19.9967 -0.00854723 0.00143226)
(19.9936 -0.0155762 0.00233307)
(19.9899 -0.0273167 0.00360778)
(19.9872 -0.0467191 0.00541279)
(19.9886 -0.0778411 0.00801283)
(20.0013 -0.124781 0.011687)
(20.0371 -0.18634 0.0162377)
(20.1152 -0.251737 0.021083)
(20.2427 -0.265938 0.0218394)
(20.3688 -0.169349 0.0154634)
(20.4119 -0.0169485 0.00514231)
(20.3584 0.0920488 -0.00468157)
(20.2691 0.12238 -0.01015)
(20.2062 0.105642 -0.0118977)
(20.1814 0.0876945 -0.0120841)
(20.1716 0.0798669 -0.0121034)
(20.1614 0.0726533 -0.0120319)
(20.1524 0.0638098 -0.0117466)
(20.1477 0.0575033 -0.0114353)
(20.1456 0.0548993 -0.0112582)
(20.1436 0.0541659 -0.0111773)
(20.1414 0.0539255 -0.0111035)
(20.1395 0.0539071 -0.0110065)
(20.1381 0.0541055 -0.0108998)
(20.1371 0.0544141 -0.0108095)
(20.1362 0.0546867 -0.0107302)
(20.1355 0.0550687 -0.0107376)
(20.1357 0.0556584 -0.0108527)
(19.9998 -0.00137784 0.000252406)
(19.9982 -0.00473154 0.000826064)
(19.9947 -0.00968474 0.00155703)
(19.9891 -0.0179096 0.00258834)
(19.9812 -0.032101 0.00413598)
(19.9716 -0.056579 0.00647235)
(19.9628 -0.0983493 0.0100741)
(19.9635 -0.166092 0.015678)
(19.991 -0.264568 0.0234937)
(20.0861 -0.386478 0.0333807)
(20.2756 -0.423386 0.0359289)
(20.464 -0.253225 0.0228755)
(20.5101 -0.00204915 0.00369859)
(20.4091 0.157346 -0.0115887)
(20.2738 0.183292 -0.0189602)
(20.1953 0.141707 -0.0209205)
(20.1753 0.112227 -0.0213208)
(20.1692 0.10384 -0.021818)
(20.158 0.0961899 -0.0218726)
(20.149 0.0856857 -0.021228)
(20.1466 0.0779308 -0.020414)
(20.1467 0.0739917 -0.0198091)
(20.1457 0.0718592 -0.0193969)
(20.1439 0.0704584 -0.0190507)
(20.1424 0.0696475 -0.0187401)
(20.1412 0.0692362 -0.0184846)
(20.1401 0.0688662 -0.018309)
(20.1391 0.068289 -0.0181959)
(20.1385 0.0677839 -0.0181892)
(20.138 0.0671468 -0.018442)
(19.9997 -0.00137256 0.000268495)
(19.9975 -0.00476597 0.00088498)
(19.9925 -0.00987981 0.00169253)
(19.9839 -0.0185889 0.00287409)
(19.9706 -0.0342085 0.00476217)
(19.9514 -0.0625618 0.00783413)
(19.927 -0.114963 0.0129745)
(19.9055 -0.208713 0.021829)
(19.9099 -0.364669 0.0355009)
(20.0267 -0.590663 0.0569391)
(20.3276 -0.666358 0.0645166)
(20.6236 -0.365831 0.0377147)
(20.6596 0.038785 0.0038314)
(20.4705 0.278485 -0.0188519)
(20.2609 0.299986 -0.0286288)
(20.1651 0.225481 -0.0312101)
(20.1606 0.177594 -0.0317296)
(20.1642 0.159456 -0.0326)
(20.1529 0.144762 -0.0332826)
(20.1439 0.131995 -0.0333425)
(20.1433 0.125463 -0.0332266)
(20.1447 0.123102 -0.0331709)
(20.1443 0.122087 -0.0331033)
(20.143 0.121965 -0.0329083)
(20.1417 0.122834 -0.032588)
(20.1407 0.12415 -0.0322047)
(20.1396 0.125089 -0.0318274)
(20.1387 0.125193 -0.0314253)
(20.1377 0.124917 -0.0311843)
(20.1402 0.124428 -0.0310192)
(19.9997 -0.00121072 0.000284171)
(19.9968 -0.00428295 0.00094191)
(19.9903 -0.00902529 0.00182023)
(19.9784 -0.0172836 0.00315172)
(19.9588 -0.0326814 0.00541476)
(19.9272 -0.0623129 0.00932861)
(19.8796 -0.122485 0.0166383)
(19.8175 -0.243517 0.0303892)
(19.7703 -0.497852 0.0554084)
(19.8992 -0.921593 0.100725)
(20.393 -1.04898 0.120886)
(20.8723 -0.497702 0.0703912)
(20.884 0.0756343 0.0148586)
(20.5558 0.40439 -0.0184586)
(20.2326 0.377553 -0.0323015)
(20.1129 0.278846 -0.0419857)
(20.1273 0.241622 -0.0481096)
(20.1418 0.22434 -0.0505258)
(20.1343 0.200193 -0.0501116)
(20.1307 0.181292 -0.048538)
(20.1352 0.172731 -0.0471336)
(20.1391 0.168869 -0.0461707)
(20.14 0.166429 -0.0454946)
(20.1399 0.166014 -0.0449481)
(20.1397 0.167962 -0.0444517)
(20.139 0.171058 -0.0439629)
(20.1377 0.173546 -0.043437)
(20.1364 0.174303 -0.0428265)
(20.1352 0.173812 -0.0422773)
(20.1395 0.171352 -0.0419577)
(19.9996 -0.000907758 0.000297277)
(19.9962 -0.00328504 0.00099486)
(19.9882 -0.00709443 0.00193958)
(19.9733 -0.0139172 0.00336591)
(19.9472 -0.0272337 0.00588805)
(19.9016 -0.0530995 0.0106379)
(19.8218 -0.11501 0.020743)
(19.6872 -0.240832 0.0401022)
(19.5039 -0.636348 0.0935489)
(19.6377 -1.04035 0.0780899)
(20.2854 -1.73672 0.10428)
(21.3713 -0.965999 0.0666712)
(21.4526 0.252377 -0.00279757)
(20.8822 0.767777 -0.0406544)
(20.2048 0.580252 -0.0276577)
(20.0925 0.356226 -0.0473385)
(20.1274 0.321693 -0.0681223)
(20.1311 0.317881 -0.0838192)
(20.1127 0.298559 -0.0926811)
(20.1081 0.284437 -0.0964974)
(20.1126 0.280047 -0.0975941)
(20.1145 0.277181 -0.0971538)
(20.1135 0.273533 -0.0959411)
(20.1127 0.271759 -0.0945542)
(20.1119 0.273254 -0.0933442)
(20.1098 0.276899 -0.0923644)
(20.1061 0.280342 -0.0915764)
(20.1023 0.282084 -0.0908255)
(20.0986 0.281546 -0.090268)
(20.1039 0.278167 -0.0912365)
(19.9996 -0.000483584 0.000306457)
(19.9957 -0.00188039 0.00103174)
(19.9867 -0.0042424 0.00203656)
(19.9693 -0.00848705 0.00356535)
(19.9382 -0.0173734 0.00614555)
(19.8787 -0.0354227 0.0115897)
(19.7661 -0.079039 0.0229579)
(19.53 -0.199321 0.0562259)
(19.3619 -0.411845 0.0557136)
(18.9086 -1.6264 0.164047)
(20.1955 -3.51426 0.325557)
(22.3894 -2.25325 0.804087)
(22.0812 0.117841 0.411006)
(21.227 1.13381 0.217247)
(19.9411 1.04762 0.0908733)
(20.0844 0.699943 0.0117674)
(20.3293 0.614556 -0.0252608)
(20.4193 0.584817 -0.0473034)
(20.4507 0.552403 -0.0659119)
(20.4847 0.53134 -0.0828035)
(20.5121 0.521552 -0.0977607)
(20.5235 0.513592 -0.110218)
(20.5249 0.505304 -0.120181)
(20.5221 0.499573 -0.128214)
(20.5152 0.497993 -0.134684)
(20.5026 0.499507 -0.139539)
(20.4856 0.501742 -0.142737)
(20.4654 0.502087 -0.143786)
(20.4469 0.50264 -0.144284)
(20.431 0.488208 -0.142939)
(19.9996 1.69299e-05 0.000311232)
(19.9955 -0.000208199 0.0010476)
(19.9859 -0.000776697 0.00207992)
(19.9672 -0.00197159 0.00371066)
(19.9337 -0.00455358 0.00654236)
(19.8649 -0.00998419 0.0123192)
(19.7344 -0.0262099 0.025342)
(19.3908 -0.068705 0.0662052)
(19.0136 -0.245221 0.0810182)
(17.9641 -1.15774 0.100638)
(18.2086 -6.15615 -0.419103)
(10.1548 -11.8096 -2.41178)
(10.6182 -3.62144 -0.692489)
(10.6468 -1.45165 0.360973)
(12.1646 1.15282 0.449803)
(13.6201 0.998839 0.0850832)
(14.9013 0.975363 -0.0436247)
(15.7401 0.992706 -0.075707)
(16.3807 1.00451 -0.0755751)
(16.9454 1.0117 -0.0688996)
(17.4313 1.01583 -0.0634445)
(17.8377 1.01406 -0.0607565)
(18.1828 1.00654 -0.0613716)
(18.4797 0.996104 -0.0656683)
(18.7318 0.985074 -0.0731357)
(18.9396 0.973577 -0.0825495)
(19.1085 0.961629 -0.0923828)
(19.2436 0.944409 -0.101174)
(19.3465 0.935979 -0.109121)
(19.4688 0.883335 -0.118673)
(19.9996 0.000537706 0.000309907)
(19.9956 0.00154051 0.00104382)
(19.9861 0.00286142 0.0020717)
(19.9675 0.00498832 0.00369597)
(19.9343 0.00910276 0.00650796)
(19.8668 0.0174425 0.0122336)
(19.7379 0.0401385 0.0250967)
(19.4075 0.102715 0.065046)
(18.9712 0.171219 0.0850404)
(17.0722 0.548072 0.13897)
(9.69284 0.389272 -6.70004)
(11.8586 -2.02457 -1.33569)
(7.52562 -1.92282 -0.771627)
(6.68915 -0.0259548 -0.682979)
(7.74424 0.382619 -0.861903)
(9.11878 0.54148 -0.789389)
(10.0345 0.656875 -0.647913)
(10.7893 0.755118 -0.501012)
(11.5434 0.820943 -0.372264)
(12.2636 0.866332 -0.265856)
(12.9306 0.905972 -0.179312)
(13.558 0.944742 -0.11053)
(14.1548 0.982835 -0.0583548)
(14.7163 1.02032 -0.0210378)
(15.2342 1.05556 0.00365493)
(15.7037 1.08832 0.019027)
(16.129 1.11168 0.0262803)
(16.4741 1.13697 0.0297642)
(16.9273 1.1312 0.0221222)
(19.9996 0.00101839 0.000302548)
(19.9959 0.00316031 0.00102006)
(19.9871 0.00621933 0.00201291)
(19.9703 0.0113218 0.00351903)
(19.94 0.0214425 0.00604221)
(19.8834 0.0419849 0.0113538)
(19.7762 0.0897284 0.0222982)
(19.5649 0.222118 0.0534482)
(19.2804 0.44762 0.0667429)
(18.5901 1.85944 0.205394)
(20.8954 4.21371 0.126165)
(15.4043 3.3371 1.63948)
(10.9558 2.16693 -0.114404)
(10.0164 0.687876 0.00725447)
(17.7013 -0.837746 0.31068)
(17.6011 -0.369869 0.251604)
(17.4908 -0.189507 0.225182)
(17.1673 -0.08451 0.190348)
(16.7298 0.0179393 0.154114)
(16.3027 0.0989593 0.123277)
(15.9064 0.159642 0.100823)
(15.5426 0.214074 0.0881769)
(15.2308 0.267961 0.0846587)
(14.9872 0.320909 0.0883352)
(14.819 0.373456 0.0969257)
(14.723 0.428133 0.108011)
(14.6939 0.486063 0.12071)
(14.7294 0.552252 0.131504)
(14.7904 0.596282 0.142095)
(15.0042 0.713168 0.14993)
(19.9997 0.00140543 0.000290903)
(19.9964 0.00446476 0.000976442)
(19.9888 0.00888333 0.00190087)
(19.9747 0.0163975 0.00329139)
(19.9501 0.030561 0.00573736)
(19.9075 0.058022 0.0102965)
(19.8358 0.120724 0.0197288)
(19.7194 0.250974 0.0373929)
(19.5943 0.618583 0.0822636)
(19.5452 1.11729 0.102288)
(20.4505 1.71891 0.154978)
(21.6384 0.655157 0.0177059)
(21.5055 -0.716276 0.00401471)
(20.7898 -1.15108 0.0119798)
(19.9877 -0.459016 -0.0319417)
(19.9174 -0.140189 -0.00742617)
(19.9933 -0.0263841 0.00368567)
(20.0161 0.0242771 0.00975114)
(19.9792 0.0788219 0.0229804)
(19.9176 0.125377 0.0415796)
(19.8262 0.159932 0.0602514)
(19.6902 0.189588 0.0765185)
(19.5087 0.215796 0.0902942)
(19.2894 0.235282 0.101333)
(19.037 0.246823 0.109776)
(18.7539 0.253192 0.116127)
(18.4519 0.256972 0.121787)
(18.1204 0.268259 0.126447)
(17.8436 0.264053 0.130784)
(17.372 0.317599 0.139092)
(19.9997 0.0016573 0.000275858)
(19.9971 0.00532641 0.00091666)
(19.9911 0.0105735 0.00177185)
(19.9801 0.019327 0.0030604)
(19.9622 0.0352142 0.00523047)
(19.9337 0.0652095 0.00892003)
(19.8925 0.124859 0.0156232)
(19.8433 0.240388 0.0277)
(19.8219 0.477615 0.0483608)
(19.9789 0.80984 0.0789023)
(20.4209 0.815499 0.0688036)
(20.8071 0.299636 0.0186915)
(20.7783 -0.202378 -0.0174772)
(20.4416 -0.451727 -0.0347565)
(20.1273 -0.352712 -0.0326524)
(20.0267 -0.189657 -0.0313091)
(20.0567 -0.119087 -0.0333845)
(20.0766 -0.0907315 -0.0336879)
(20.0702 -0.0531935 -0.0293133)
(20.0732 -0.0105418 -0.0221309)
(20.091 0.0284158 -0.01455)
(20.1129 0.0659388 -0.00709842)
(20.1333 0.103272 0.000723482)
(20.1507 0.138155 0.00899805)
(20.1606 0.168802 0.0176886)
(20.1562 0.195393 0.0264656)
(20.1348 0.219529 0.0355129)
(20.0806 0.240435 0.044351)
(20.038 0.264912 0.0537434)
(19.8614 0.284248 0.0679418)
(19.9998 0.0017576 0.000258205)
(19.9979 0.00565306 0.000855809)
(19.9934 0.0111599 0.00163696)
(19.9858 0.0201811 0.002771)
(19.974 0.0359466 0.00456278)
(19.9575 0.0640037 0.00742039)
(19.9379 0.114613 0.0120857)
(19.9241 0.202518 0.019756)
(19.9409 0.34288 0.0309709)
(20.0656 0.526709 0.0461299)
(20.338 0.548249 0.0422865)
(20.5847 0.266845 0.0141292)
(20.5927 -0.092837 -0.0123384)
(20.3958 -0.284264 -0.0266002)
(20.1872 -0.259665 -0.0285619)
(20.0965 -0.153518 -0.0239468)
(20.0984 -0.0875549 -0.0172254)
(20.1087 -0.0568864 -0.0112131)
(20.1021 -0.0273532 -0.00607492)
(20.0952 0.0030325 -0.00176269)
(20.0953 0.0270909 0.00152499)
(20.0978 0.0457149 0.00413395)
(20.1009 0.0617587 0.00662008)
(20.107 0.0755943 0.00924498)
(20.1172 0.0867667 0.0119528)
(20.1306 0.0958545 0.0145485)
(20.1461 0.105017 0.0170151)
(20.1612 0.113503 0.0194504)
(20.1783 0.128988 0.0216658)
(20.2011 0.141647 0.0264936)
(19.9999 0.0016957 0.000240942)
(19.9986 0.00545197 0.000793594)
(19.9957 0.0106934 0.00149585)
(19.991 0.0190875 0.00247885)
(19.9845 0.0332118 0.0039364)
(19.977 0.0570693 0.00609125)
(19.9716 0.0968734 0.00934063)
(19.9768 0.159516 0.0141837)
(20.0097 0.247067 0.0205346)
(20.1055 0.345871 0.0274506)
(20.2767 0.354149 0.0258588)
(20.4347 0.188847 0.0124187)
(20.4601 -0.0385928 -0.0028662)
(20.3518 -0.171561 -0.0132011)
(20.2159 -0.17182 -0.0160762)
(20.1401 -0.108923 -0.0137658)
(20.1253 -0.0614216 -0.0107209)
(20.1257 -0.0384838 -0.0093162)
(20.119 -0.0191589 -0.00867176)
(20.1116 0.00144124 -0.00761153)
(20.109 0.0186855 -0.00602899)
(20.1085 0.0323991 -0.00413433)
(20.1078 0.0448319 -0.00198424)
(20.1074 0.0564548 0.000333192)
(20.1082 0.0665093 0.00265555)
(20.1097 0.0747321 0.0048155)
(20.1112 0.0818318 0.0067605)
(20.1129 0.0879705 0.0085207)
(20.114 0.0952316 0.00996274)
(20.1213 0.102067 0.0125345)
(19.9999 0.00148641 0.000224931)
(19.9992 0.00477279 0.000735402)
(19.9977 0.0092988 0.00136781)
(19.9954 0.016402 0.00222162)
(19.993 0.0279786 0.00341368)
(19.9919 0.0467083 0.00507041)
(19.9955 0.0760861 0.00740401)
(20.0107 0.119094 0.0105806)
(20.0484 0.173205 0.0142658)
(20.1243 0.225465 0.0176846)
(20.2396 0.225542 0.016755)
(20.3464 0.131239 0.0102847)
(20.3746 -0.00653494 0.00177087)
(20.3146 -0.0981682 -0.00550811)
(20.2238 -0.111768 -0.0085589)
(20.162 -0.0801847 -0.00799254)
(20.14 -0.0500909 -0.00618679)
(20.1337 -0.0340621 -0.00463173)
(20.1261 -0.0218903 -0.0031323)
(20.1183 -0.00893214 -0.00128948)
(20.1143 0.00240445 0.000702414)
(20.1128 0.0113847 0.00253264)
(20.1118 0.0193055 0.00412941)
(20.1112 0.0266408 0.00555124)
(20.1113 0.032927 0.00683182)
(20.112 0.0379329 0.00797339)
(20.1125 0.0420792 0.0090029)
(20.1127 0.0458754 0.00993857)
(20.1123 0.0498123 0.0108007)
(20.1134 0.0557152 0.0121779)
(20 0.00115455 0.000211498)
(19.9997 0.00369973 0.0006873)
(19.9992 0.00716767 0.00126433)
(19.9987 0.0125219 0.00201555)
(19.9993 0.0210322 0.00301672)
(20.0026 0.0343568 0.00434217)
(20.0117 0.0543306 0.00609029)
(20.0319 0.0819901 0.00827294)
(20.0701 0.114203 0.0105503)
(20.133 0.14179 0.0123099)
(20.2172 0.139463 0.0115775)
(20.2935 0.085709 0.00777216)
(20.32 0.00401726 0.00230545)
(20.2861 -0.056328 -0.00269459)
(20.2242 -0.0711148 -0.00516158)
(20.1747 -0.0551789 -0.00519124)
(20.1507 -0.0358773 -0.00407703)
(20.1404 -0.0241452 -0.0029371)
(20.132 -0.0155539 -0.001959)
(20.1242 -0.00649969 -0.000959297)
(20.1193 0.00188889 4.10372e-05)
(20.117 0.0086745 0.000929085)
(20.1156 0.0144207 0.00171404)
(20.1145 0.0195457 0.00248303)
(20.1141 0.0238868 0.0032789)
(20.1143 0.0273276 0.00409957)
(20.1146 0.0301463 0.00493034)
(20.115 0.032709 0.00575743)
(20.1148 0.0352833 0.00651991)
(20.115 0.0387734 0.00775603)
(20 0.000732794 0.000201525)
(20.0001 0.00234244 0.000652222)
(20.0002 0.00451797 0.00118995)
(20.001 0.00783796 0.00186996)
(20.0034 0.0130252 0.002745)
(20.0093 0.02097 0.00385589)
(20.0215 0.0325046 0.00524879)
(20.0442 0.0479101 0.00686377)
(20.0817 0.0649658 0.00839265)
(20.1367 0.0783717 0.0093573)
(20.2039 0.0760192 0.00874189)
(20.2634 0.0480207 0.00621551)
(20.2877 0.00495602 0.00245122)
(20.2678 -0.0285409 -0.00113917)
(20.2229 -0.0384046 -0.00319558)
(20.1815 -0.0310437 -0.00358681)
(20.157 -0.0206441 -0.00300658)
(20.1444 -0.0138903 -0.00223065)
(20.1353 -0.00900627 -0.00151117)
(20.1275 -0.00392106 -0.000758389)
(20.1222 0.000808018 5.16737e-05)
(20.1192 0.00450007 0.000848101)
(20.1173 0.00745063 0.00160357)
(20.116 0.0100401 0.00234345)
(20.1153 0.0122931 0.00307996)
(20.1152 0.0141694 0.00379629)
(20.1154 0.0157954 0.00447515)
(20.1159 0.0173381 0.00509448)
(20.1158 0.0188248 0.0056387)
(20.1159 0.0208372 0.00642792)
(20 0.000251972 0.000196692)
(20.0002 0.000803752 0.00063519)
(20.0007 0.0015457 0.00115397)
(20.0021 0.00267105 0.0017999)
(20.0055 0.00441354 0.00261503)
(20.0126 0.00705006 0.00362098)
(20.0262 0.0108202 0.00484857)
(20.0498 0.0157571 0.00620496)
(20.0867 0.0210559 0.00738603)
(20.1379 0.0250376 0.00799208)
(20.1975 0.0241039 0.0074141)
(20.2496 0.0154177 0.00538459)
(20.2727 0.00204479 0.00234426)
(20.2587 -0.00861525 -0.0005787)
(20.2213 -0.0120588 -0.00238217)
(20.1839 -0.0100241 -0.00285119)
(20.1595 -0.00681006 -0.00243312)
(20.1459 -0.00459408 -0.00174665)
(20.1365 -0.00294698 -0.00107249)
(20.1287 -0.00125426 -0.000378175)
(20.1231 0.000299384 0.000364436)
(20.1197 0.00148963 0.00109619)
(20.1177 0.00243327 0.00177244)
(20.1164 0.00328736 0.00240304)
(20.1156 0.00407375 0.00300393)
(20.1155 0.00476953 0.00357399)
(20.1157 0.00539129 0.00411073)
(20.1163 0.00596949 0.00459349)
(20.1162 0.00648747 0.00504213)
(20.1163 0.00708977 0.00567569)
(20 -0.000215473 0.000634389)
(19.9999 -0.000717771 0.0019784)
(19.9999 -0.00142459 0.00354615)
(20.0008 -0.0025272 0.00550871)
(20.0035 -0.00427507 0.00802015)
(20.01 -0.00696579 0.0111953)
(20.0231 -0.0108851 0.0150167)
(20.0467 -0.0161221 0.0192815)
(20.0847 -0.0220046 0.0232266)
(20.1388 -0.0266879 0.0256639)
(20.2042 -0.0266498 0.0246294)
(20.264 -0.018273 0.0183934)
(20.2952 -0.00440526 0.00810242)
(20.2871 0.00737434 -0.002307)
(20.2536 0.0122713 -0.00940509)
(20.2181 0.0118021 -0.0125921)
(20.194 0.0100182 -0.0134928)
(20.1794 0.00893503 -0.0138402)
(20.1684 0.00816639 -0.0141657)
(20.1589 0.00724826 -0.0143061)
(20.1519 0.00644537 -0.0142288)
(20.1475 0.00600201 -0.0141319)
(20.1444 0.00581081 -0.0141387)
(20.1419 0.00570181 -0.014225)
(20.1397 0.00561788 -0.0143531)
(20.1379 0.00555764 -0.0145107)
(20.1364 0.00552091 -0.0147399)
(20.135 0.0054949 -0.0150045)
(20.134 0.00551931 -0.0153621)
(20.1322 0.00549134 -0.0158355)
(20 -0.0006242 0.000647383)
(19.9997 -0.00208448 0.00202559)
(19.9994 -0.00414875 0.003648)
(19.9996 -0.00738929 0.0057075)
(20.0014 -0.0125708 0.00840283)
(20.0065 -0.0206435 0.0119035)
(20.018 -0.0325758 0.0162745)
(20.0403 -0.0488319 0.0213927)
(20.0786 -0.0676304 0.0264472)
(20.1362 -0.0833177 0.0300723)
(20.2093 -0.084068 0.0296061)
(20.2773 -0.0573822 0.0221307)
(20.3104 -0.0131054 0.00955078)
(20.297 0.0236167 -0.00268557)
(20.2561 0.0378673 -0.010497)
(20.2168 0.0354104 -0.0136032)
(20.1923 0.0295185 -0.0142704)
(20.1784 0.0262522 -0.0145362)
(20.1676 0.0240508 -0.0148288)
(20.1582 0.0214202 -0.0148783)
(20.1516 0.0191677 -0.0147193)
(20.1476 0.0179356 -0.0146257)
(20.1448 0.0173399 -0.0147052)
(20.1425 0.016932 -0.0148857)
(20.1404 0.0166161 -0.0150837)
(20.1388 0.0164493 -0.0152915)
(20.1374 0.0164373 -0.0155416)
(20.1361 0.01654 -0.0158282)
(20.1353 0.0168219 -0.0162124)
(20.1337 0.0170938 -0.0168401)
(19.9999 -0.000975168 0.000674223)
(19.9994 -0.00327092 0.00212069)
(19.9984 -0.00654555 0.00385192)
(19.9974 -0.011748 0.00610566)
(19.9972 -0.0202052 0.00917808)
(19.9996 -0.0336675 0.0133684)
(20.0077 -0.0541943 0.0189378)
(20.0272 -0.0831707 0.0259549)
(20.0654 -0.11834 0.0336091)
(20.1304 -0.150309 0.0401333)
(20.2208 -0.154128 0.0408765)
(20.3076 -0.103326 0.0303354)
(20.3446 -0.0195568 0.0121357)
(20.3186 0.0465385 -0.00433289)
(20.2616 0.0691592 -0.0138077)
(20.2142 0.0618996 -0.0168615)
(20.1896 0.050324 -0.0172341)
(20.1773 0.0442231 -0.0175964)
(20.1667 0.0398656 -0.0181116)
(20.1573 0.0350268 -0.0182756)
(20.1512 0.0313769 -0.0182072)
(20.1479 0.0296415 -0.0182488)
(20.1454 0.0288244 -0.0184709)
(20.1431 0.02808 -0.0187579)
(20.1412 0.0273554 -0.0190654)
(20.1398 0.0267652 -0.0194052)
(20.1385 0.0263519 -0.0198032)
(20.1374 0.0260619 -0.0202631)
(20.1367 0.0260375 -0.0208434)
(20.1347 0.0261353 -0.0217864)
(19.9999 -0.00123608 0.000711376)
(19.9989 -0.00417011 0.00225352)
(19.9969 -0.00840952 0.00414085)
(19.994 -0.015262 0.0066786)
(19.9909 -0.0266824 0.0103279)
(19.9888 -0.045433 0.0156211)
(19.991 -0.0752957 0.0232074)
(20.0046 -0.119819 0.0336292)
(20.0411 -0.177946 0.0463636)
(20.1176 -0.237291 0.0590401)
(20.2398 -0.249201 0.0620903)
(20.3603 -0.16077 0.0448253)
(20.4026 -0.0192408 0.0161812)
(20.3526 0.0830155 -0.0074616)
(20.2679 0.110916 -0.0195058)
(20.208 0.0942063 -0.0223756)
(20.1842 0.0765707 -0.0222787)
(20.1746 0.0686976 -0.0226302)
(20.1645 0.0617688 -0.0230667)
(20.1555 0.0537116 -0.0230301)
(20.1507 0.0482382 -0.0230052)
(20.1484 0.046258 -0.0233665)
(20.1462 0.0459594 -0.0239432)
(20.1438 0.0460915 -0.0244572)
(20.1419 0.0463793 -0.0248853)
(20.1404 0.046807 -0.0252731)
(20.1392 0.0472651 -0.0256745)
(20.1381 0.0476208 -0.0260914)
(20.1373 0.0480575 -0.0266265)
(20.1367 0.0484551 -0.0275629)
(19.9998 -0.00137493 0.000755812)
(19.9983 -0.00467635 0.00241479)
(19.995 -0.00952763 0.00449654)
(19.9898 -0.017539 0.007407)
(19.9825 -0.0313047 0.011781)
(19.9739 -0.0549074 0.0185904)
(19.9666 -0.0947803 0.029279)
(19.9692 -0.15855 0.0453957)
(19.9987 -0.250495 0.0677563)
(20.0914 -0.358523 0.0926587)
(20.27 -0.389335 0.0992503)
(20.4486 -0.23642 0.0678177)
(20.4936 -0.0043651 0.0213389)
(20.3996 0.145323 -0.0137981)
(20.2716 0.168352 -0.0297099)
(20.1968 0.127011 -0.0328695)
(20.1775 0.0982828 -0.0335437)
(20.1715 0.0898449 -0.035441)
(20.1607 0.0819568 -0.0365552)
(20.152 0.0715377 -0.036234)
(20.1495 0.0640507 -0.0358705)
(20.1491 0.0604794 -0.0362484)
(20.1478 0.058805 -0.0370262)
(20.1458 0.0580163 -0.0378475)
(20.144 0.0579026 -0.038628)
(20.1426 0.0582236 -0.0394062)
(20.1413 0.0585805 -0.0402231)
(20.1399 0.0587216 -0.0410498)
(20.1392 0.0588431 -0.0419324)
(20.1375 0.0589196 -0.0434181)
(19.9997 -0.00137026 0.000805061)
(19.9976 -0.00470975 0.00259243)
(19.9929 -0.00972189 0.00489508)
(19.9848 -0.0182125 0.00825305)
(19.9724 -0.0332815 0.0134878)
(19.9548 -0.0604682 0.0223245)
(19.933 -0.110145 0.0375401)
(19.9153 -0.197385 0.0627468)
(19.9255 -0.339893 0.101909)
(20.0387 -0.536796 0.154227)
(20.318 -0.601747 0.170747)
(20.5966 -0.33877 0.107055)
(20.6347 0.0327681 0.0278819)
(20.4581 0.257206 -0.0234334)
(20.2593 0.273598 -0.0425658)
(20.1685 0.193173 -0.0442181)
(20.1646 0.141993 -0.0447025)
(20.1675 0.123883 -0.0483624)
(20.1561 0.111024 -0.0514144)
(20.1472 0.100249 -0.0526431)
(20.1465 0.0951689 -0.0536769)
(20.1476 0.0938068 -0.0550963)
(20.147 0.0936093 -0.0565292)
(20.1455 0.0941161 -0.0576732)
(20.1441 0.0954907 -0.0585608)
(20.1428 0.097255 -0.0593317)
(20.1415 0.0986477 -0.0600777)
(20.1402 0.0992278 -0.0607638)
(20.1391 0.099461 -0.0615443)
(20.1395 0.0990674 -0.0629257)
(19.9997 -0.00121367 0.000849462)
(19.9969 -0.00423253 0.00277147)
(19.9906 -0.00886748 0.00530695)
(19.9794 -0.0169536 0.00912556)
(19.9611 -0.0318831 0.0153985)
(19.932 -0.0602626 0.0266501)
(19.889 -0.116916 0.0482219)
(19.8354 -0.227761 0.0873751)
(19.8023 -0.453625 0.157339)
(19.9302 -0.809325 0.270363)
(20.3785 -0.917715 0.316577)
(20.8224 -0.44497 0.18658)
(20.8464 0.0681905 0.0473021)
(20.54 0.381477 -0.035205)
(20.2296 0.35106 -0.0654275)
(20.1153 0.240798 -0.0737326)
(20.1339 0.190027 -0.0789178)
(20.1514 0.163178 -0.0833542)
(20.1453 0.135192 -0.0846998)
(20.1415 0.116082 -0.0848869)
(20.1448 0.109126 -0.0861568)
(20.1474 0.107999 -0.088503)
(20.1472 0.10862 -0.0910007)
(20.1461 0.11104 -0.0932503)
(20.145 0.115369 -0.0951729)
(20.1434 0.120466 -0.0967372)
(20.1413 0.124736 -0.097879)
(20.139 0.12726 -0.0985141)
(20.1374 0.128259 -0.0989916)
(20.138 0.127354 -0.0998438)
(19.9996 -0.000906003 0.000886725)
(19.9963 -0.00326767 0.00290869)
(19.9886 -0.00698338 0.00566721)
(19.9744 -0.0135407 0.0100414)
(19.95 -0.0263787 0.017347)
(19.9079 -0.0515351 0.0310253)
(19.8362 -0.108605 0.0604412)
(19.7205 -0.223682 0.118862)
(19.5776 -0.562766 0.254189)
(19.5962 -1.04329 0.361003)
(20.1606 -1.64615 0.538458)
(21.142 -0.978566 0.368984)
(21.2781 0.131785 0.118237)
(20.8024 0.674745 -0.0252059)
(20.1648 0.544595 -0.178846)
(20.0615 0.273718 -0.192844)
(20.1062 0.229589 -0.210495)
(20.1217 0.2231 -0.2217)
(20.114 0.20107 -0.222191)
(20.117 0.184243 -0.217957)
(20.1264 0.178766 -0.21348)
(20.1315 0.176714 -0.209048)
(20.1325 0.175329 -0.204916)
(20.1328 0.176392 -0.201611)
(20.1327 0.180767 -0.19934)
(20.1309 0.187232 -0.197704)
(20.1277 0.193586 -0.196151)
(20.1237 0.198283 -0.194087)
(20.1207 0.2008 -0.192258)
(20.1202 0.199531 -0.190014)
(19.9996 -0.000487107 0.000915971)
(19.9959 -0.00186298 0.00300468)
(19.9871 -0.00421446 0.00588102)
(19.9705 -0.00849161 0.0106788)
(19.9411 -0.0168142 0.0191157)
(19.8863 -0.0339844 0.0352492)
(19.7858 -0.0743195 0.0706824)
(19.5849 -0.181847 0.158241)
(19.3467 -0.417703 0.265482)
(18.9787 -1.44775 0.701001)
(20.0797 -2.63079 1.37938)
(21.9459 -1.70162 0.663549)
(21.9552 0.297757 -0.106411)
(21.0758 1.17422 -0.242835)
(19.7327 1.20695 -0.520367)
(19.8879 0.594694 -0.565561)
(20.1078 0.396532 -0.582357)
(20.1721 0.33497 -0.586638)
(20.1794 0.300215 -0.582419)
(20.1966 0.28601 -0.57549)
(20.2145 0.286385 -0.566522)
(20.2223 0.289897 -0.554443)
(20.2246 0.293069 -0.539698)
(20.2262 0.297571 -0.524221)
(20.2267 0.304373 -0.508973)
(20.2238 0.312276 -0.493588)
(20.2179 0.319222 -0.477401)
(20.2084 0.322378 -0.459124)
(20.2017 0.325442 -0.442549)
(20.1894 0.307347 -0.414349)
(19.9996 1.27757e-05 0.000928405)
(19.9956 -0.000224133 0.00306326)
(19.9864 -0.000777635 0.00598317)
(19.9686 -0.00201454 0.0107581)
(19.9368 -0.00491623 0.019667)
(19.8738 -0.010878 0.0368767)
(19.7572 -0.0254847 0.0762321)
(19.4717 -0.0655847 0.181357)
(19.0341 -0.232521 0.350739)
(17.7806 -1.179 0.966185)
(19.2139 -5.50921 3.58238)
(16.8546 -1.66606 -3.08037)
(21.7655 1.55384 -3.01227)
(20.064 1.20059 -1.19876)
(10.8321 2.01987 -0.389177)
(12.9533 1.42851 -0.793969)
(14.3497 1.11219 -0.911073)
(15.0936 0.946304 -0.908972)
(15.5815 0.8424 -0.867296)
(15.9986 0.774032 -0.824658)
(16.3605 0.727162 -0.787764)
(16.6689 0.69079 -0.754267)
(16.9404 0.660464 -0.724156)
(17.1859 0.636061 -0.699139)
(17.4062 0.617967 -0.679104)
(17.5987 0.604818 -0.661852)
(17.7649 0.595865 -0.644968)
(17.9055 0.584936 -0.625071)
(18.0228 0.584433 -0.608397)
(18.1443 0.547801 -0.571839)
(19.9996 0.000529466 0.00092471)
(19.9957 0.00150834 0.00305258)
(19.9866 0.00275792 0.00595952)
(19.9689 0.00484423 0.0107137)
(19.9374 0.00911664 0.0195574)
(19.8755 0.0177233 0.0366271)
(19.7604 0.0379959 0.0754526)
(19.4851 0.0957278 0.17826)
(19.0028 0.170447 0.358926)
(16.928 0.562002 1.15487)
(1.12584 1.28102 -2.76018)
(9.81619 -1.11697 1.6086)
(11.0351 -0.376877 1.12615)
(11.7538 -0.0265034 0.83961)
(12.0011 0.159757 0.650126)
(12.1457 0.283176 0.517016)
(12.354 0.362716 0.408218)
(12.6107 0.416341 0.31497)
(12.8908 0.459931 0.236381)
(13.195 0.498968 0.168868)
(13.52 0.535133 0.10663)
(13.8518 0.569456 0.047081)
(14.1753 0.601276 -0.0083415)
(14.4805 0.631064 -0.056544)
(14.7759 0.65172 -0.0960602)
(15.0199 0.671778 -0.125867)
(15.3643 0.671408 -0.157215)
(19.9996 0.00100993 0.00090516)
(19.996 0.00309607 0.00297169)
(19.9875 0.0060922 0.00581222)
(19.9714 0.0111415 0.0105375)
(19.9428 0.0205866 0.0187861)
(19.8906 0.0399759 0.0345045)
(19.7947 0.0839692 0.0685812)
(19.6137 0.202106 0.150431)
(19.2837 0.435204 0.282836)
(18.7113 1.60657 0.849484)
(20.1491 2.82834 1.66412)
(22.9373 2.49427 -1.90797)
(20.2583 -1.43397 -0.520736)
(18.5892 -1.86483 1.33564)
(19.3504 -0.803813 0.513504)
(19.2722 -0.277224 0.607218)
(19.2277 -0.131272 0.695818)
(18.9558 -0.0971406 0.743915)
(18.5092 -0.0693378 0.773753)
(17.9897 -0.0499345 0.785385)
(17.4106 -0.0364601 0.778222)
(16.8036 -0.0192177 0.759196)
(16.186 0.00669044 0.73068)
(15.61 0.0381423 0.69463)
(15.1026 0.0736153 0.652356)
(14.6838 0.112856 0.606311)
(14.3557 0.155722 0.560963)
(14.1324 0.207154 0.516748)
(13.9768 0.236123 0.481241)
(13.9318 0.344374 0.425204)
(19.9997 0.00139253 0.000869048)
(19.9965 0.00440348 0.00285528)