# Force       
# CofR        : (0.000000e+00 0.000000e+00 0.000000e+00)
#
# Time        	total_x total_y total_z	pressure_x pressure_y pressure_z	viscous_x viscous_y viscous_z
1              1.940564e+03 6.394516e-02 -6.478982e+00 1.939545e+03 6.393737e-02 -6.477169e+00 1.018417e+00 7.794924e-06 -1.812360e-03
2              6.748646e+02 4.103601e+00 -1.143211e+01 6.829160e+02 4.097066e+00 -1.144061e+01 -8.051360e+00 6.534900e-03 8.504644e-03
3              -1.581239e+04 -1.018608e+03 -2.271816e+02 -1.580333e+04 -1.019719e+03 -2.279213e+02 -9.067258e+00 1.110564e+00 7.397081e-01
4              2.717709e+06 -2.999613e+04 -1.938594e+04 2.717711e+06 -2.999715e+04 -1.938529e+04 -1.768235e+00 1.018347e+00 -6.483607e-01
5              1.312413e+07 2.105968e+04 -7.387113e+04 1.312412e+07 2.105750e+04 -7.386991e+04 9.054361e+00 2.179336e+00 -1.222218e+00
6              6.326104e+06 8.598416e+04 -1.053161e+05 6.326107e+06 8.598380e+04 -1.053114e+05 -2.414921e+00 3.589694e-01 -4.692716e+00
7              -5.484036e+06 1.465274e+05 -5.122448e+04 -5.484018e+06 1.465303e+05 -5.121695e+04 -1.878615e+01 -2.937231e+00 -7.530943e+00
8              -8.843096e+06 1.474325e+05 3.142646e+04 -8.843067e+06 1.474383e+05 3.143418e+04 -2.903020e+01 -5.840084e+00 -7.726075e+00
9              -2.395796e+06 9.823214e+04 8.576269e+04 -2.395770e+06 9.823999e+04 8.577029e+04 -2.609970e+01 -7.854501e+00 -7.607308e+00
10             3.666226e+06 7.139524e+04 9.464886e+04 3.666239e+06 7.140394e+04 9.465568e+04 -1.264359e+01 -8.699428e+00 -6.816902e+00
11             3.615365e+06 8.920119e+04 7.507996e+04 3.615371e+06 8.920916e+04 7.508623e+04 -5.941648e+00 -7.962601e+00 -6.275120e+00
12             1.316146e+05 1.258464e+05 4.716410e+04 1.316246e+05 1.258543e+05 4.716956e+04 -9.958327e+00 -7.956273e+00 -5.455820e+00
13             -2.329503e+06 1.195683e+05 2.665197e+04 -2.329483e+06 1.195773e+05 2.665934e+04 -2.049757e+01 -8.902332e+00 -7.364184e+00
14             -2.132127e+06 5.533449e+04 -1.288244e+04 -2.132094e+06 5.534301e+04 -1.287467e+04 -3.283947e+01 -8.520288e+00 -7.766822e+00
15             -4.126645e+05 -1.888717e+04 -3.291928e+04 -4.126278e+05 -1.887908e+04 -3.291545e+04 -3.671550e+01 -8.097816e+00 -3.824333e+00
16             6.994269e+05 -6.079319e+04 -2.311834e+04 6.994601e+05 -6.078605e+04 -2.311903e+04 -3.321039e+01 -7.136269e+00 6.825052e-01
17             6.518894e+05 -5.711027e+04 -3.185477e+03 6.519185e+05 -5.710455e+04 -3.187946e+03 -2.908783e+01 -5.719667e+00 2.469366e+00
18             5.844657e+04 -2.146137e+04 1.523112e+04 5.847577e+04 -2.145672e+04 1.523158e+04 -2.920831e+01 -4.651456e+00 -4.641311e-01
19             -3.852905e+05 1.695921e+04 2.862108e+04 -3.852578e+05 1.696399e+04 2.862784e+04 -3.268424e+01 -4.783821e+00 -6.754623e+00
20             -4.199242e+05 2.650712e+04 3.191214e+04 -4.198804e+05 2.651381e+04 3.192753e+04 -4.384197e+01 -6.689088e+00 -1.538972e+01
21             -1.773302e+05 1.736153e+04 3.002412e+04 -1.772782e+05 1.736758e+04 3.004482e+04 -5.194178e+01 -6.045813e+00 -2.069238e+01
22             5.855395e+04 8.196963e+02 2.418097e+04 5.860531e+04 8.229064e+02 2.420172e+04 -5.135574e+01 -3.210163e+00 -2.074925e+01
23             1.091521e+05 -1.083387e+04 1.770173e+04 1.091970e+05 -1.084067e+04 1.771166e+04 -4.489940e+01 6.805299e+00 -9.923096e+00
24             2.411916e+04 -1.249204e+04 9.495404e+03 2.415322e+04 -1.251378e+04 9.496080e+03 -3.405532e+01 2.174845e+01 -6.763248e-01
25             -7.075695e+04 -4.742599e+03 -1.229384e+03 -7.073377e+04 -4.772214e+03 -1.222738e+03 -2.318121e+01 2.961423e+01 -6.645514e+00
26             -9.287137e+04 4.916162e+03 -1.020606e+04 -9.285117e+04 4.897279e+03 -1.018553e+04 -2.020229e+01 1.888264e+01 -2.052822e+01
27             -5.368101e+04 1.077370e+04 -1.437548e+04 -5.365778e+04 1.077145e+04 -1.435196e+04 -2.323496e+01 2.253991e+00 -2.352101e+01
28             -6.603314e+03 1.399876e+04 -1.386436e+04 -6.582645e+03 1.400578e+04 -1.384422e+04 -2.066821e+01 -7.024760e+00 -2.014437e+01
29             7.914357e+03 1.537196e+04 -1.053413e+04 7.928439e+03 1.537688e+04 -1.051627e+04 -1.408102e+01 -4.922801e+00 -1.786744e+01
30             -6.257134e+03 1.472358e+04 -6.917084e+03 -6.246621e+03 1.472254e+04 -6.899341e+03 -1.051263e+01 1.042160e+00 -1.774246e+01
31             -2.281565e+04 1.270563e+04 -4.495106e+03 -2.280709e+04 1.270352e+04 -4.478692e+03 -8.551319e+00 2.109332e+00 -1.641380e+01
32             -2.527331e+04 9.823575e+03 -3.307164e+03 -2.527195e+04 9.824046e+03 -3.297700e+03 -1.362923e+00 -4.715659e-01 -9.464345e+00
33             -1.383913e+04 6.879034e+03 -2.435097e+03 -1.384554e+04 6.880959e+03 -2.435616e+03 6.405432e+00 -1.924187e+00 5.184642e-01
34             -1.387098e+03 4.932208e+03 -1.523181e+03 -1.394628e+03 4.932406e+03 -1.533060e+03 7.530246e+00 -1.978083e-01 9.878858e+00
35             2.758252e+03 4.135833e+03 -7.683430e+02 2.758881e+03 4.133333e+03 -7.845200e+02 -6.289210e-01 2.499656e+00 1.617703e+01
36             -1.866798e+03 3.716920e+03 -4.804990e+02 -1.855001e+03 3.708914e+03 -4.978701e+02 -1.179718e+01 8.005431e+00 1.737101e+01
37             -9.067228e+03 2.934459e+03 -8.060371e+02 -9.042875e+03 2.927217e+03 -8.229044e+02 -2.435343e+01 7.241728e+00 1.686729e+01
38             -1.211867e+04 1.783030e+03 -1.390836e+03 -1.208848e+04 1.777700e+03 -1.409762e+03 -3.019173e+01 5.329483e+00 1.892627e+01
39             -1.023702e+04 1.279231e+03 -1.636974e+03 -1.020928e+04 1.276165e+03 -1.658616e+03 -2.773688e+01 3.065169e+00 2.164175e+01
40             -6.206032e+03 1.987191e+03 -1.410573e+03 -6.181750e+03 1.985110e+03 -1.434080e+03 -2.428184e+01 2.080668e+00 2.350692e+01
41             -2.636439e+03 3.564035e+03 -9.533736e+02 -2.612880e+03 3.559868e+03 -9.773242e+02 -2.355910e+01 4.167391e+00 2.395060e+01
42             -6.826447e+02 4.940209e+03 -6.133579e+02 -6.565371e+02 4.933933e+03 -6.366326e+02 -2.610769e+01 6.276424e+00 2.327469e+01
43             -5.508715e+02 5.142186e+03 -6.178336e+02 -5.208235e+02 5.135100e+03 -6.399015e+02 -3.004800e+01 7.085891e+00 2.206791e+01
44             -1.444932e+03 4.176009e+03 -9.000981e+02 -1.413101e+03 4.168872e+03 -9.214148e+02 -3.183152e+01 7.137435e+00 2.131673e+01
45             -2.396475e+03 2.826851e+03 -1.270884e+03 -2.365312e+03 2.820738e+03 -1.291083e+03 -3.116283e+01 6.112426e+00 2.019943e+01
46             -3.088909e+03 1.508884e+03 -1.608546e+03 -3.059490e+03 1.504432e+03 -1.627379e+03 -2.941982e+01 4.451564e+00 1.883299e+01
47             -3.211418e+03 4.679356e+02 -1.740933e+03 -3.183672e+03 4.653779e+02 -1.758287e+03 -2.774622e+01 2.557711e+00 1.735367e+01
48             -2.514794e+03 2.891546e+02 -1.402544e+03 -2.488064e+03 2.882006e+02 -1.418459e+03 -2.673063e+01 9.539743e-01 1.591523e+01
49             -1.717028e+03 3.848921e+02 -1.096185e+03 -1.691882e+03 3.852993e+02 -1.111090e+03 -2.514622e+01 -4.072641e-01 1.490471e+01
50             -1.006614e+03 2.037483e+02 -9.716647e+02 -9.834028e+02 2.050214e+02 -9.858151e+02 -2.321111e+01 -1.273131e+00 1.415040e+01
51             -4.664028e+02 -3.248718e+02 -1.044968e+03 -4.445818e+02 -3.231938e+02 -1.058588e+03 -2.182102e+01 -1.678014e+00 1.362014e+01
52             -2.144332e+02 -1.031185e+03 -1.259440e+03 -1.932949e+02 -1.029237e+03 -1.272689e+03 -2.113826e+01 -1.947858e+00 1.324880e+01
53             -2.643971e+02 -1.582104e+03 -1.388289e+03 -2.436903e+02 -1.579761e+03 -1.401298e+03 -2.070681e+01 -2.343751e+00 1.300982e+01
54             -4.124747e+02 -1.858106e+03 -1.297812e+03 -3.926938e+02 -1.855028e+03 -1.310578e+03 -1.978086e+01 -3.077770e+00 1.276677e+01
55             -5.016464e+02 -2.020095e+03 -9.789479e+02 -4.834932e+02 -2.016049e+03 -9.914533e+02 -1.815316e+01 -4.045943e+00 1.250539e+01
56             -4.595871e+02 -2.198798e+03 -3.476269e+02 -4.436548e+02 -2.193779e+03 -3.599715e+02 -1.593234e+01 -5.019776e+00 1.234465e+01
57             -2.382150e+02 -2.246099e+03 7.004756e+01 -2.247317e+02 -2.240337e+03 5.770787e+01 -1.348335e+01 -5.761967e+00 1.233969e+01
58             -6.968091e+01 -2.270460e+03 1.411013e+02 -5.848373e+01 -2.264363e+03 1.286631e+02 -1.119718e+01 -6.097574e+00 1.243814e+01
59             -3.989391e+00 -2.328625e+03 1.456590e+02 5.314608e+00 -2.322517e+03 1.330788e+02 -9.303998e+00 -6.108018e+00 1.258022e+01
60             -1.436083e+01 -2.429426e+03 1.815896e+02 -6.581212e+00 -2.423416e+03 1.688896e+02 -7.779622e+00 -6.009655e+00 1.269993e+01
61             -8.342983e+01 -2.566862e+03 3.212390e+02 -7.695949e+01 -2.560894e+03 3.085047e+02 -6.470340e+00 -5.967697e+00 1.273424e+01
62             -1.472347e+02 -2.652698e+03 5.150318e+02 -1.419616e+02 -2.646664e+03 5.023881e+02 -5.273104e+00 -6.033642e+00 1.264364e+01
63             -1.733225e+02 -2.671115e+03 6.968124e+02 -1.691757e+02 -2.664954e+03 6.843612e+02 -4.146830e+00 -6.161645e+00 1.245116e+01
64             -1.465489e+02 -2.594830e+03 8.530526e+02 -1.434629e+02 -2.588543e+03 8.408717e+02 -3.086028e+00 -6.286433e+00 1.218094e+01
65             -5.882545e+01 -2.432340e+03 8.332377e+02 -5.675757e+01 -2.426016e+03 8.213821e+02 -2.067877e+00 -6.324366e+00 1.185559e+01
66             -2.723218e+00 -2.337691e+03 7.455701e+02 -1.651715e+00 -2.331410e+03 7.340813e+02 -1.071503e+00 -6.280836e+00 1.148883e+01
67             2.154583e+01 -2.293026e+03 6.880693e+02 2.166639e+01 -2.286811e+03 6.769461e+02 -1.205620e-01 -6.214916e+00 1.112324e+01
68             3.843771e+01 -2.247699e+03 6.568923e+02 3.766860e+01 -2.241526e+03 6.461265e+02 7.691117e-01 -6.172872e+00 1.076573e+01
69             4.539587e+01 -2.182691e+03 6.557345e+02 4.380840e+01 -2.176538e+03 6.453413e+02 1.587473e+00 -6.152954e+00 1.039322e+01
70             4.561030e+01 -2.099822e+03 6.650998e+02 4.328243e+01 -2.093684e+03 6.551036e+02 2.327868e+00 -6.137724e+00 9.996238e+00
71             4.948138e+01 -2.002596e+03 6.593843e+02 4.648800e+01 -1.996480e+03 6.497862e+02 2.993387e+00 -6.115926e+00 9.598071e+00
72             7.563263e+01 -1.863880e+03 6.174841e+02 7.204027e+01 -1.857790e+03 6.082533e+02 3.592358e+00 -6.089474e+00 9.230747e+00
73             1.396839e+02 -1.722142e+03 5.376242e+02 1.355410e+02 -1.716078e+03 5.287142e+02 4.142986e+00 -6.064163e+00 8.910035e+00
74             1.910962e+02 -1.676612e+03 4.871119e+02 1.864554e+02 -1.670548e+03 4.784807e+02 4.640716e+00 -6.063571e+00 8.631169e+00
75             2.103544e+02 -1.671495e+03 4.760035e+02 2.052991e+02 -1.665389e+03 4.676141e+02 5.055252e+00 -6.105987e+00 8.389446e+00
76             2.289250e+02 -1.646400e+03 4.650314e+02 2.235439e+02 -1.640220e+03 4.568608e+02 5.381183e+00 -6.179223e+00 8.170640e+00
77             2.500505e+02 -1.577803e+03 4.401490e+02 2.444122e+02 -1.571544e+03 4.321935e+02 5.638299e+00 -6.259185e+00 7.955499e+00
78             2.688645e+02 -1.479625e+03 4.036624e+02 2.630167e+02 -1.473296e+03 3.959269e+02 5.847774e+00 -6.329575e+00 7.735523e+00
79             2.808133e+02 -1.391300e+03 3.692284e+02 2.747933e+02 -1.384913e+03 3.617139e+02 6.019996e+00 -6.387042e+00 7.514467e+00
80             2.868912e+02 -1.329996e+03 3.424979e+02 2.807341e+02 -1.323561e+03 3.351995e+02 6.157028e+00 -6.435794e+00 7.298359e+00
81             2.905678e+02 -1.287468e+03 3.193149e+02 2.843066e+02 -1.280990e+03 3.122255e+02 6.261242e+00 -6.477807e+00 7.089462e+00
82             2.946820e+02 -1.251307e+03 2.934009e+02 2.883433e+02 -1.244793e+03 2.865180e+02 6.338706e+00 -6.514621e+00 6.882988e+00
83             2.983662e+02 -1.216456e+03 2.662279e+02 2.919698e+02 -1.209912e+03 2.595533e+02 6.396463e+00 -6.544510e+00 6.674558e+00
84             2.984903e+02 -1.183745e+03 2.456533e+02 2.920544e+02 -1.177179e+03 2.391861e+02 6.435931e+00 -6.566563e+00 6.467151e+00
85             2.961633e+02 -1.149551e+03 2.282835e+02 2.897077e+02 -1.142972e+03 2.220174e+02 6.455572e+00 -6.579751e+00 6.266119e+00
86             2.928606e+02 -1.106833e+03 2.064190e+02 2.864028e+02 -1.100251e+03 2.003490e+02 6.457771e+00 -6.581482e+00 6.070078e+00
87             2.894763e+02 -1.056314e+03 1.782450e+02 2.830291e+02 -1.049742e+03 1.723729e+02 6.447292e+00 -6.572593e+00 5.872085e+00
88             2.865073e+02 -1.007010e+03 1.480799e+02 2.800793e+02 -1.000454e+03 1.424133e+02 6.428036e+00 -6.555148e+00 5.666551e+00
89             2.836896e+02 -9.728922e+02 1.259520e+02 2.772888e+02 -9.663588e+02 1.204972e+02 6.400783e+00 -6.533401e+00 5.454803e+00
90             2.809505e+02 -9.535014e+02 1.136702e+02 2.745859e+02 -9.469899e+02 1.084263e+02 6.364648e+00 -6.511416e+00 5.243870e+00
91             2.782590e+02 -9.348953e+02 1.032542e+02 2.719385e+02 -9.284045e+02 9.821582e+01 6.320553e+00 -6.490786e+00 5.038373e+00
92             2.759081e+02 -9.081111e+02 8.894604e+01 2.696361e+02 -9.016403e+02 8.410839e+01 6.272043e+00 -6.470842e+00 4.837651e+00
93             2.746521e+02 -8.723809e+02 6.938537e+01 2.684280e+02 -8.659302e+02 6.474643e+01 6.224076e+00 -6.450683e+00 4.638939e+00
94             2.747426e+02 -8.353018e+02 4.878375e+01 2.685620e+02 -8.288728e+02 4.434305e+01 6.180572e+00 -6.429014e+00 4.440706e+00
95             2.754255e+02 -8.056081e+02 3.304135e+01 2.692828e+02 -7.992030e+02 2.879693e+01 6.142740e+00 -6.405101e+00 4.244420e+00
96             2.759511e+02 -7.834677e+02 2.268127e+01 2.698415e+02 -7.770895e+02 1.862839e+01 6.109596e+00 -6.378158e+00 4.052883e+00
97             2.760580e+02 -7.635968e+02 1.462569e+01 2.699785e+02 -7.572491e+02 1.075794e+01 6.079420e+00 -6.347731e+00 3.867746e+00
98             2.755769e+02 -7.413740e+02 6.276101e+00 2.695253e+02 -7.350606e+02 2.587734e+00 6.051527e+00 -6.313478e+00 3.688367e+00
99             2.743049e+02 -7.169736e+02 -2.505534e+00 2.682791e+02 -7.106976e+02 -6.019246e+00 6.025794e+00 -6.275915e+00 3.513712e+00
100            2.727203e+02 -6.961826e+02 -9.586633e+00 2.667187e+02 -6.899464e+02 -1.293058e+01 6.001602e+00 -6.236116e+00 3.343949e+00
101            2.713991e+02 -6.797124e+02 -1.485162e+01 2.654212e+02 -6.735177e+02 -1.803169e+01 5.977902e+00 -6.194732e+00 3.180072e+00
102            2.701140e+02 -6.624930e+02 -2.000457e+01 2.641597e+02 -6.563417e+02 -2.302666e+01 5.954295e+00 -6.151247e+00 3.022094e+00
103            2.686983e+02 -6.424865e+02 -2.564711e+01 2.627675e+02 -6.363816e+02 -2.851615e+01 5.930856e+00 -6.104804e+00 2.869044e+00
104            2.671337e+02 -6.218625e+02 -3.106890e+01 2.612259e+02 -6.158068e+02 -3.378923e+01 5.907812e+00 -6.055700e+00 2.720334e+00
105            2.653640e+02 -6.038678e+02 -3.518445e+01 2.594792e+02 -5.978629e+02 -3.776075e+01 5.884781e+00 -6.004871e+00 2.576298e+00
106            2.632766e+02 -5.894085e+02 -3.758266e+01 2.574159e+02 -5.834548e+02 -4.002052e+01 5.860657e+00 -5.953687e+00 2.437867e+00
107            2.607162e+02 -5.768480e+02 -3.853034e+01 2.548820e+02 -5.709452e+02 -4.083592e+01 5.834258e+00 -5.902787e+00 2.305576e+00
108            2.574292e+02 -5.638083e+02 -3.834261e+01 2.516242e+02 -5.579563e+02 -4.052191e+01 5.804952e+00 -5.851930e+00 2.179302e+00
109            2.535679e+02 -5.506025e+02 -3.767774e+01 2.477953e+02 -5.448014e+02 -3.973634e+01 5.772588e+00 -5.801102e+00 2.058599e+00
110            2.499230e+02 -5.392287e+02 -3.739889e+01 2.441856e+02 -5.334781e+02 -3.934189e+01 5.737435e+00 -5.750568e+00 1.942995e+00
111            2.467582e+02 -5.293031e+02 -3.740089e+01 2.410584e+02 -5.236028e+02 -3.923296e+01 5.699764e+00 -5.700302e+00 1.832072e+00
112            2.436061e+02 -5.184668e+02 -3.710631e+01 2.379463e+02 -5.128171e+02 -3.883195e+01 5.659757e+00 -5.649683e+00 1.725645e+00
113            2.403504e+02 -5.060233e+02 -3.618063e+01 2.347329e+02 -5.004252e+02 -3.780422e+01 5.617486e+00 -5.598177e+00 1.623592e+00
114            2.372397e+02 -4.933108e+02 -3.468420e+01 2.316666e+02 -4.877652e+02 -3.621005e+01 5.573094e+00 -5.545655e+00 1.525852e+00
115            2.344123e+02 -4.817256e+02 -3.285399e+01 2.288855e+02 -4.762333e+02 -3.428633e+01 5.526808e+00 -5.492300e+00 1.432336e+00
116            2.317031e+02 -4.714301e+02 -3.088115e+01 2.262243e+02 -4.659916e+02 -3.222396e+01 5.478742e+00 -5.438450e+00 1.342814e+00
117            2.288747e+02 -4.619516e+02 -2.903550e+01 2.234457e+02 -4.565674e+02 -3.029249e+01 5.428997e+00 -5.384227e+00 1.256986e+00
118            2.260110e+02 -4.529962e+02 -2.764442e+01 2.206332e+02 -4.476666e+02 -2.881891e+01 5.377824e+00 -5.329521e+00 1.174494e+00
119            2.232471e+02 -4.439436e+02 -2.657111e+01 2.179215e+02 -4.386695e+02 -2.766614e+01 5.325604e+00 -5.274078e+00 1.095028e+00
120            2.204908e+02 -4.339645e+02 -2.544552e+01 2.152183e+02 -4.287470e+02 -2.646394e+01 5.272533e+00 -5.217519e+00 1.018417e+00
121            2.177301e+02 -4.230748e+02 -2.410635e+01 2.125113e+02 -4.179152e+02 -2.505093e+01 5.218724e+00 -5.159643e+00 9.445794e-01
122            2.150597e+02 -4.121635e+02 -2.263509e+01 2.098954e+02 -4.070630e+02 -2.350854e+01 5.164308e+00 -5.100506e+00 8.734455e-01
123            2.125173e+02 -4.020455e+02 -2.119352e+01 2.074079e+02 -3.970052e+02 -2.199851e+01 5.109397e+00 -5.040353e+00 8.049847e-01
124            2.100255e+02 -3.928451e+02 -1.990231e+01 2.049713e+02 -3.878657e+02 -2.064144e+01 5.054169e+00 -4.979396e+00 7.391343e-01
125            2.074985e+02 -3.841589e+02 -1.879605e+01 2.024997e+02 -3.792412e+02 -1.947187e+01 4.998818e+00 -4.917757e+00 6.758241e-01
126            2.049302e+02 -3.754862e+02 -1.783084e+01 1.999867e+02 -3.706308e+02 -1.844579e+01 4.943472e+00 -4.855415e+00 6.149564e-01
127            2.023326e+02 -3.664516e+02 -1.691951e+01 1.974444e+02 -3.616594e+02 -1.747593e+01 4.888264e+00 -4.792254e+00 5.564255e-01
128            1.997273e+02 -3.570239e+02 -1.600348e+01 1.948940e+02 -3.522958e+02 -1.650365e+01 4.833306e+00 -4.728168e+00 5.001669e-01
129            1.971325e+02 -3.474588e+02 -1.506903e+01 1.923539e+02 -3.427958e+02 -1.551518e+01 4.778615e+00 -4.663041e+00 4.461498e-01
130            1.946047e+02 -3.382074e+02 -1.415253e+01 1.898805e+02 -3.336105e+02 -1.454687e+01 4.724166e+00 -4.596904e+00 3.943402e-01
131            1.921484e+02 -3.294428e+02 -1.327640e+01 1.874784e+02 -3.249130e+02 -1.362115e+01 4.669993e+00 -4.529850e+00 3.447417e-01
132            1.897108e+02 -3.209906e+02 -1.243791e+01 1.850946e+02 -3.165287e+02 -1.273526e+01 4.616142e+00 -4.461881e+00 2.973442e-01
133            1.872857e+02 -3.126855e+02 -1.165406e+01 1.827230e+02 -3.082924e+02 -1.190613e+01 4.562663e+00 -4.393121e+00 2.520724e-01
134            1.848690e+02 -3.043614e+02 -1.093079e+01 1.803594e+02 -3.000377e+02 -1.113965e+01 4.509663e+00 -4.323698e+00 2.088623e-01
135            1.824369e+02 -2.958875e+02 -1.025105e+01 1.779798e+02 -2.916338e+02 -1.041873e+01 4.457189e+00 -4.253672e+00 1.676713e-01
136            1.800306e+02 -2.874128e+02 -9.619924e+00 1.756253e+02 -2.832297e+02 -9.748379e+00 4.405308e+00 -4.183119e+00 1.284551e-01
137            1.776912e+02 -2.791281e+02 -9.033720e+00 1.733371e+02 -2.750159e+02 -9.124914e+00 4.354067e+00 -4.112164e+00 9.119439e-02
138            1.754235e+02 -2.710832e+02 -8.479781e+00 1.711200e+02 -2.670423e+02 -8.535667e+00 4.303502e+00 -4.040941e+00 5.588619e-02
139            1.731959e+02 -2.631825e+02 -7.944303e+00 1.689422e+02 -2.592130e+02 -7.966794e+00 4.253635e+00 -3.969532e+00 2.249124e-02
140            1.709768e+02 -2.553203e+02 -7.427734e+00 1.667723e+02 -2.514223e+02 -7.418697e+00 4.204499e+00 -3.898034e+00 -9.036539e-03
141            1.687615e+02 -2.474829e+02 -6.941888e+00 1.646054e+02 -2.436565e+02 -6.903124e+00 4.156109e+00 -3.826492e+00 -3.876418e-02
142            1.665700e+02 -2.397411e+02 -6.500313e+00 1.624616e+02 -2.359861e+02 -6.433559e+00 4.108470e+00 -3.754994e+00 -6.675393e-02
143            1.644212e+02 -2.321640e+02 -6.107521e+00 1.603596e+02 -2.284804e+02 -6.014472e+00 4.061595e+00 -3.683670e+00 -9.304942e-02
144            1.623178e+02 -2.247639e+02 -5.757419e+00 1.583023e+02 -2.211513e+02 -5.639724e+00 4.015510e+00 -3.612613e+00 -1.176954e-01
145            1.602459e+02 -2.175041e+02 -5.438554e+00 1.562757e+02 -2.139623e+02 -5.297794e+00 3.970210e+00 -3.541888e+00 -1.407599e-01
146            1.581880e+02 -2.103495e+02 -5.141547e+00 1.542623e+02 -2.068779e+02 -4.979245e+00 3.925710e+00 -3.471538e+00 -1.623018e-01
147            1.561327e+02 -2.033014e+02 -4.864969e+00 1.522507e+02 -1.998998e+02 -4.682587e+00 3.882045e+00 -3.401614e+00 -1.823820e-01
148            1.540830e+02 -1.963929e+02 -4.615749e+00 1.502438e+02 -1.930607e+02 -4.414689e+00 3.839185e+00 -3.332195e+00 -2.010597e-01
149            1.520466e+02 -1.896564e+02 -4.400520e+00 1.482495e+02 -1.863931e+02 -4.182128e+00 3.797126e+00 -3.263339e+00 -2.183916e-01
150            1.500280e+02 -1.831007e+02 -4.219006e+00 1.462721e+02 -1.799056e+02 -3.984565e+00 3.755858e+00 -3.195098e+00 -2.344409e-01
151            1.480259e+02 -1.767121e+02 -4.065739e+00 1.443105e+02 -1.735846e+02 -3.816466e+00 3.715385e+00 -3.127509e+00 -2.492729e-01
152            1.460330e+02 -1.704705e+02 -3.935621e+00 1.423573e+02 -1.674099e+02 -3.672684e+00 3.675710e+00 -3.060617e+00 -2.629369e-01
153            1.440403e+02 -1.643679e+02 -3.825520e+00 1.404035e+02 -1.613734e+02 -3.550048e+00 3.636813e+00 -2.994460e+00 -2.754719e-01
154            1.420484e+02 -1.584154e+02 -3.736940e+00 1.384497e+02 -1.554863e+02 -3.450018e+00 3.598667e+00 -2.929076e+00 -2.869219e-01
155            1.400663e+02 -1.526285e+02 -3.673417e+00 1.365051e+02 -1.497640e+02 -3.376080e+00 3.561233e+00 -2.864502e+00 -2.973364e-01
156            1.381000e+02 -1.470133e+02 -3.635949e+00 1.345756e+02 -1.442125e+02 -3.329174e+00 3.524464e+00 -2.800770e+00 -3.067746e-01
157            1.361475e+02 -1.415644e+02 -3.619569e+00 1.326591e+02 -1.388265e+02 -3.304276e+00 3.488327e+00 -2.737902e+00 -3.152931e-01
158            1.342041e+02 -1.362730e+02 -3.619212e+00 1.307513e+02 -1.335971e+02 -3.296266e+00 3.452794e+00 -2.675911e+00 -3.229459e-01
159            1.322661e+02 -1.311347e+02 -3.633397e+00 1.288483e+02 -1.285199e+02 -3.303609e+00 3.417838e+00 -2.614808e+00 -3.297881e-01
160            1.303333e+02 -1.261501e+02 -3.661927e+00 1.269499e+02 -1.235955e+02 -3.326064e+00 3.383422e+00 -2.554610e+00 -3.358624e-01
161            1.284082e+02 -1.213215e+02 -3.705835e+00 1.250587e+02 -1.188262e+02 -3.364626e+00 3.349523e+00 -2.495331e+00 -3.412084e-01
162            1.264918e+02 -1.166485e+02 -3.764550e+00 1.231757e+02 -1.142115e+02 -3.418686e+00 3.316110e+00 -2.436983e+00 -3.458641e-01
163            1.245847e+02 -1.121282e+02 -3.834952e+00 1.213016e+02 -1.097486e+02 -3.485087e+00 3.283161e+00 -2.379575e+00 -3.498655e-01
164            1.226864e+02 -1.077558e+02 -3.913869e+00 1.194358e+02 -1.054327e+02 -3.560625e+00 3.250639e+00 -2.323107e+00 -3.532434e-01
165            1.207964e+02 -1.035266e+02 -4.000472e+00 1.175778e+02 -1.012590e+02 -3.644447e+00 3.218515e+00 -2.267581e+00 -3.560252e-01
166            1.189140e+02 -9.943723e+01 -4.094168e+00 1.157272e+02 -9.722423e+01 -3.735931e+00 3.186771e+00 -2.212998e+00 -3.582368e-01
167            1.170409e+02 -9.548618e+01 -4.193614e+00 1.138855e+02 -9.332683e+01 -3.833710e+00 3.155389e+00 -2.159352e+00 -3.599038e-01
168            1.151797e+02 -9.167236e+01 -4.297588e+00 1.120554e+02 -8.956570e+01 -3.936524e+00 3.124349e+00 -2.106662e+00 -3.610643e-01
169            1.133313e+02 -8.799339e+01 -4.405798e+00 1.102377e+02 -8.593846e+01 -4.044041e+00 3.093614e+00 -2.054921e+00 -3.617572e-01
170            1.114942e+02 -8.444476e+01 -4.518564e+00 1.084311e+02 -8.244064e+01 -4.156549e+00 3.063130e+00 -2.004119e+00 -3.620153e-01
171            1.096672e+02 -8.102120e+01 -4.635384e+00 1.066343e+02 -7.906695e+01 -4.273519e+00 3.032850e+00 -1.954245e+00 -3.618649e-01
172            1.078522e+02 -7.771763e+01 -4.755491e+00 1.048494e+02 -7.581234e+01 -4.394177e+00 3.002731e+00 -1.905286e+00 -3.613138e-01
173            1.060530e+02 -7.453144e+01 -4.877929e+00 1.030802e+02 -7.267422e+01 -4.517558e+00 2.972750e+00 -1.857226e+00 -3.603715e-01
174            1.042718e+02 -7.146198e+01 -5.002372e+00 1.013289e+02 -6.965192e+01 -4.643321e+00 2.942901e+00 -1.810062e+00 -3.590512e-01
175            1.025103e+02 -6.850848e+01 -5.128287e+00 9.959708e+01 -6.674470e+01 -4.770921e+00 2.913189e+00 -1.763780e+00 -3.573660e-01
176            1.007675e+02 -6.566842e+01 -5.255187e+00 9.788394e+01 -6.395006e+01 -4.899854e+00 2.883588e+00 -1.718365e+00 -3.553334e-01
177            9.904041e+01 -6.293782e+01 -5.382413e+00 9.618633e+01 -6.126402e+01 -5.029444e+00 2.854078e+00 -1.673807e+00 -3.529687e-01
178            9.732778e+01 -6.031179e+01 -5.510054e+00 9.450314e+01 -5.868169e+01 -5.159768e+00 2.824637e+00 -1.630100e+00 -3.502861e-01
179            9.563087e+01 -5.778650e+01 -5.638563e+00 9.283562e+01 -5.619929e+01 -5.291264e+00 2.795242e+00 -1.587218e+00 -3.472986e-01
180            9.395207e+01 -5.535964e+01 -5.768261e+00 9.118619e+01 -5.381450e+01 -5.424234e+00 2.765879e+00 -1.545150e+00 -3.440266e-01
181            9.229262e+01 -5.302922e+01 -5.898898e+00 8.955609e+01 -5.152534e+01 -5.558420e+00 2.736531e+00 -1.503882e+00 -3.404776e-01
182            9.065040e+01 -5.079219e+01 -6.028847e+00 8.794322e+01 -4.932879e+01 -5.692167e+00 2.707180e+00 -1.463401e+00 -3.366796e-01
183            8.902128e+01 -4.864515e+01 -6.156719e+00 8.634347e+01 -4.722144e+01 -5.824074e+00 2.677809e+00 -1.423707e+00 -3.326450e-01
184            8.740468e+01 -4.658468e+01 -6.282483e+00 8.475627e+01 -4.519990e+01 -5.954082e+00 2.648415e+00 -1.384789e+00 -3.284012e-01
185            8.580401e+01 -4.460684e+01 -6.406934e+00 8.318503e+01 -4.326021e+01 -6.082956e+00 2.618982e+00 -1.346628e+00 -3.239776e-01
186            8.422298e+01 -4.270841e+01 -6.530759e+00 8.163349e+01 -4.139919e+01 -6.211360e+00 2.589490e+00 -1.309221e+00 -3.193983e-01
187            8.266142e+01 -4.088785e+01 -6.653804e+00 8.010150e+01 -3.961529e+01 -6.339130e+00 2.559922e+00 -1.272563e+00 -3.146741e-01
188            8.111789e+01 -3.914480e+01 -6.774733e+00 7.858760e+01 -3.790816e+01 -6.464940e+00 2.530292e+00 -1.236642e+00 -3.097928e-01
189            7.959102e+01 -3.747942e+01 -6.891883e+00 7.709048e+01 -3.627796e+01 -6.587102e+00 2.500540e+00 -1.201454e+00 -3.047818e-01
190            7.808229e+01 -3.589027e+01 -7.003052e+00 7.561161e+01 -3.472329e+01 -6.703435e+00 2.470688e+00 -1.166988e+00 -2.996171e-01
191            7.659341e+01 -3.437395e+01 -7.107383e+00 7.415274e+01 -3.324071e+01 -6.813071e+00 2.440677e+00 -1.133238e+00 -2.943118e-01
192            7.512513e+01 -3.292663e+01 -7.205221e+00 7.271461e+01 -3.182645e+01 -6.916361e+00 2.410515e+00 -1.100187e+00 -2.888602e-01
193            7.367696e+01 -3.154516e+01 -7.296955e+00 7.129679e+01 -3.047733e+01 -7.013673e+00 2.380160e+00 -1.067825e+00 -2.832820e-01
194            7.224659e+01 -3.022789e+01 -7.381634e+00 6.989699e+01 -2.919175e+01 -7.104063e+00 2.349602e+00 -1.036148e+00 -2.775704e-01
195            7.083243e+01 -2.897307e+01 -7.457973e+00 6.851362e+01 -2.796792e+01 -7.186223e+00 2.318802e+00 -1.005148e+00 -2.717498e-01
196            6.943333e+01 -2.777868e+01 -7.523866e+00 6.714558e+01 -2.680386e+01 -7.258048e+00 2.287753e+00 -9.748200e-01 -2.658181e-01
197            6.805067e+01 -2.664337e+01 -7.577450e+00 6.579422e+01 -2.569820e+01 -7.317639e+00 2.256446e+00 -9.451690e-01 -2.598111e-01
198            6.668809e+01 -2.556662e+01 -7.617735e+00 6.446322e+01 -2.465045e+01 -7.363994e+00 2.224872e+00 -9.161719e-01 -2.537403e-01
199            6.534755e+01 -2.455050e+01 -7.643863e+00 6.315452e+01 -2.366268e+01 -7.396240e+00 2.193025e+00 -8.878151e-01 -2.476234e-01
200            6.403119e+01 -2.359281e+01 -7.655378e+00 6.187027e+01 -2.273271e+01 -7.413890e+00 2.160919e+00 -8.600968e-01 -2.414886e-01
201            6.274087e+01 -2.268685e+01 -7.653044e+00 6.061229e+01 -2.185384e+01 -7.417677e+00 2.128574e+00 -8.330077e-01 -2.353674e-01
202            6.148031e+01 -2.182513e+01 -7.637478e+00 5.938434e+01 -2.101860e+01 -7.408188e+00 2.095971e+00 -8.065327e-01 -2.292898e-01
203            6.025577e+01 -2.100678e+01 -7.608233e+00 5.819270e+01 -2.022613e+01 -7.384955e+00 2.063075e+00 -7.806505e-01 -2.232779e-01
204            5.907359e+01 -2.023180e+01 -7.563862e+00 5.704366e+01 -1.947647e+01 -7.346506e+00 2.029925e+00 -7.553322e-01 -2.173568e-01
205            5.793816e+01 -1.949818e+01 -7.502083e+00 5.594166e+01 -1.876764e+01 -7.290525e+00 1.996496e+00 -7.305431e-01 -2.115583e-01
206            5.685439e+01 -1.880257e+01 -7.420836e+00 5.489154e+01 -1.809631e+01 -7.214929e+00 1.962847e+00 -7.062542e-01 -2.059069e-01
207            5.582629e+01 -1.814402e+01 -7.319769e+00 5.389723e+01 -1.746159e+01 -7.119343e+00 1.929061e+00 -6.824313e-01 -2.004255e-01
208            5.485542e+01 -1.752994e+01 -7.199615e+00 5.296024e+01 -1.687089e+01 -7.004485e+00 1.895172e+00 -6.590477e-01 -1.951306e-01
209            5.394074e+01 -1.695792e+01 -7.064563e+00 5.207954e+01 -1.632186e+01 -6.874463e+00 1.861203e+00 -6.360623e-01 -1.901003e-01
210            5.307972e+01 -1.641819e+01 -6.919608e+00 5.125258e+01 -1.580477e+01 -6.734197e+00 1.827136e+00 -6.134222e-01 -1.854108e-01
211            5.227185e+01 -1.589187e+01 -6.767803e+00 5.047914e+01 -1.530081e+01 -6.586651e+00 1.792716e+00 -5.910643e-01 -1.811528e-01
212            5.152155e+01 -1.536099e+01 -6.604517e+00 4.976307e+01 -1.479201e+01 -6.427303e+00 1.758480e+00 -5.689759e-01 -1.772138e-01
213            5.083137e+01 -1.481797e+01 -6.435943e+00 4.910688e+01 -1.427081e+01 -6.262512e+00 1.724487e+00 -5.471627e-01 -1.734310e-01
214            5.020437e+01 -1.426040e+01 -6.264047e+00 4.851377e+01 -1.373477e+01 -6.094394e+00 1.690601e+00 -5.256322e-01 -1.696526e-01
215            4.964223e+01 -1.369593e+01 -6.083296e+00 4.798559e+01 -1.319151e+01 -5.917463e+00 1.656634e+00 -5.044186e-01 -1.658329e-01
216            4.914069e+01 -1.313338e+01 -5.887164e+00 4.751807e+01 -1.264983e+01 -5.725175e+00 1.622628e+00 -4.835578e-01 -1.619893e-01
217            4.868637e+01 -1.257571e+01 -5.670869e+00 4.709782e+01 -1.211264e+01 -5.512724e+00 1.588551e+00 -4.630724e-01 -1.581456e-01