# Moment      
# CofR        : (0.000000e+00 0.000000e+00 0.000000e+00)
#
# Time        	total_x total_y total_z	pressure_x pressure_y pressure_z	viscous_x viscous_y viscous_z
1              2.539427e-01 1.099124e+03 -5.438444e+00 2.539558e-01 1.098547e+03 -5.437976e+00 -1.314163e-05 5.764570e-01 -4.684764e-04
2              -3.839265e+00 4.048125e+02 1.138075e+01 -3.838770e+00 4.087291e+02 1.136434e+01 -4.943680e-04 -3.916591e+00 1.640696e-02
3              1.201350e+00 -1.489022e+04 8.673519e+02 1.050831e+00 -1.488900e+04 8.673325e+02 1.505193e-01 -1.221409e+00 1.936401e-02
4              5.110731e+02 1.659083e+05 1.595690e+04 5.109108e+02 1.659074e+05 1.595701e+04 1.623060e-01 9.448070e-01 -1.154561e-01
5              3.496908e+03 4.367650e+05 1.600187e+04 3.496634e+03 4.367619e+05 1.600233e+04 2.734608e-01 3.100479e+00 -4.645363e-01
6              7.258953e+03 2.860120e+05 -7.324455e+03 7.258665e+03 2.860111e+05 -7.322898e+03 2.878106e-01 8.658732e-01 -1.557097e+00
7              9.099893e+03 6.381037e+04 -2.163913e+04 9.100073e+03 6.381366e+04 -2.163692e+04 -1.803626e-01 -3.287524e+00 -2.214058e+00
8              8.089467e+03 -1.238724e+05 -2.049236e+04 8.090443e+03 -1.238669e+05 -2.049088e+04 -9.765563e-01 -5.505402e+00 -1.474206e+00
9              5.572428e+03 -1.791686e+05 -1.139628e+04 5.573843e+03 -1.791627e+05 -1.139542e+04 -1.414772e+00 -5.883044e+00 -8.637053e-01
10             2.507926e+03 -1.151705e+05 -3.848466e+03 2.508967e+03 -1.151651e+05 -3.847500e+03 -1.041237e+00 -5.399372e+00 -9.662206e-01
11             2.502324e+03 -5.025047e+04 -5.293770e+03 2.503068e+03 -5.024494e+04 -5.292764e+03 -7.433351e-01 -5.528074e+00 -1.005575e+00
12             4.649617e+03 3.558326e+03 -1.077637e+04 4.650169e+03 3.565185e+03 -1.077504e+04 -5.522880e-01 -6.858960e+00 -1.322877e+00
13             5.780739e+03 2.138763e+04 -1.238301e+04 5.781502e+03 2.139536e+04 -1.238138e+04 -7.635007e-01 -7.731534e+00 -1.624334e+00
14             4.591548e+03 1.781076e+04 -7.139299e+03 4.592834e+03 1.782086e+04 -7.137551e+03 -1.285447e+00 -1.009773e+01 -1.747692e+00
15             1.856955e+03 1.357712e+03 -1.136862e+03 1.858320e+03 1.369724e+03 -1.134388e+03 -1.365806e+00 -1.201190e+01 -2.474318e+00
16             -4.766057e+02 -1.234587e+04 1.620732e+03 -4.761094e+02 -1.233321e+04 1.624524e+03 -4.963072e-01 -1.266695e+01 -3.791490e+00
17             -1.292393e+03 -1.627474e+04 1.491651e+03 -1.293105e+03 -1.626210e+04 1.496035e+03 7.123463e-01 -1.263508e+01 -4.383953e+00
18             -4.049642e+02 -1.306905e+04 -8.294020e+02 -4.059319e+02 -1.305439e+04 -8.262422e+02 9.677410e-01 -1.466043e+01 -3.159859e+00
19             1.271659e+03 -5.718857e+03 -3.243551e+03 1.269729e+03 -5.701465e+03 -3.240331e+03 1.930363e+00 -1.739153e+01 -3.219653e+00
20             2.434687e+03 2.047985e+02 -4.194142e+03 2.430907e+03 2.239573e+02 -4.189382e+03 3.780079e+00 -1.915881e+01 -4.760439e+00
21             2.360264e+03 8.223430e+02 -3.477567e+03 2.353501e+03 8.419274e+02 -3.469738e+03 6.762126e+00 -1.958442e+01 -7.829905e+00
22             1.374979e+03 -1.611378e+03 -2.166964e+03 1.366375e+03 -1.592664e+03 -2.157033e+03 8.603927e+00 -1.871376e+01 -9.931525e+00
23             2.359422e+02 -3.905596e+03 -1.084607e+03 2.266473e+02 -3.890907e+03 -1.073008e+03 9.294921e+00 -1.468904e+01 -1.159898e+01
24             -3.871260e+02 -4.994505e+03 -6.340251e+02 -3.958489e+02 -4.988392e+03 -6.230581e+02 8.722872e+00 -6.113471e+00 -1.096696e+01
25             -2.505652e+02 -4.318915e+03 -7.961811e+02 -2.585781e+02 -4.319904e+03 -7.871718e+02 8.012967e+00 9.884938e-01 -9.009287e+00
26             3.553275e+02 -1.748002e+03 -1.294634e+03 3.482050e+02 -1.747192e+03 -1.287305e+03 7.122497e+00 -8.098743e-01 -7.329112e+00
27             9.765545e+02 1.691008e+03 -1.839311e+03 9.702740e+02 1.700544e+03 -1.832421e+03 6.280554e+00 -9.535599e+00 -6.889225e+00
28             1.126347e+03 2.423213e+03 -2.164593e+03 1.120437e+03 2.443588e+03 -2.155959e+03 5.909901e+00 -2.037472e+01 -8.633580e+00
29             8.597620e+02 7.009285e+02 -2.135923e+03 8.548936e+02 7.242749e+02 -2.126923e+03 4.868400e+00 -2.334640e+01 -9.000509e+00
30             4.744951e+02 -1.304097e+03 -1.813987e+03 4.701575e+02 -1.286477e+03 -1.805586e+03 4.337596e+00 -1.762044e+01 -8.401516e+00
31             1.850422e+02 -2.559312e+03 -1.322131e+03 1.808553e+02 -2.550655e+03 -1.314369e+03 4.186845e+00 -8.656462e+00 -7.761856e+00
32             1.523068e+02 -2.550183e+03 -9.387722e+02 1.484712e+02 -2.548249e+03 -9.313318e+02 3.835595e+00 -1.933964e+00 -7.440408e+00
33             3.578370e+02 -1.642970e+03 -8.225507e+02 3.551227e+02 -1.641269e+03 -8.154395e+02 2.714258e+00 -1.700332e+00 -7.111169e+00
34             6.577728e+02 -5.231962e+02 -1.013587e+03 6.566181e+02 -5.174479e+02 -1.007009e+03 1.154691e+00 -5.748267e+00 -6.578529e+00
35             8.067413e+02 -8.774140e+01 -1.304724e+03 8.070429e+02 -7.730067e+01 -1.299316e+03 -3.016012e-01 -1.044073e+01 -5.408404e+00
36             7.395066e+02 -3.904275e+02 -1.441473e+03 7.403579e+02 -3.783933e+02 -1.437156e+03 -8.513304e-01 -1.203418e+01 -4.316152e+00
37             5.375405e+02 -1.013364e+03 -1.346762e+03 5.379825e+02 -1.002969e+03 -1.342971e+03 -4.420112e-01 -1.039531e+01 -3.791019e+00
38             3.121757e+02 -1.523876e+03 -1.035688e+03 3.118740e+02 -1.516060e+03 -1.031816e+03 3.016465e-01 -7.816288e+00 -3.872148e+00
39             1.750756e+02 -1.708163e+03 -6.693747e+02 1.742240e+02 -1.702657e+03 -6.652347e+02 8.515344e-01 -5.506210e+00 -4.139998e+00
40             1.810857e+02 -1.610074e+03 -4.940043e+02 1.801053e+02 -1.605305e+03 -4.897306e+02 9.803706e-01 -4.769117e+00 -4.273703e+00
41             2.402104e+02 -1.467265e+03 -4.656351e+02 2.393304e+02 -1.461800e+03 -4.613259e+02 8.799994e-01 -5.464640e+00 -4.309197e+00
42             2.940158e+02 -1.358240e+03 -5.310450e+02 2.932054e+02 -1.351851e+03 -5.267933e+02 8.103985e-01 -6.389499e+00 -4.251675e+00
43             3.198632e+02 -1.245940e+03 -6.238934e+02 3.189544e+02 -1.239235e+03 -6.197185e+02 9.087834e-01 -6.705010e+00 -4.174886e+00
44             3.288167e+02 -1.054223e+03 -7.107418e+02 3.276821e+02 -1.048045e+03 -7.066430e+02 1.134590e+00 -6.178579e+00 -4.098793e+00
45             3.234576e+02 -8.373443e+02 -7.482674e+02 3.220900e+02 -8.321770e+02 -7.442844e+02 1.367655e+00 -5.167238e+00 -3.982968e+00
46             3.082924e+02 -6.684705e+02 -7.206087e+02 3.068039e+02 -6.642241e+02 -7.168061e+02 1.488572e+00 -4.246496e+00 -3.802585e+00
47             2.888014e+02 -5.746966e+02 -6.421056e+02 2.873173e+02 -5.710256e+02 -6.384585e+02 1.484101e+00 -3.671084e+00 -3.647068e+00
48             2.684132e+02 -5.232498e+02 -5.365863e+02 2.670170e+02 -5.198131e+02 -5.330865e+02 1.396270e+00 -3.436760e+00 -3.499736e+00
49             2.548348e+02 -4.601221e+02 -4.480598e+02 2.535433e+02 -4.567389e+02 -4.446844e+02 1.291462e+00 -3.383186e+00 -3.375407e+00
50             2.476852e+02 -3.650976e+02 -4.002311e+02 2.465007e+02 -3.617478e+02 -3.969896e+02 1.184501e+00 -3.349749e+00 -3.241469e+00
51             2.400932e+02 -2.573236e+02 -3.828433e+02 2.390027e+02 -2.540829e+02 -3.797517e+02 1.090425e+00 -3.240747e+00 -3.091627e+00
52             2.264220e+02 -1.778763e+02 -3.747206e+02 2.253929e+02 -1.747786e+02 -3.717470e+02 1.029118e+00 -3.097699e+00 -2.973614e+00
53             2.038553e+02 -1.705767e+02 -3.530702e+02 2.028580e+02 -1.675716e+02 -3.501975e+02 9.973227e-01 -3.005132e+00 -2.872725e+00
54             1.733690e+02 -2.410539e+02 -3.046415e+02 1.723884e+02 -2.380391e+02 -3.018896e+02 9.805502e-01 -3.014807e+00 -2.751929e+00
55             1.445043e+02 -3.345408e+02 -2.447909e+02 1.435420e+02 -3.314417e+02 -2.422049e+02 9.623759e-01 -3.099133e+00 -2.586040e+00
56             1.301623e+02 -3.705255e+02 -2.079282e+02 1.292330e+02 -3.673409e+02 -2.055703e+02 9.293130e-01 -3.184600e+00 -2.357881e+00
57             1.237420e+02 -3.513827e+02 -1.906663e+02 1.228653e+02 -3.481429e+02 -1.885754e+02 8.766868e-01 -3.239869e+00 -2.090898e+00
58             1.193369e+02 -2.952223e+02 -1.866025e+02 1.185263e+02 -2.919281e+02 -1.847753e+02 8.105815e-01 -3.294122e+00 -1.827243e+00
59             1.137361e+02 -2.216212e+02 -1.899307e+02 1.129939e+02 -2.182333e+02 -1.883419e+02 7.422111e-01 -3.387868e+00 -1.588819e+00
60             1.009765e+02 -1.936822e+02 -1.773373e+02 1.002878e+02 -1.901905e+02 -1.759501e+02 6.887084e-01 -3.491721e+00 -1.387108e+00
61             8.682140e+01 -2.030273e+02 -1.536551e+02 8.615699e+01 -1.994801e+02 -1.524159e+02 6.644042e-01 -3.547235e+00 -1.239130e+00
62             6.934928e+01 -2.144445e+02 -1.186753e+02 6.869459e+01 -2.109047e+02 -1.175532e+02 6.546911e-01 -3.539856e+00 -1.122075e+00
63             4.554402e+01 -2.162978e+02 -6.839997e+01 4.489934e+01 -2.128097e+02 -6.738644e+01 6.446878e-01 -3.488055e+00 -1.013534e+00
64             2.229283e+01 -2.012390e+02 -1.870135e+01 2.166390e+01 -1.978216e+02 -1.779896e+01 6.289347e-01 -3.417426e+00 -9.023915e-01
65             8.122651e+00 -1.719381e+02 1.159794e+01 7.517677e+00 -1.686025e+02 1.238358e+01 6.049746e-01 -3.335521e+00 -7.856432e-01
66             4.237345e+00 -1.387054e+02 1.958822e+01 3.662150e+00 -1.354667e+02 2.025855e+01 5.751952e-01 -3.238782e+00 -6.703287e-01
67             5.099885e+00 -1.084335e+02 1.694126e+01 4.555687e+00 -1.053088e+02 1.750870e+01 5.441987e-01 -3.124783e+00 -5.674358e-01
68             5.298643e+00 -8.312193e+01 1.536609e+01 4.784646e+00 -8.012670e+01 1.584700e+01 5.139964e-01 -2.995232e+00 -4.809044e-01
69             2.460250e+00 -6.393308e+01 2.024308e+01 1.976692e+00 -6.107562e+01 2.065286e+01 4.835572e-01 -2.857456e+00 -4.097832e-01
70             -2.850444e+00 -5.117620e+01 3.069754e+01 -3.301210e+00 -4.845597e+01 3.104681e+01 4.507663e-01 -2.720227e+00 -3.492722e-01
71             -8.035201e+00 -4.550295e+01 4.126290e+01 -8.448293e+00 -4.291181e+01 4.155676e+01 4.130922e-01 -2.591146e+00 -2.938683e-01
72             -8.822932e+00 -4.382825e+01 4.279180e+01 -9.193719e+00 -4.135456e+01 4.303296e+01 3.707864e-01 -2.473686e+00 -2.411595e-01
73             -6.323660e+00 -3.861950e+01 3.729214e+01 -6.650635e+00 -3.625357e+01 3.748439e+01 3.269743e-01 -2.365925e+00 -1.922482e-01
74             -4.128751e+00 -2.892328e+01 3.216383e+01 -4.413259e+00 -2.666213e+01 3.231330e+01 2.845077e-01 -2.261146e+00 -1.494771e-01
75             -3.609934e+00 -1.546921e+01 3.041111e+01 -3.855490e+00 -1.331550e+01 3.052463e+01 2.455555e-01 -2.153704e+00 -1.135231e-01
76             -4.342469e+00 -8.977175e-01 3.146748e+01 -4.552245e+00 1.143323e+00 3.154950e+01 2.097756e-01 -2.041040e+00 -8.202289e-02
77             -5.076452e+00 1.171423e+01 3.285706e+01 -5.252446e+00 1.363852e+01 3.291037e+01 1.759945e-01 -1.924290e+00 -5.330928e-02
78             -4.817737e+00 2.072324e+01 3.231963e+01 -4.962746e+00 2.252884e+01 3.234716e+01 1.450091e-01 -1.805597e+00 -2.753143e-02
79             -3.494388e+00 2.672752e+01 2.948964e+01 -3.610505e+00 2.841542e+01 2.949377e+01 1.161167e-01 -1.687908e+00 -4.131535e-03
80             -1.705021e+00 3.136535e+01 2.552432e+01 -1.796302e+00 3.293835e+01 2.550977e+01 9.128123e-02 -1.573007e+00 1.455074e-02
81             -4.547063e-02 3.562625e+01 2.170666e+01 -1.157962e-01 3.708850e+01 2.167830e+01 7.032555e-02 -1.462245e+00 2.835780e-02
82             1.267729e+00 3.954816e+01 1.847854e+01 1.213885e+00 4.090399e+01 1.844117e+01 5.384342e-02 -1.355825e+00 3.737155e-02
83             2.351618e+00 4.274402e+01 1.549267e+01 2.309601e+00 4.399649e+01 1.545036e+01 4.201717e-02 -1.252463e+00 4.231448e-02
84             3.423471e+00 4.496764e+01 1.215372e+01 3.388808e+00 4.611942e+01 1.210995e+01 3.466311e-02 -1.151788e+00 4.377420e-02
85             4.591178e+00 4.627091e+01 8.208901e+00 4.559741e+00 4.732482e+01 8.166583e+00 3.143745e-02 -1.053907e+00 4.231837e-02
86             5.820551e+00 4.714688e+01 3.837662e+00 5.788798e+00 4.810587e+01 3.799200e+00 3.175250e-02 -9.589874e-01 3.846167e-02
87             7.068931e+00 4.808683e+01 -7.477967e-01 7.034711e+00 4.895325e+01 -7.810228e-01 3.422004e-02 -8.664247e-01 3.322610e-02
88             8.287922e+00 4.922705e+01 -5.280505e+00 8.250313e+00 5.000228e+01 -5.308086e+00 3.760867e-02 -7.752266e-01 2.758134e-02
89             9.630113e+00 5.037761e+01 -1.010820e+01 9.588857e+00 5.106225e+01 -1.013029e+01 4.125580e-02 -6.846420e-01 2.209857e-02
90             1.034371e+01 5.154859e+01 -1.290018e+01 1.029938e+01 5.214338e+01 -1.291815e+01 4.432682e-02 -5.947885e-01 1.796760e-02
91             1.056653e+01 5.299941e+01 -1.386563e+01 1.052017e+01 5.350596e+01 -1.388150e+01 4.636036e-02 -5.065466e-01 1.587274e-02
92             1.078049e+01 5.478705e+01 -1.487128e+01 1.073338e+01 5.520785e+01 -1.488703e+01 4.710578e-02 -4.207974e-01 1.574751e-02
93             1.102776e+01 5.667678e+01 -1.610738e+01 1.098087e+01 5.701522e+01 -1.612448e+01 4.689512e-02 -3.384349e-01 1.709381e-02
94             1.120590e+01 5.797101e+01 -1.720196e+01 1.116016e+01 5.823130e+01 -1.722170e+01 4.573156e-02 -2.602902e-01 1.973816e-02
95             1.118608e+01 5.807204e+01 -1.774315e+01 1.114201e+01 5.825879e+01 -1.776650e+01 4.406678e-02 -1.867486e-01 2.335615e-02
96             1.082128e+01 5.603701e+01 -1.737553e+01 1.077912e+01 5.615613e+01 -1.740315e+01 4.215493e-02 -1.191219e-01 2.762194e-02
97             1.029641e+01 5.379377e+01 -1.629616e+01 1.025632e+01 5.385245e+01 -1.632834e+01 4.009278e-02 -5.868447e-02 3.217306e-02
98             9.827633e+00 5.247920e+01 -1.512515e+01 9.789484e+00 5.248485e+01 -1.516162e+01 3.814990e-02 -5.652442e-03 3.647047e-02
99             9.343550e+00 5.135505e+01 -1.379598e+01 9.306984e+00 5.131447e+01 -1.383622e+01 3.656685e-02 4.058129e-02 4.024498e-02
100            8.697772e+00 4.975994e+01 -1.197444e+01 8.662597e+00 4.968017e+01 -1.201804e+01 3.517570e-02 7.977243e-02 4.359962e-02
101            7.975784e+00 4.751813e+01 -9.932251e+00 7.941864e+00 4.740612e+01 -9.978756e+00 3.392026e-02 1.120054e-01 4.650530e-02
102            7.356049e+00 4.510378e+01 -8.198936e+00 7.323401e+00 4.496580e+01 -8.247849e+00 3.264880e-02 1.379837e-01 4.891277e-02
103            6.834257e+00 4.305696e+01 -6.768751e+00 6.802743e+00 4.289809e+01 -6.819227e+00 3.151404e-02 1.588629e-01 5.047649e-02
104            6.326260e+00 4.162498e+01 -5.383450e+00 6.295710e+00 4.144906e+01 -5.434774e+00 3.055019e-02 1.759218e-01 5.132365e-02
105            5.739610e+00 4.059696e+01 -3.753991e+00 5.709844e+00 4.040660e+01 -3.805636e+00 2.976633e-02 1.903599e-01 5.164407e-02
106            5.080659e+00 3.975006e+01 -1.889213e+00 5.051691e+00 3.954748e+01 -1.941042e+00 2.896784e-02 2.025792e-01 5.182814e-02
107            4.411709e+00 3.895756e+01 -1.181729e-02 4.383654e+00 3.874458e+01 -6.382798e-02 2.805442e-02 2.129858e-01 5.201068e-02
108            3.802634e+00 3.803672e+01 1.617775e+00 3.775577e+00 3.781494e+01 1.565600e+00 2.705721e-02 2.217772e-01 5.217490e-02
109            3.278467e+00 3.693788e+01 2.876303e+00 3.252349e+00 3.670872e+01 2.823955e+00 2.611826e-02 2.291581e-01 5.234847e-02
110            2.847626e+00 3.573028e+01 3.741675e+00 2.822282e+00 3.549499e+01 3.689195e+00 2.534337e-02 2.352832e-01 5.247979e-02
111            2.519309e+00 3.455527e+01 4.216047e+00 2.494395e+00 3.431537e+01 4.163753e+00 2.491444e-02 2.399009e-01 5.229455e-02
112            2.302476e+00 3.352393e+01 4.309526e+00 2.277610e+00 3.328121e+01 4.257804e+00 2.486596e-02 2.427207e-01 5.172153e-02
113            2.206517e+00 3.269971e+01 4.024942e+00 2.181287e+00 3.245589e+01 3.974360e+00 2.523013e-02 2.438131e-01 5.058226e-02
114            2.219940e+00 3.205274e+01 3.409350e+00 2.193852e+00 3.180909e+01 3.360500e+00 2.608811e-02 2.436423e-01 4.884998e-02
115            2.319953e+00 3.150799e+01 2.544601e+00 2.292469e+00 3.126539e+01 2.498157e+00 2.748356e-02 2.425942e-01 4.644400e-02
116            2.486526e+00 3.099289e+01 1.512379e+00 2.457262e+00 3.075218e+01 1.468914e+00 2.926424e-02 2.407142e-01 4.346467e-02
117            2.713818e+00 3.048016e+01 3.439147e-01 2.682424e+00 3.024227e+01 3.041111e-01 3.139421e-02 2.378874e-01 3.980359e-02
118            3.007656e+00 3.000425e+01 -9.608086e-01 2.973853e+00 2.977037e+01 -9.960980e-01 3.380311e-02 2.338862e-01 3.528937e-02
119            3.344999e+00 2.962227e+01 -2.323994e+00 3.308703e+00 2.939361e+01 -2.353992e+00 3.629591e-02 2.286539e-01 2.999744e-02
120            3.668392e+00 2.938068e+01 -3.574850e+00 3.629776e+00 2.915840e+01 -3.599059e+00 3.861539e-02 2.222808e-01 2.420844e-02
121            3.930086e+00 2.925011e+01 -4.586102e+00 3.889588e+00 2.903538e+01 -4.604380e+00 4.049817e-02 2.147275e-01 1.827771e-02
122            4.114269e+00 2.919581e+01 -5.327285e+00 4.072416e+00 2.898981e+01 -5.339751e+00 4.185292e-02 2.060005e-01 1.246608e-02
123            4.210476e+00 2.922705e+01 -5.806957e+00 4.167598e+00 2.903082e+01 -5.813711e+00 4.287857e-02 1.962390e-01 6.753816e-03
124            4.200975e+00 2.936950e+01 -6.020231e+00 4.157226e+00 2.918393e+01 -6.021279e+00 4.374908e-02 1.855703e-01 1.047984e-03
125            4.066842e+00 2.958648e+01 -5.939260e+00 4.022332e+00 2.941232e+01 -5.934655e+00 4.451050e-02 1.741557e-01 -4.604409e-03
126            3.823538e+00 2.980329e+01 -5.575098e+00 3.778250e+00 2.964070e+01 -5.564952e+00 4.528770e-02 1.625966e-01 -1.014584e-02
127            3.485509e+00 2.992975e+01 -4.943104e+00 3.439299e+00 2.977823e+01 -4.927475e+00 4.621018e-02 1.515232e-01 -1.562873e-02
128            3.070362e+00 2.989520e+01 -4.086107e+00 3.023184e+00 2.975381e+01 -4.065317e+00 4.717823e-02 1.413896e-01 -2.078979e-02
129            2.591494e+00 2.963170e+01 -3.050763e+00 2.543210e+00 2.949895e+01 -3.025152e+00 4.828354e-02 1.327546e-01 -2.561126e-02
130            2.054660e+00 2.909625e+01 -1.885130e+00 2.005123e+00 2.897059e+01 -1.854868e+00 4.953704e-02 1.256676e-01 -3.026182e-02
131            1.460835e+00 2.828346e+01 -6.234831e-01 1.409996e+00 2.816342e+01 -5.888456e-01 5.083844e-02 1.200399e-01 -3.463743e-02
132            8.376440e-01 2.725624e+01 6.639111e-01 7.855586e-01 2.714025e+01 7.025022e-01 5.208547e-02 1.159929e-01 -3.859111e-02
133            2.370998e-01 2.617251e+01 1.857409e+00 1.839124e-01 2.605904e+01 1.899558e+00 5.318736e-02 1.134792e-01 -4.214905e-02
134            -2.801902e-01 2.521626e+01 2.825303e+00 -3.341375e-01 2.510375e+01 2.870383e+00 5.394734e-02 1.125152e-01 -4.507967e-02
135            -6.867461e-01 2.446658e+01 3.513324e+00 -7.412548e-01 2.435315e+01 3.560926e+00 5.450865e-02 1.134301e-01 -4.760193e-02
136            -9.884235e-01 2.381700e+01 3.944787e+00 -1.043172e+00 2.370102e+01 3.994517e+00 5.474824e-02 1.159790e-01 -4.972998e-02
137            -1.202560e+00 2.310305e+01 4.187906e+00 -1.257254e+00 2.298324e+01 4.239483e+00 5.469353e-02 1.198058e-01 -5.157630e-02
138            -1.340625e+00 2.216612e+01 4.294185e+00 -1.394951e+00 2.204164e+01 4.347290e+00 5.432594e-02 1.244827e-01 -5.310549e-02
139            -1.399398e+00 2.101869e+01 4.278416e+00 -1.452948e+00 2.088901e+01 4.332541e+00 5.354948e-02 1.296738e-01 -5.412550e-02
140            -1.385089e+00 1.986534e+01 4.167961e+00 -1.437422e+00 1.973029e+01 4.222441e+00 5.233238e-02 1.350453e-01 -5.447949e-02
141            -1.327804e+00 1.891090e+01 4.028061e+00 -1.378450e+00 1.877027e+01 4.082124e+00 5.064523e-02 1.406369e-01 -5.406282e-02
142            -1.263451e+00 1.820049e+01 3.899128e+00 -1.311875e+00 1.805407e+01 3.951908e+00 4.842454e-02 1.464278e-01 -5.278023e-02
143            -1.228415e+00 1.764817e+01 3.828110e+00 -1.274059e+00 1.749618e+01 3.878606e+00 4.564367e-02 1.519811e-01 -5.049588e-02
144            -1.236079e+00 1.710986e+01 3.817843e+00 -1.278341e+00 1.695308e+01 3.864811e+00 4.226206e-02 1.567781e-01 -4.696799e-02
145            -1.285676e+00 1.646617e+01 3.849202e+00 -1.323903e+00 1.630604e+01 3.891263e+00 3.822723e-02 1.601318e-01 -4.206129e-02
146            -1.363359e+00 1.568016e+01 3.855015e+00 -1.397037e+00 1.551874e+01 3.890966e+00 3.367778e-02 1.614208e-01 -3.595134e-02
147            -1.464471e+00 1.480521e+01 3.799888e+00 -1.493342e+00 1.464490e+01 3.828912e+00 2.887077e-02 1.603062e-01 -2.902425e-02
148            -1.586890e+00 1.392429e+01 3.680575e+00 -1.610893e+00 1.376758e+01 3.702250e+00 2.400303e-02 1.567045e-01 -2.167475e-02
149            -1.720724e+00 1.312294e+01 3.514937e+00 -1.740021e+00 1.297232e+01 3.529183e+00 1.929691e-02 1.506121e-01 -1.424666e-02
150            -1.840086e+00 1.243070e+01 3.317107e+00 -1.854966e+00 1.228873e+01 3.324079e+00 1.487972e-02 1.419678e-01 -6.972486e-03
151            -1.923153e+00 1.183243e+01 3.119090e+00 -1.933934e+00 1.170163e+01 3.119051e+00 1.078099e-02 1.307960e-01 3.864906e-05
152            -1.962330e+00 1.127006e+01 2.966086e+00 -1.969374e+00 1.115301e+01 2.959436e+00 7.044547e-03 1.170450e-01 6.650316e-03
153            -1.970621e+00 1.071698e+01 2.919483e+00 -1.974293e+00 1.061590e+01 2.906698e+00 3.672546e-03 1.010756e-01 1.278521e-02
154            -1.943567e+00 1.017108e+01 2.988622e+00 -1.944263e+00 1.008780e+01 2.970461e+00 6.960898e-04 8.328082e-02 1.816074e-02
155            -1.881058e+00 9.624104e+00 3.159189e+00 -1.879138e+00 9.559880e+00 3.136735e+00 -1.920801e-03 6.422459e-02 2.245390e-02
156            -1.779302e+00 9.082161e+00 3.386730e+00 -1.775063e+00 9.037685e+00 3.361197e+00 -4.238623e-03 4.447539e-02 2.553331e-02
157            -1.630164e+00 8.541380e+00 3.608410e+00 -1.623829e+00 8.517031e+00 3.581009e+00 -6.334722e-03 2.434855e-02 2.740102e-02
158            -1.414340e+00 8.048011e+00 3.746608e+00 -1.406181e+00 8.043328e+00 3.718461e+00 -8.158770e-03 4.683220e-03 2.814675e-02
159            -1.123896e+00 7.687044e+00 3.749788e+00 -1.114265e+00 7.701050e+00 3.722131e+00 -9.630948e-03 -1.400663e-02 2.765764e-02
160            -7.535747e-01 7.523180e+00 3.583754e+00 -7.428414e-01 7.554962e+00 3.557844e+00 -1.073329e-02 -3.178243e-02 2.590946e-02
161            -3.162252e-01 7.595001e+00 3.239215e+00 -3.047613e-01 7.644136e+00 3.216225e+00 -1.146393e-02 -4.913526e-02 2.298930e-02
162            1.527404e-01 7.906791e+00 2.735578e+00 1.645951e-01 7.972979e+00 2.716328e+00 -1.185470e-02 -6.618837e-02 1.925046e-02
163            6.047020e-01 8.458839e+00 2.113634e+00 6.166450e-01 8.541792e+00 2.098479e+00 -1.194302e-02 -8.295277e-02 1.515531e-02
164            9.936292e-01 9.263739e+00 1.439033e+00 1.005335e+00 9.363208e+00 1.427901e+00 -1.170606e-02 -9.946950e-02 1.113243e-02
165            1.280028e+00 1.025971e+01 7.993251e-01 1.291223e+00 1.037532e+01 7.914573e-01 -1.119514e-02 -1.156048e-01 7.867817e-03
166            1.441324e+00 1.125143e+01 2.655853e-01 1.451838e+00 1.138261e+01 2.597570e-01 -1.051327e-02 -1.311869e-01 5.828302e-03
167            1.453730e+00 1.204804e+01 -1.041352e-01 1.463568e+00 1.219420e+01 -1.093050e-01 -9.837792e-03 -1.461541e-01 5.169838e-03
168            1.305339e+00 1.259296e+01 -2.850872e-01 1.314598e+00 1.275364e+01 -2.909152e-01 -9.259672e-03 -1.606824e-01 5.828025e-03
169            1.001398e+00 1.294980e+01 -2.742707e-01 1.010299e+00 1.312479e+01 -2.818676e-01 -8.900859e-03 -1.749965e-01 7.596926e-03
170            5.646236e-01 1.320337e+01 -6.800450e-02 5.735208e-01 1.339250e+01 -7.826704e-02 -8.897202e-03 -1.891315e-01 1.026254e-02
171            2.959188e-02 1.357400e+01 3.091730e-01 3.897341e-02 1.377704e+01 2.953365e-01 -9.381530e-03 -2.030311e-01 1.383647e-02
172            -5.862342e-01 1.431976e+01 8.848936e-01 -5.757867e-01 1.453592e+01 8.665824e-01 -1.044744e-02 -2.161645e-01 1.831113e-02
173            -1.234539e+00 1.546255e+01 1.648066e+00 -1.222419e+00 1.569089e+01 1.624244e+00 -1.211940e-02 -2.283422e-01 2.382113e-02
174            -1.869246e+00 1.667124e+01 2.603901e+00 -1.854792e+00 1.691025e+01 2.573335e+00 -1.445388e-02 -2.390147e-01 3.056612e-02
175            -2.459302e+00 1.752097e+01 3.763869e+00 -2.441842e+00 1.776895e+01 3.725488e+00 -1.746003e-02 -2.479794e-01 3.838165e-02
176            -2.978531e+00 1.772951e+01 5.068098e+00 -2.957497e+00 1.798492e+01 5.020896e+00 -2.103419e-02 -2.554073e-01 4.720198e-02
177            -3.370743e+00 1.720308e+01 6.314782e+00 -3.345819e+00 1.746502e+01 6.258334e+00 -2.492426e-02 -2.619351e-01 5.644863e-02
178            -3.560061e+00 1.593040e+01 7.231813e+00 -3.531254e+00 1.619828e+01 7.166474e+00 -2.880771e-02 -2.678821e-01 6.533849e-02
179            -3.456769e+00 1.416484e+01 7.511905e+00 -3.424370e+00 1.443828e+01 7.438694e+00 -3.239863e-02 -2.734425e-01 7.321106e-02
180            -3.085359e+00 1.255978e+01 7.124554e+00 -3.049974e+00 1.283830e+01 7.045279e+00 -3.538488e-02 -2.785232e-01 7.927480e-02
181            -2.536389e+00 1.145013e+01 6.255866e+00 -2.498867e+00 1.173312e+01 6.172867e+00 -3.752142e-02 -2.829914e-01 8.299897e-02
182            -1.840135e+00 1.080279e+01 4.968152e+00 -1.801457e+00 1.108946e+01 4.883950e+00 -3.867706e-02 -2.866767e-01 8.420238e-02
183            -1.002874e+00 1.066634e+01 3.256622e+00 -9.640335e-01 1.095588e+01 3.173513e+00 -3.884044e-02 -2.895404e-01 8.310875e-02
184            -1.007513e-01 1.101795e+01 1.261075e+00 -6.273423e-02 1.130937e+01 1.181188e+00 -3.801707e-02 -2.914211e-01 7.988688e-02
185            7.411345e-01 1.157584e+01 -7.517058e-01 7.774159e-01 1.186819e+01 -8.265300e-01 -3.628137e-02 -2.923550e-01 7.482429e-02
186            1.429979e+00 1.195054e+01 -2.545593e+00 1.463813e+00 1.224300e+01 -2.614103e+00 -3.383462e-02 -2.924606e-01 6.850928e-02
187            1.958057e+00 1.197483e+01 -4.061851e+00 1.988942e+00 1.226703e+01 -4.123256e+00 -3.088552e-02 -2.921947e-01 6.140531e-02
188            2.332251e+00 1.172343e+01 -5.267651e+00 2.359904e+00 1.201512e+01 -5.321561e+00 -2.765351e-02 -2.916907e-01 5.391029e-02
189            2.512631e+00 1.145674e+01 -6.009146e+00 2.536962e+00 1.174778e+01 -6.055625e+00 -2.433088e-02 -2.910429e-01 4.647847e-02
190            2.473783e+00 1.147401e+01 -6.157818e+00 2.494846e+00 1.176414e+01 -6.197259e+00 -2.106255e-02 -2.901250e-01 3.944074e-02
191            2.229357e+00 1.193958e+01 -5.679471e+00 2.247317e+00 1.222827e+01 -5.712298e+00 -1.795994e-02 -2.886881e-01 3.282751e-02
192            1.833595e+00 1.241019e+01 -4.676511e+00 1.848747e+00 1.269685e+01 -4.703352e+00 -1.515155e-02 -2.866602e-01 2.684163e-02
193            1.348321e+00 1.250845e+01 -3.324038e+00 1.360995e+00 1.279271e+01 -3.345622e+00 -1.267353e-02 -2.842669e-01 2.158417e-02
194            8.086863e-01 1.198869e+01 -1.771980e+00 8.192764e-01 1.227049e+01 -1.789160e+00 -1.059012e-02 -2.817973e-01 1.718012e-02
195            2.483659e-01 1.093491e+01 -1.736963e-01 2.572732e-01 1.121459e+01 -1.873674e-01 -8.907311e-03 -2.796796e-01 1.367109e-02
196            -2.671973e-01 9.603699e+00 1.271373e+00 -2.595432e-01 9.881652e+00 1.260101e+00 -7.654102e-03 -2.779537e-01 1.127187e-02
197            -6.971156e-01 8.349614e+00 2.457732e+00 -6.903481e-01 8.626203e+00 2.447853e+00 -6.767426e-03 -2.765897e-01 9.879676e-03
198            -1.033130e+00 7.405281e+00 3.380281e+00 -1.026978e+00 7.680649e+00 3.371094e+00 -6.151345e-03 -2.753679e-01 9.186231e-03
199            -1.286574e+00 6.864921e+00 4.054890e+00 -1.280882e+00 7.139311e+00 4.045963e+00 -5.691849e-03 -2.743905e-01 8.927110e-03
200            -1.449126e+00 6.723850e+00 4.444071e+00 -1.443797e+00 6.997759e+00 4.434990e+00 -5.329730e-03 -2.739093e-01 9.081134e-03
201            -1.495434e+00 6.893210e+00 4.454873e+00 -1.490426e+00 7.167403e+00 4.445125e+00 -5.007804e-03 -2.741931e-01 9.747503e-03
202            -1.417371e+00 7.277916e+00 4.035059e+00 -1.412675e+00 7.553234e+00 4.024155e+00 -4.696346e-03 -2.753183e-01 1.090421e-02
203            -1.229922e+00 7.857944e+00 3.192300e+00 -1.225601e+00 8.135330e+00 3.180080e+00 -4.320220e-03 -2.773861e-01 1.221960e-02
204            -9.635418e-01 8.676246e+00 1.999475e+00 -9.597213e-01 8.956563e+00 1.986165e+00 -3.820493e-03 -2.803162e-01 1.330926e-02
205            -6.793522e-01 9.783373e+00 6.632012e-01 -6.761350e-01 1.006739e+01 6.492980e-01 -3.217223e-03 -2.840191e-01 1.390324e-02
206            -4.837221e-01 1.110890e+01 -4.620915e-01 -4.811104e-01 1.139703e+01 -4.761102e-01 -2.611670e-03 -2.881367e-01 1.401877e-02
207            -4.371377e-01 1.260760e+01 -1.122757e+00 -4.349470e-01 1.289994e+01 -1.136811e+00 -2.190735e-03 -2.923349e-01 1.405423e-02
208            -5.566093e-01 1.428109e+01 -1.221367e+00 -5.545120e-01 1.457761e+01 -1.235890e+00 -2.097366e-03 -2.965183e-01 1.452294e-02
209            -8.179849e-01 1.606633e+01 -7.716719e-01 -8.155782e-01 1.636651e+01 -7.872778e-01 -2.406701e-03 -3.001758e-01 1.560590e-02
210            -1.165233e+00 1.763719e+01 1.564030e-01 -1.162111e+00 1.793965e+01 1.391665e-01 -3.122353e-03 -3.024642e-01 1.723657e-02
211            -1.523548e+00 1.865106e+01 1.399078e+00 -1.519395e+00 1.895412e+01 1.379881e+00 -4.152828e-03 -3.030607e-01 1.919714e-02
212            -1.827338e+00 1.902943e+01 2.738520e+00 -1.822040e+00 1.933154e+01 2.717460e+00 -5.298224e-03 -3.021061e-01 2.105987e-02
213            -2.000462e+00 1.869657e+01 3.896437e+00 -1.994060e+00 1.899662e+01 3.873749e+00 -6.401783e-03 -3.000488e-01 2.268796e-02
214            -1.933999e+00 1.760057e+01 4.503236e+00 -1.926802e+00 1.789770e+01 4.479948e+00 -7.197065e-03 -2.971296e-01 2.328831e-02
215            -1.579349e+00 1.614747e+01 4.336681e+00 -1.571925e+00 1.644102e+01 4.314679e+00 -7.423952e-03 -2.935541e-01 2.200186e-02
216            -1.005495e+00 1.500377e+01 3.481150e+00 -9.985934e-01 1.529291e+01 3.462722e+00 -6.901300e-03 -2.891456e-01 1.842756e-02
217            -2.894296e-01 1.437902e+01 2.124607e+00 -2.839232e-01 1.466273e+01 2.112356e+00 -5.506440e-03 -2.837162e-01 1.225166e-02
218            5.137158e-01 1.426539e+01 4.281028e-01 5.171286e-01 1.454257e+01 4.235845e-01 -3.412810e-03 -2.771820e-01 4.518313e-03
219            1.270887e+00 1.436317e+01 -1.252870e+00 1.271652e+00 1.463303e+01 -1.248865e+00 -7.649059e-04 -2.698586e-01 -4.004642e-03