# Moment      
# CofR        : (0.000000e+00 0.000000e+00 0.000000e+00)
#
# Time        	total_x total_y total_z	pressure_x pressure_y pressure_z	viscous_x viscous_y viscous_z
1              2.308475e-02 1.097873e+03 -1.541170e-01 2.308602e-02 1.097261e+03 -1.541216e-01 -1.267710e-06 6.117406e-01 4.633407e-06
2              1.642278e-02 4.105374e+02 1.297976e+00 2.201715e-02 4.145757e+02 1.294960e+00 -5.594378e-03 -4.038255e+00 3.016349e-03
3              9.284630e+01 -1.688947e+04 1.331504e+01 9.374613e+01 -1.688624e+04 1.245029e+01 -8.998233e-01 -3.237765e+00 8.647514e-01
4              1.099507e+03 2.868523e+04 1.054236e+03 1.100928e+03 2.868671e+04 1.052875e+03 -1.421136e+00 -1.477327e+00 1.360693e+00
5              1.980246e+03 1.037031e+04 -1.985426e+04 1.982449e+03 1.036849e+04 -1.985617e+04 -2.202941e+00 1.817511e+00 1.909353e+00
6              1.964701e+03 5.501346e+03 -2.064134e+04 1.967464e+03 5.497917e+03 -2.064324e+04 -2.762994e+00 3.428850e+00 1.898068e+00
7              1.447241e+03 1.058788e+03 -1.010950e+04 1.450780e+03 1.056460e+03 -1.011199e+04 -3.538403e+00 2.328123e+00 2.493959e+00
8              -8.086524e+02 -1.127730e+03 3.438394e+03 -8.044863e+02 -1.126806e+03 3.436050e+03 -4.166125e+00 -9.241730e-01 2.344028e+00
9              -1.541841e+05 -1.356708e+04 -1.772562e+04 -1.541795e+05 -1.356232e+04 -1.772707e+04 -4.584043e+00 -4.758249e+00 1.444154e+00
10             -1.481642e+05 -4.319756e+04 -5.193168e+04 -1.481608e+05 -4.319083e+04 -5.193288e+04 -3.404910e+00 -6.723421e+00 1.198899e+00
11             -3.748323e+04 -6.843933e+04 -3.677779e+04 -3.748134e+04 -6.843405e+04 -3.678034e+04 -1.888743e+00 -5.284478e+00 2.546646e+00
12             5.359355e+04 -6.666357e+04 4.170369e+03 5.359415e+04 -6.665890e+04 4.166002e+03 -5.984447e-01 -4.662638e+00 4.366822e+00
13             6.733994e+04 -4.627353e+04 2.181372e+04 6.733966e+04 -4.626802e+04 2.180806e+04 2.787380e-01 -5.512486e+00 5.654980e+00
14             4.576478e+04 -3.173439e+04 1.174276e+04 4.576429e+04 -3.172796e+04 1.173632e+04 4.922034e-01 -6.428583e+00 6.441952e+00
15             3.718208e+04 -2.930151e+04 -4.772867e+02 3.718309e+04 -2.929394e+04 -4.839754e+02 -1.011959e+00 -7.573587e+00 6.688746e+00
16             2.580437e+04 -2.881870e+04 -1.121757e+03 2.580767e+04 -2.881079e+04 -1.128962e+03 -3.304013e+00 -7.908187e+00 7.205074e+00
17             1.069391e+04 -2.568803e+04 2.690613e+03 1.069925e+04 -2.567874e+04 2.681924e+03 -5.338610e+00 -9.295287e+00 8.689212e+00
18             -1.772088e+03 -1.801529e+04 4.182731e+03 -1.766495e+03 -1.800498e+04 4.173011e+03 -5.592853e+00 -1.030890e+01 9.719440e+00
19             -3.997855e+03 -9.485189e+03 4.558262e+03 -3.992058e+03 -9.473828e+03 4.548221e+03 -5.796647e+00 -1.136065e+01 1.004089e+01
20             -3.986846e+02 -5.508005e+03 3.715721e+03 -3.931850e+02 -5.495150e+03 3.707244e+03 -5.499609e+00 -1.285520e+01 8.477207e+00
21             2.298604e+03 -5.034135e+03 2.582889e+03 2.303523e+03 -5.021974e+03 2.576602e+03 -4.918765e+00 -1.216108e+01 6.286947e+00
22             1.850702e+03 -5.710082e+03 1.597594e+03 1.855364e+03 -5.699575e+03 1.593162e+03 -4.661373e+00 -1.050664e+01 4.432335e+00
23             -1.651986e+02 -5.478620e+03 1.260834e+03 -1.604388e+02 -5.470276e+03 1.257221e+03 -4.759725e+00 -8.344419e+00 3.612989e+00
24             -1.646712e+03 -3.958445e+03 1.549401e+03 -1.642257e+03 -3.951695e+03 1.545946e+03 -4.454378e+00 -6.749893e+00 3.455027e+00
25             -1.811324e+03 -2.380837e+03 1.893033e+03 -1.807761e+03 -2.374246e+03 1.890250e+03 -3.562547e+00 -6.590843e+00 2.782947e+00
26             -1.323649e+03 -1.633862e+03 1.775484e+03 -1.320073e+03 -1.626483e+03 1.773714e+03 -3.576815e+00 -7.378815e+00 1.769353e+00
27             -7.793390e+02 -1.850638e+03 1.122869e+03 -7.755883e+02 -1.842622e+03 1.121110e+03 -3.750690e+00 -8.015310e+00 1.759087e+00
28             -4.200695e+02 -2.812227e+03 3.733889e+02 -4.160277e+02 -2.804655e+03 3.713339e+02 -4.041849e+00 -7.572071e+00 2.055066e+00
29             -4.512278e+02 -3.972197e+03 2.291925e+02 -4.472207e+02 -3.966057e+03 2.270585e+02 -4.007076e+00 -6.140010e+00 2.133953e+00
30             -8.352187e+02 -4.541068e+03 6.681024e+02 -8.310541e+02 -4.535461e+03 6.659279e+02 -4.164644e+00 -5.607170e+00 2.174463e+00
31             -1.244371e+03 -4.386234e+03 1.390649e+03 -1.240404e+03 -4.380289e+03 1.388150e+03 -3.967675e+00 -5.945650e+00 2.499672e+00
32             -1.512163e+03 -3.011553e+03 2.246662e+03 -1.508370e+03 -3.005165e+03 2.243217e+03 -3.792800e+00 -6.387883e+00 3.444869e+00
33             -1.515048e+03 -1.005135e+02 2.765949e+03 -1.511419e+03 -9.397993e+01 2.761843e+03 -3.629584e+00 -6.533529e+00 4.106406e+00
34             -1.380933e+03 2.051515e+03 2.628839e+03 -1.377717e+03 2.057318e+03 2.624308e+03 -3.215293e+00 -5.802693e+00 4.531318e+00
35             -1.221377e+03 2.636627e+03 2.185666e+03 -1.218529e+03 2.641036e+03 2.180458e+03 -2.847881e+00 -4.408542e+00 5.207962e+00
36             -1.059952e+03 2.125856e+03 1.713683e+03 -1.056936e+03 2.129021e+03 1.707597e+03 -3.015778e+00 -3.164596e+00 6.086426e+00
37             -8.833102e+02 6.611711e+02 1.324755e+03 -8.798577e+02 6.638844e+02 1.317660e+03 -3.452504e+00 -2.713323e+00 7.095533e+00
38             -6.895122e+02 -9.941351e+02 1.050684e+03 -6.856638e+02 -9.911438e+02 1.042687e+03 -3.848414e+00 -2.991243e+00 7.996420e+00
39             -5.261784e+02 -1.657024e+03 8.757121e+02 -5.221530e+02 -1.653579e+03 8.670651e+02 -4.025357e+00 -3.444143e+00 8.647066e+00
40             -4.009361e+02 -1.491299e+03 7.200052e+02 -3.969285e+02 -1.487486e+03 7.109717e+02 -4.007568e+00 -3.812793e+00 9.033470e+00
41             -2.827878e+02 -9.508928e+02 5.206737e+02 -2.788403e+02 -9.468639e+02 5.113718e+02 -3.947587e+00 -4.028904e+00 9.301926e+00
42             -1.751653e+02 -4.573832e+02 3.030647e+02 -1.712403e+02 -4.530957e+02 2.935612e+02 -3.924974e+00 -4.287462e+00 9.503469e+00
43             -1.517328e+02 -4.735554e+02 2.186066e+02 -1.477935e+02 -4.687910e+02 2.089299e+02 -3.939339e+00 -4.764422e+00 9.676711e+00
44             -1.817759e+02 -8.772572e+02 2.377771e+02 -1.778413e+02 -8.719149e+02 2.280065e+02 -3.934579e+00 -5.342242e+00 9.770577e+00
45             -2.061793e+02 -1.299227e+03 2.575933e+02 -2.023145e+02 -1.293451e+03 2.478662e+02 -3.864753e+00 -5.775258e+00 9.727116e+00
46             -2.160958e+02 -1.539140e+03 2.570394e+02 -2.123766e+02 -1.533236e+03 2.475407e+02 -3.719201e+00 -5.903598e+00 9.498724e+00
47             -2.055736e+02 -1.499104e+03 2.330357e+02 -2.020411e+02 -1.493241e+03 2.238822e+02 -3.532441e+00 -5.862562e+00 9.153454e+00
48             -1.777364e+02 -1.234652e+03 2.001417e+02 -1.744082e+02 -1.228762e+03 1.913936e+02 -3.328255e+00 -5.890402e+00 8.748065e+00
49             -1.387643e+02 -8.794362e+02 1.644922e+02 -1.356567e+02 -8.733598e+02 1.562182e+02 -3.107522e+00 -6.076359e+00 8.273994e+00
50             -9.037976e+01 -5.254845e+02 1.133864e+02 -8.752253e+01 -5.192287e+02 1.056447e+02 -2.857222e+00 -6.255789e+00 7.741707e+00
51             -5.711834e+01 -3.672692e+02 6.536936e+01 -5.452852e+01 -3.610427e+02 5.820446e+01 -2.589816e+00 -6.226566e+00 7.164905e+00
52             -3.822226e+01 -3.802256e+02 2.010703e+01 -3.588373e+01 -3.742434e+02 1.350996e+01 -2.338535e+00 -5.982176e+00 6.597065e+00
53             -1.815371e+01 -4.052963e+02 -3.001927e+01 -1.604124e+01 -3.996159e+02 -3.606594e+01 -2.112463e+00 -5.680363e+00 6.046673e+00
54             8.268499e+00 -3.747160e+02 -8.163951e+01 1.016753e+01 -3.692550e+02 -8.713747e+01 -1.899026e+00 -5.460969e+00 5.497956e+00
55             3.694116e+01 -2.776576e+02 -1.219017e+02 3.862892e+01 -2.723063e+02 -1.268543e+02 -1.687755e+00 -5.351320e+00 4.952656e+00
56             6.256863e+01 -1.236017e+02 -1.445803e+02 6.404552e+01 -1.183246e+02 -1.489963e+02 -1.476897e+00 -5.277092e+00 4.416069e+00
57             7.429300e+01 5.990121e+01 -1.387237e+02 7.556746e+01 6.504583e+01 -1.426268e+02 -1.274462e+00 -5.144622e+00 3.903140e+00
58             6.085026e+01 1.508833e+02 -1.006527e+02 6.194507e+01 1.558128e+02 -1.040910e+02 -1.094806e+00 -4.929574e+00 3.438270e+00
59             4.334110e+01 1.497763e+02 -6.929338e+01 4.429015e+01 1.544557e+02 -7.233453e+01 -9.490530e-01 -4.679353e+00 3.041153e+00
60             2.886029e+01 1.290295e+02 -4.501109e+01 2.969689e+01 1.334802e+02 -4.772335e+01 -8.366014e-01 -4.450718e+00 2.712256e+00
61             1.356524e+01 1.095537e+02 -1.427583e+01 1.431777e+01 1.138268e+02 -1.672066e+01 -7.525296e-01 -4.273144e+00 2.444827e+00
62             -5.863964e+00 9.770272e+01 3.106763e+01 -5.167832e+00 1.018467e+02 2.883015e+01 -6.961319e-01 -4.143969e+00 2.237480e+00
63             -3.281956e+01 9.339821e+01 9.594540e+01 -3.215223e+01 9.744091e+01 9.385853e+01 -6.673341e-01 -4.042697e+00 2.086868e+00
64             -6.413639e+01 9.016826e+01 1.709736e+02 -6.347395e+01 9.412151e+01 1.689905e+02 -6.624380e-01 -3.953247e+00 1.983146e+00
65             -7.689294e+01 7.185996e+01 2.044253e+02 -7.622298e+01 7.573079e+01 2.025205e+02 -6.699581e-01 -3.870833e+00 1.904872e+00
66             -7.122911e+01 4.639162e+01 1.959482e+02 -7.055428e+01 5.019439e+01 1.941227e+02 -6.748260e-01 -3.802778e+00 1.825504e+00
67             -5.710396e+01 1.720745e+01 1.703270e+02 -5.643275e+01 2.096193e+01 1.685904e+02 -6.712102e-01 -3.754475e+00 1.736596e+00
68             -3.490898e+01 -1.404089e+01 1.297418e+02 -3.424857e+01 -1.031498e+01 1.280999e+02 -6.604064e-01 -3.725912e+00 1.641870e+00
69             -6.783917e+00 -3.461886e+01 7.708686e+01 -6.138739e+00 -3.090703e+01 7.554200e+01 -6.451775e-01 -3.711833e+00 1.544857e+00
70             2.518377e+01 -3.018680e+01 1.413010e+01 2.580924e+01 -2.648542e+01 1.268713e+01 -6.254688e-01 -3.701376e+00 1.442974e+00
71             6.268240e+01 9.507966e+00 -6.436535e+01 6.328024e+01 1.319022e+01 -6.569314e+01 -5.978387e-01 -3.682253e+00 1.327787e+00
72             1.018264e+02 7.971851e+01 -1.505686e+02 1.023843e+02 8.336139e+01 -1.517585e+02 -5.579309e-01 -3.642883e+00 1.189867e+00
73             1.279309e+02 1.376431e+02 -2.115551e+02 1.284383e+02 1.412238e+02 -2.125878e+02 -5.073574e-01 -3.580735e+00 1.032752e+00
74             1.427500e+02 1.688690e+02 -2.484719e+02 1.432031e+02 1.723728e+02 -2.493431e+02 -4.531233e-01 -3.503880e+00 8.711718e-01
75             1.546761e+02 1.942907e+02 -2.792932e+02 1.550762e+02 1.977051e+02 -2.800082e+02 -4.000991e-01 -3.414402e+00 7.150139e-01
76             1.626485e+02 2.249559e+02 -3.024157e+02 1.629991e+02 2.282611e+02 -3.029845e+02 -3.505980e-01 -3.305202e+00 5.687987e-01
77             1.609312e+02 2.585595e+02 -3.053636e+02 1.612385e+02 2.617333e+02 -3.058014e+02 -3.073674e-01 -3.173815e+00 4.377893e-01
78             1.455720e+02 2.862513e+02 -2.791115e+02 1.458456e+02 2.892760e+02 -2.794413e+02 -2.736368e-01 -3.024605e+00 3.297553e-01
79             1.187650e+02 2.968412e+02 -2.273910e+02 1.190165e+02 2.997077e+02 -2.276425e+02 -2.515013e-01 -2.866504e+00 2.515258e-01
80             9.347481e+01 2.859489e+02 -1.767381e+02 9.371409e+01 2.886578e+02 -1.769408e+02 -2.392812e-01 -2.708814e+00 2.026864e-01
81             7.931521e+01 2.664899e+02 -1.481463e+02 7.954688e+01 2.690446e+02 -1.483198e+02 -2.316728e-01 -2.554704e+00 1.734355e-01
82             7.231058e+01 2.517553e+02 -1.345806e+02 7.253477e+01 2.541561e+02 -1.347338e+02 -2.241925e-01 -2.400798e+00 1.532402e-01
83             6.604516e+01 2.439841e+02 -1.230993e+02 6.626115e+01 2.462275e+02 -1.232369e+02 -2.159951e-01 -2.243339e+00 1.376308e-01
84             5.808195e+01 2.403582e+02 -1.083453e+02 5.828970e+01 2.424399e+02 -1.084714e+02 -2.077537e-01 -2.081631e+00 1.261332e-01
85             4.982295e+01 2.368933e+02 -9.275748e+01 5.002264e+01 2.388099e+02 -9.287570e+01 -1.996885e-01 -1.916581e+00 1.182192e-01
86             4.393274e+01 2.315378e+02 -8.182397e+01 4.412406e+01 2.332864e+02 -8.193605e+01 -1.913209e-01 -1.748558e+00 1.120743e-01
87             4.124657e+01 2.256048e+02 -7.762014e+01 4.142868e+01 2.271817e+02 -7.772543e+01 -1.821088e-01 -1.576874e+00 1.052891e-01
88             3.985258e+01 2.213303e+02 -7.642796e+01 4.002473e+01 2.227310e+02 -7.652471e+01 -1.721495e-01 -1.400694e+00 9.675527e-02
89             3.753637e+01 2.188924e+02 -7.358965e+01 3.769869e+01 2.201127e+02 -7.367673e+01 -1.623161e-01 -1.220273e+00 8.707942e-02
90             3.377875e+01 2.167440e+02 -6.781099e+01 3.393241e+01 2.177810e+02 -6.788863e+01 -1.536588e-01 -1.037030e+00 7.764050e-02
91             2.951506e+01 2.136048e+02 -6.085614e+01 2.966173e+01 2.144575e+02 -6.092548e+01 -1.466670e-01 -8.526888e-01 6.934085e-02
92             2.592894e+01 2.093192e+02 -5.516799e+01 2.607036e+01 2.099878e+02 -5.523029e+01 -1.414265e-01 -6.686493e-01 6.230286e-02
93             2.339706e+01 2.046986e+02 -5.160145e+01 2.353488e+01 2.051846e+02 -5.165758e+01 -1.378215e-01 -4.860430e-01 5.613072e-02
94             2.146570e+01 2.006017e+02 -4.925378e+01 2.160145e+01 2.009077e+02 -4.930418e+01 -1.357517e-01 -3.059955e-01 5.040670e-02
95             1.951507e+01 1.972235e+02 -4.682188e+01 1.965026e+01 1.973531e+02 -4.686682e+01 -1.351879e-01 -1.296079e-01 4.493949e-02
96             1.731357e+01 1.941555e+02 -4.378115e+01 1.744960e+01 1.941133e+02 -4.382093e+01 -1.360274e-01 4.221085e-02 3.977371e-02
97             1.505263e+01 1.909202e+02 -4.048324e+01 1.519074e+01 1.907114e+02 -4.051831e+01 -1.381068e-01 2.087918e-01 3.507081e-02
98             1.301598e+01 1.874334e+02 -3.747308e+01 1.315715e+01 1.870636e+02 -3.750398e+01 -1.411796e-01 3.697974e-01 3.090400e-02
99             1.129898e+01 1.839502e+02 -3.493829e+01 1.144401e+01 1.834254e+02 -3.496545e+01 -1.450355e-01 5.248038e-01 2.716038e-02
100            9.819434e+00 1.807527e+02 -3.271114e+01 9.968894e+00 1.800791e+02 -3.273483e+01 -1.494600e-01 6.735498e-01 2.368509e-02
101            8.431314e+00 1.778991e+02 -3.050594e+01 8.585628e+00 1.770832e+02 -3.052633e+01 -1.543133e-01 8.158259e-01 2.038785e-02
102            7.051119e+00 1.752097e+02 -2.817467e+01 7.210609e+00 1.742582e+02 -2.819198e+01 -1.594902e-01 9.514614e-01 1.731254e-02
103            5.687232e+00 1.724670e+02 -2.575201e+01 5.852119e+00 1.713866e+02 -2.576660e+01 -1.648875e-01 1.080369e+00 1.458833e-02
104            4.411782e+00 1.695646e+02 -2.339070e+01 4.582108e+00 1.683620e+02 -2.340297e+01 -1.703265e-01 1.202577e+00 1.226580e-02
105            3.272228e+00 1.665461e+02 -2.119147e+01 3.447845e+00 1.652280e+02 -2.120173e+01 -1.756175e-01 1.318118e+00 1.025624e-02
106            2.264168e+00 1.635148e+02 -1.915206e+01 2.444719e+00 1.620877e+02 -1.916051e+01 -1.805511e-01 1.427122e+00 8.446754e-03
107            1.351987e+00 1.605415e+02 -1.720470e+01 1.536972e+00 1.590118e+02 -1.721142e+01 -1.849850e-01 1.529635e+00 6.713693e-03
108            5.055836e-01 1.576204e+02 -1.529053e+01 6.943881e-01 1.559946e+02 -1.529553e+01 -1.888045e-01 1.625801e+00 4.999313e-03
109            -2.865095e-01 1.547393e+02 -1.339546e+01 -9.457906e-02 1.530235e+02 -1.339878e+01 -1.919304e-01 1.715825e+00 3.320648e-03
110            -1.018923e+00 1.519185e+02 -1.154838e+01 -8.245856e-01 1.501185e+02 -1.155012e+01 -1.943376e-01 1.799964e+00 1.743366e-03
111            -1.669866e+00 1.492122e+02 -9.809046e+00 -1.473859e+00 1.473336e+02 -9.809403e+00 -1.960064e-01 1.878606e+00 3.570730e-04
112            -2.236206e+00 1.466431e+02 -8.190764e+00 -2.039264e+00 1.446910e+02 -8.189979e+00 -1.969414e-01 1.952013e+00 -7.847262e-04
113            -2.735894e+00 1.441966e+02 -6.659984e+00 -2.538703e+00 1.421763e+02 -6.658334e+00 -1.971911e-01 2.020356e+00 -1.650833e-03
114            -3.170370e+00 1.418728e+02 -5.220156e+00 -2.973598e+00 1.397889e+02 -5.217970e+00 -1.967729e-01 2.083882e+00 -2.186041e-03
115            -3.523245e+00 1.396918e+02 -3.916251e+00 -3.327526e+00 1.375490e+02 -3.913892e+00 -1.957188e-01 2.142814e+00 -2.358283e-03
116            -3.783345e+00 1.376553e+02 -2.780056e+00 -3.589279e+00 1.354579e+02 -2.777914e+00 -1.940661e-01 2.197395e+00 -2.142172e-03
117            -3.950553e+00 1.357551e+02 -1.818043e+00 -3.758676e+00 1.335073e+02 -1.816496e+00 -1.918768e-01 2.247750e+00 -1.546965e-03
118            -4.033332e+00 1.339946e+02 -1.022319e+00 -3.844136e+00 1.317006e+02 -1.021736e+00 -1.891965e-01 2.294044e+00 -5.828466e-04
119            -4.042628e+00 1.323521e+02 -3.743452e-01 -3.856569e+00 1.300157e+02 -3.750631e-01 -1.860588e-01 2.336427e+00 7.179193e-04
120            -3.989635e+00 1.307142e+02 1.607964e-01 -3.807147e+00 1.283393e+02 1.585040e-01 -1.824878e-01 2.374984e+00 2.292351e-03
121            -3.865221e+00 1.290277e+02 5.623150e-01 -3.686711e+00 1.266179e+02 5.582608e-01 -1.785097e-01 2.409786e+00 4.054239e-03
122            -3.631669e+00 1.275986e+02 6.974622e-01 -3.457518e+00 1.251576e+02 6.915412e-01 -1.741514e-01 2.441024e+00 5.920984e-03
123            -3.398139e+00 1.270780e+02 6.467760e-01 -3.228654e+00 1.246086e+02 6.389551e-01 -1.694856e-01 2.469358e+00 7.820901e-03
124            -3.094484e+00 1.264759e+02 5.375140e-01 -2.929930e+00 1.239809e+02 5.277856e-01 -1.645544e-01 2.494950e+00 9.728449e-03
125            -2.696062e+00 1.254290e+02 4.118229e-01 -2.536742e+00 1.229119e+02 4.001874e-01 -1.593193e-01 2.517062e+00 1.163550e-02
126            -2.305132e+00 1.241360e+02 2.768854e-01 -2.151370e+00 1.216006e+02 2.633714e-01 -1.537618e-01 2.535438e+00 1.351399e-02
127            -1.947496e+00 1.230116e+02 3.757886e-02 -1.799562e+00 1.204611e+02 2.232461e-02 -1.479342e-01 2.550427e+00 1.525425e-02
128            -1.578109e+00 1.221990e+02 -3.377197e-01 -1.436130e+00 1.196363e+02 -3.544129e-01 -1.419790e-01 2.562740e+00 1.669323e-02
129            -1.119193e+00 1.215228e+02 -8.733178e-01 -9.831736e-01 1.189503e+02 -8.911172e-01 -1.360194e-01 2.572527e+00 1.779938e-02
130            -5.715207e-01 1.208863e+02 -1.524361e+00 -4.414327e-01 1.183066e+02 -1.542962e+00 -1.300881e-01 2.579640e+00 1.860022e-02
131            6.391062e-02 1.200753e+02 -2.287246e+00 1.880483e-01 1.174914e+02 -2.306360e+00 -1.241377e-01 2.583844e+00 1.911391e-02
132            6.814912e-01 1.189909e+02 -3.043148e+00 7.995856e-01 1.164058e+02 -3.062456e+00 -1.180944e-01 2.585096e+00 1.930804e-02
133            1.234540e+00 1.176424e+02 -3.767878e+00 1.346482e+00 1.150589e+02 -3.786991e+00 -1.119416e-01 2.583480e+00 1.911326e-02
134            1.751951e+00 1.163118e+02 -4.518730e+00 1.857677e+00 1.137326e+02 -4.537232e+00 -1.057260e-01 2.579196e+00 1.850255e-02
135            2.173881e+00 1.155317e+02 -5.158217e+00 2.273378e+00 1.129590e+02 -5.175739e+00 -9.949662e-02 2.572753e+00 1.752221e-02
136            2.765947e+00 1.146263e+02 -6.087998e+00 2.859177e+00 1.120620e+02 -6.104152e+00 -9.322943e-02 2.564273e+00 1.615405e-02
137            3.506746e+00 1.134496e+02 -7.261326e+00 3.593629e+00 1.108961e+02 -7.275690e+00 -8.688275e-02 2.553452e+00 1.436384e-02
138            4.220465e+00 1.119716e+02 -8.391537e+00 4.300932e+00 1.094314e+02 -8.403743e+00 -8.046717e-02 2.540205e+00 1.220613e-02
139            4.793878e+00 1.101697e+02 -9.310086e+00 4.867921e+00 1.076452e+02 -9.319848e+00 -7.404290e-02 2.524593e+00 9.762408e-03
140            5.232064e+00 1.083283e+02 -1.004829e+01 5.299727e+00 1.058215e+02 -1.005539e+01 -6.766367e-02 2.506762e+00 7.095706e-03
141            5.562665e+00 1.071703e+02 -1.064434e+01 5.624047e+00 1.046831e+02 -1.064857e+01 -6.138214e-02 2.487159e+00 4.236588e-03
142            6.057610e+00 1.057607e+02 -1.153270e+01 6.112751e+00 1.032947e+02 -1.153385e+01 -5.514107e-02 2.466060e+00 1.147216e-03
143            6.752040e+00 1.037873e+02 -1.274485e+01 6.800908e+00 1.013441e+02 -1.274262e+01 -4.886828e-02 2.443178e+00 -2.226962e-03
144            7.440441e+00 1.013141e+02 -1.390838e+01 7.483052e+00 9.889586e+01 -1.390253e+01 -4.261083e-02 2.418244e+00 -5.848063e-03
145            7.864769e+00 9.896082e+01 -1.461084e+01 7.901277e+00 9.656941e+01 -1.460127e+01 -3.650817e-02 2.391415e+00 -9.574965e-03
146            8.097264e+00 9.710372e+01 -1.501541e+01 8.127779e+00 9.474012e+01 -1.500221e+01 -3.051537e-02 2.363598e+00 -1.319717e-02
147            8.340936e+00 9.548639e+01 -1.546703e+01 8.365414e+00 9.315131e+01 -1.545023e+01 -2.447814e-02 2.335088e+00 -1.679333e-02
148            8.743452e+00 9.313526e+01 -1.618334e+01 8.761783e+00 9.082971e+01 -1.616275e+01 -1.833060e-02 2.305556e+00 -2.059599e-02
149            9.184241e+00 9.010875e+01 -1.692899e+01 9.196407e+00 8.783410e+01 -1.690438e+01 -1.216548e-02 2.274643e+00 -2.461576e-02
150            9.384173e+00 8.770002e+01 -1.728547e+01 9.390272e+00 8.545741e+01 -1.725675e+01 -6.099291e-03 2.242603e+00 -2.871886e-02
151            9.377190e+00 8.599185e+01 -1.734972e+01 9.377395e+00 8.378207e+01 -1.731686e+01 -2.049273e-04 2.209779e+00 -3.285521e-02
152            9.327960e+00 8.441465e+01 -1.738407e+01 9.322465e+00 8.223843e+01 -1.734700e+01 5.495034e-03 2.176215e+00 -3.707404e-02
153            9.271911e+00 8.232156e+01 -1.742761e+01 9.260900e+00 8.017985e+01 -1.738620e+01 1.101091e-02 2.141716e+00 -4.140878e-02
154            9.177748e+00 7.993247e+01 -1.739330e+01 9.161470e+00 7.782645e+01 -1.734748e+01 1.627862e-02 2.106022e+00 -4.581194e-02
155            9.032167e+00 7.800056e+01 -1.723690e+01 9.010893e+00 7.593149e+01 -1.718668e+01 2.127351e-02 2.069068e+00 -5.022036e-02
156            8.859811e+00 7.666018e+01 -1.699812e+01 8.833802e+00 7.462943e+01 -1.694349e+01 2.600885e-02 2.030751e+00 -5.463741e-02
157            8.673635e+00 7.545681e+01 -1.670379e+01 8.643185e+00 7.346596e+01 -1.664467e+01 3.045033e-02 1.990856e+00 -5.912350e-02
158            8.444726e+00 7.396562e+01 -1.630320e+01 8.410115e+00 7.201653e+01 -1.623953e+01 3.461198e-02 1.949089e+00 -6.367494e-02
159            8.153859e+00 7.224715e+01 -1.575068e+01 8.115413e+00 7.034182e+01 -1.568247e+01 3.844679e-02 1.905330e+00 -6.821503e-02
160            7.807720e+00 7.062494e+01 -1.505561e+01 7.765853e+00 6.876528e+01 -1.498300e+01 4.186715e-02 1.859653e+00 -7.261330e-02
161            7.447006e+00 6.929793e+01 -1.429439e+01 7.402121e+00 6.748578e+01 -1.421763e+01 4.488523e-02 1.812151e+00 -7.676501e-02
162            7.084718e+00 6.814793e+01 -1.347887e+01 7.037201e+00 6.638503e+01 -1.339831e+01 4.751692e-02 1.762905e+00 -8.055654e-02
163            6.691891e+00 6.696512e+01 -1.253318e+01 6.642114e+00 6.525308e+01 -1.244928e+01 4.977703e-02 1.712040e+00 -8.390355e-02
164            6.267352e+00 6.568780e+01 -1.145265e+01 6.215692e+00 6.402788e+01 -1.136595e+01 5.166004e-02 1.659920e+00 -8.670325e-02
165            5.855126e+00 6.440764e+01 -1.035359e+01 5.802017e+00 6.280087e+01 -1.026468e+01 5.310906e-02 1.606766e+00 -8.890827e-02
166            5.474730e+00 6.318289e+01 -9.308555e+00 5.420574e+00 6.163009e+01 -9.218023e+00 5.415624e-02 1.552798e+00 -9.053265e-02
167            5.099864e+00 6.196805e+01 -8.286468e+00 5.045084e+00 6.046987e+01 -8.194834e+00 5.478053e-02 1.498184e+00 -9.163399e-02
168            4.706135e+00 6.067256e+01 -7.244320e+00 4.651146e+00 5.922950e+01 -7.152061e+00 5.498989e-02 1.443058e+00 -9.225923e-02
169            4.315226e+00 5.927703e+01 -6.226618e+00 4.260457e+00 5.788939e+01 -6.134186e+00 5.476891e-02 1.387645e+00 -9.243133e-02
170            3.971119e+00 5.783997e+01 -5.329982e+00 3.916858e+00 5.650774e+01 -5.237777e+00 5.426044e-02 1.332235e+00 -9.220444e-02
171            3.688846e+00 5.640422e+01 -4.594002e+00 3.635222e+00 5.512700e+01 -4.502342e+00 5.362330e-02 1.277222e+00 -9.166014e-02
172            3.456166e+00 5.497772e+01 -4.002030e+00 3.403196e+00 5.375484e+01 -3.911129e+00 5.296911e-02 1.222888e+00 -9.090103e-02
173            3.252945e+00 5.354622e+01 -3.521268e+00 3.200572e+00 5.237658e+01 -3.431281e+00 5.237243e-02 1.169640e+00 -8.998739e-02
174            3.069023e+00 5.207918e+01 -3.137747e+00 3.017189e+00 5.096132e+01 -3.048802e+00 5.183371e-02 1.117865e+00 -8.894487e-02
175            2.912044e+00 5.062331e+01 -2.872503e+00 2.860677e+00 4.955521e+01 -2.784767e+00 5.136702e-02 1.068094e+00 -8.773598e-02
176            2.816291e+00 4.936524e+01 -2.783327e+00 2.765321e+00 4.834432e+01 -2.696971e+00 5.096933e-02 1.020922e+00 -8.635655e-02
177            2.795447e+00 4.844513e+01 -2.902506e+00 2.744775e+00 4.746825e+01 -2.817689e+00 5.067197e-02 9.768781e-01 -8.481704e-02
178            2.830205e+00 4.782836e+01 -3.214139e+00 2.779729e+00 4.689198e+01 -3.130986e+00 5.047669e-02 9.363804e-01 -8.315292e-02
179            2.888137e+00 4.738150e+01 -3.686782e+00 2.837732e+00 4.648187e+01 -3.605427e+00 5.040571e-02 8.996303e-01 -8.135522e-02
180            2.956678e+00 4.699306e+01 -4.302254e+00 2.906198e+00 4.612635e+01 -4.222760e+00 5.048057e-02 8.667123e-01 -7.949378e-02
181            3.036011e+00 4.663489e+01 -5.033223e+00 2.985395e+00 4.579706e+01 -4.955604e+00 5.061602e-02 8.378358e-01 -7.761902e-02
182            3.129577e+00 4.632487e+01 -5.826882e+00 3.078821e+00 4.551224e+01 -5.751104e+00 5.075668e-02 8.126247e-01 -7.577754e-02
183            3.234341e+00 4.601057e+01 -6.626859e+00 3.183454e+00 4.521997e+01 -6.552753e+00 5.088685e-02 7.906059e-01 -7.410550e-02
184            3.327396e+00 4.557856e+01 -7.369703e+00 3.276350e+00 4.480714e+01 -7.296964e+00 5.104678e-02 7.714168e-01 -7.273895e-02
185            3.397120e+00 4.498566e+01 -8.012109e+00 3.345911e+00 4.423089e+01 -7.940345e+00 5.120955e-02 7.547649e-01 -7.176421e-02
186            3.433499e+00 4.434269e+01 -8.515458e+00 3.382175e+00 4.360237e+01 -8.444255e+00 5.132330e-02 7.403230e-01 -7.120211e-02
187            3.417831e+00 4.370837e+01 -8.833423e+00 3.366322e+00 4.298097e+01 -8.762231e+00 5.150816e-02 7.273960e-01 -7.119153e-02
188            3.336012e+00 4.310111e+01 -8.931543e+00 3.284271e+00 4.238542e+01 -8.859711e+00 5.174116e-02 7.156868e-01 -7.183163e-02
189            3.173636e+00 4.258076e+01 -8.774599e+00 3.121470e+00 4.187581e+01 -8.701285e+00 5.216606e-02 7.049465e-01 -7.331448e-02
190            2.922766e+00 4.225776e+01 -8.347344e+00 2.869911e+00 4.156274e+01 -8.271618e+00 5.285544e-02 6.950203e-01 -7.572620e-02
191            2.598517e+00 4.224433e+01 -7.683304e+00 2.544745e+00 4.155864e+01 -7.604247e+00 5.377172e-02 6.856952e-01 -7.905610e-02
192            2.216343e+00 4.255093e+01 -6.826541e+00 2.161477e+00 4.187407e+01 -6.743354e+00 5.486635e-02 6.768528e-01 -8.318701e-02
193            1.774613e+00 4.314637e+01 -5.802083e+00 1.718571e+00 4.247795e+01 -5.714109e+00 5.604155e-02 6.684148e-01 -8.797494e-02
194            1.279209e+00 4.394320e+01 -4.651937e+00 1.222139e+00 4.328278e+01 -4.558769e+00 5.707023e-02 6.604209e-01 -9.316831e-02
195            7.747094e-01 4.474519e+01 -3.470112e+00 7.171731e-01 4.409247e+01 -3.371797e+00 5.753638e-02 6.527168e-01 -9.831476e-02
196            3.180827e-01 4.537289e+01 -2.353551e+00 2.611073e-01 4.472816e+01 -2.250627e+00 5.697546e-02 6.447358e-01 -1.029245e-01
197            -6.300054e-02 4.578218e+01 -1.329284e+00 -1.183968e-01 4.514600e+01 -1.222459e+00 5.539626e-02 6.361736e-01 -1.068242e-01
198            -3.761645e-01 4.601070e+01 -3.640277e-01 -4.290376e-01 4.538410e+01 -2.541138e-01 5.287312e-02 6.265942e-01 -1.099139e-01
199            -6.330988e-01 4.605264e+01 5.699282e-01 -6.827795e-01 4.543738e+01 6.821237e-01 4.968073e-02 6.152631e-01 -1.121955e-01
200            -8.089152e-01 4.581440e+01 1.427511e+00 -8.549723e-01 4.521226e+01 1.541086e+00 4.605712e-02 6.021401e-01 -1.135754e-01
201            -8.742064e-01 4.519655e+01 2.138033e+00 -9.163013e-01 4.460898e+01 2.251974e+00 4.209490e-02 5.875701e-01 -1.139407e-01
202            -8.382892e-01 4.416036e+01 2.679643e+00 -8.761692e-01 4.358831e+01 2.792816e+00 3.787999e-02 5.720462e-01 -1.131731e-01
203            -7.606149e-01 4.279309e+01 3.112802e+00 -7.940817e-01 4.223651e+01 3.223941e+00 3.346678e-02 5.565753e-01 -1.111386e-01
204            -6.907704e-01 4.131343e+01 3.507141e+00 -7.197689e-01 4.077207e+01 3.615059e+00 2.899847e-02 5.413601e-01 -1.079180e-01
205            -6.341002e-01 3.992166e+01 3.892473e+00 -6.586927e-01 3.939565e+01 3.996232e+00 2.459250e-02 5.260124e-01 -1.037592e-01
206            -5.506085e-01 3.875548e+01 4.213508e+00 -5.707704e-01 3.824540e+01 4.312175e+00 2.016184e-02 5.100876e-01 -9.866700e-02
207            -3.961188e-01 3.796948e+01 4.379053e+00 -4.116201e-01 3.747652e+01 4.471616e+00 1.550133e-02 4.929551e-01 -9.256263e-02
208            -1.332086e-01 3.774400e+01 4.272637e+00 -1.436744e-01 3.726964e+01 4.358056e+00 1.046586e-02 4.743556e-01 -8.541940e-02
209            2.235973e-01 3.812019e+01 3.831320e+00 2.185466e-01 3.766576e+01 3.908564e+00 5.050712e-03 4.544358e-01 -7.724393e-02
210            6.231634e-01 3.896680e+01 3.080532e+00 6.239459e-01 3.853226e+01 3.148420e+00 -7.825127e-04 4.345398e-01 -6.788853e-02
211            1.046739e+00 4.003979e+01 2.060144e+00 1.053340e+00 3.962402e+01 2.117594e+00 -6.600923e-03 4.157710e-01 -5.744968e-02
212            1.497962e+00 4.113841e+01 8.251379e-01 1.509957e+00 4.073954e+01 8.712864e-01 -1.199492e-02 3.988701e-01 -4.614853e-02
213            1.960652e+00 4.202351e+01 -5.492423e-01 1.977299e+00 4.163982e+01 -5.146631e-01 -1.664733e-02 3.836858e-01 -3.457921e-02
214            2.401517e+00 4.254276e+01 -2.003715e+00 2.421808e+00 4.217221e+01 -1.980339e+00 -2.029172e-02 3.705463e-01 -2.337548e-02
215            2.807369e+00 4.267945e+01 -3.527405e+00 2.830286e+00 4.231931e+01 -3.514581e+00 -2.291764e-02 3.601306e-01 -1.282390e-02
216            3.191478e+00 4.244852e+01 -5.151077e+00 3.216211e+00 4.209613e+01 -5.147989e+00 -2.473302e-02 3.523906e-01 -3.087350e-03
217            3.569161e+00 4.191783e+01 -6.828826e+00 3.595085e+00 4.157092e+01 -6.834599e+00 -2.592436e-02 3.469156e-01 5.772604e-03
218            3.923789e+00 4.126506e+01 -8.400607e+00 3.950272e+00 4.092167e+01 -8.414218e+00 -2.648248e-02 3.433898e-01 1.361012e-02
219            4.199728e+00 4.052076e+01 -9.702378e+00 4.225915e+00 4.017913e+01 -9.722561e+00 -2.618692e-02 3.416314e-01 2.018321e-02