# Moment      
# CofR        : (0.000000e+00 0.000000e+00 0.000000e+00)
#
# Time        	total_x total_y total_z	pressure_x pressure_y pressure_z	viscous_x viscous_y viscous_z
1              -3.243415e-02 8.392116e+02 -1.084793e-02 -3.242987e-02 8.387285e+02 -1.085781e-02 -4.281153e-06 4.830966e-01 9.881538e-06
2              -2.272201e+00 3.123415e+02 4.786118e+00 -2.269112e+00 3.160542e+02 4.786205e+00 -3.089783e-03 -3.712696e+00 -8.654951e-05
3              5.868909e+02 -6.258371e+03 -2.867243e+03 5.874518e+02 -6.254446e+03 -2.867863e+03 -5.608998e-01 -3.924929e+00 6.204826e-01
4              1.496703e+04 1.609751e+06 -3.518217e+05 1.496770e+04 1.609751e+06 -3.518217e+05 -6.711931e-01 2.098238e-01 -3.257915e-02
5              -9.902257e+03 7.221339e+06 -1.365042e+06 -9.900943e+03 7.221333e+06 -1.365042e+06 -1.313861e+00 5.937013e+00 -2.904657e-01
6              -5.106092e+04 3.610296e+06 -5.562002e+05 -5.106051e+04 3.610294e+06 -5.561999e+05 -4.126313e-01 2.130906e+00 -3.571437e-01
7              -8.403102e+04 -2.775979e+06 6.570893e+05 -8.403237e+04 -2.775974e+06 6.570904e+05 1.355127e+00 -4.518371e+00 -1.120103e+00
8              -7.444272e+04 -4.724882e+06 9.614323e+05 -7.444553e+04 -4.724873e+06 9.614338e+05 2.800377e+00 -8.932747e+00 -1.535865e+00
9              -3.766738e+04 -1.391260e+06 2.712280e+05 -3.767117e+04 -1.391254e+06 2.712307e+05 3.792313e+00 -6.133585e+00 -2.695452e+00
10             -1.997625e+04 1.849651e+06 -3.089289e+05 -1.998048e+04 1.849650e+06 -3.089253e+05 4.226817e+00 4.457113e-01 -3.588625e+00
11             -3.232879e+04 1.927188e+06 -3.091220e+05 -3.233278e+04 1.927186e+06 -3.091185e+05 3.990849e+00 1.785957e+00 -3.567014e+00
12             -5.805968e+04 1.745134e+05 1.102392e+03 -5.806372e+04 1.745169e+05 1.105243e+03 4.039660e+00 -3.523573e+00 -2.851717e+00
13             -6.084338e+04 -1.133216e+06 2.290337e+05 -6.084781e+04 -1.133206e+06 2.290343e+05 4.434946e+00 -9.247511e+00 -6.086222e-01
14             -2.763829e+04 -1.097424e+06 2.170397e+05 -2.764217e+04 -1.097411e+06 2.170389e+05 3.887210e+00 -1.331232e+01 8.387056e-01
15             1.045589e+04 -2.347057e+05 6.790158e+04 1.045287e+04 -2.346919e+05 6.790079e+04 3.019749e+00 -1.379754e+01 7.876429e-01
16             2.837226e+04 3.603786e+05 -4.725446e+04 2.837029e+04 3.603892e+05 -4.725531e+04 1.975206e+00 -1.054656e+01 8.417803e-01
17             2.288383e+04 3.580066e+05 -7.431042e+04 2.288268e+04 3.580131e+05 -7.431097e+04 1.147004e+00 -6.526221e+00 5.550742e-01
18             3.737961e+03 5.433843e+04 -4.399438e+04 3.737019e+03 5.434302e+04 -4.399523e+04 9.424637e-01 -4.589479e+00 8.469797e-01
19             -1.363144e+04 -1.887285e+05 -1.624605e+03 -1.363319e+04 -1.887238e+05 -1.625422e+03 1.744490e+00 -4.699753e+00 8.168394e-01
20             -1.418351e+04 -2.234649e+05 2.113411e+04 -1.418712e+04 -2.234567e+05 2.113350e+04 3.609982e+00 -8.128516e+00 6.103325e-01
21             -5.236447e+03 -1.062247e+05 1.563725e+04 -5.240451e+03 -1.062121e+05 1.563634e+04 4.004854e+00 -1.261186e+01 9.126249e-01
22             5.402894e+03 1.937182e+04 -8.408486e+03 5.399717e+03 1.938652e+04 -8.408589e+03 3.176997e+00 -1.470429e+01 1.024755e-01
23             1.085773e+04 5.205795e+04 -2.713260e+04 1.085955e+04 5.207663e+04 -2.713333e+04 -1.818366e+00 -1.867874e+01 7.340668e-01
24             9.799608e+03 1.442213e+04 -2.706923e+04 9.808538e+03 1.443996e+04 -2.707245e+04 -8.929755e+00 -1.782749e+01 3.222694e+00
25             4.008531e+03 -2.866714e+04 -8.673789e+03 4.020243e+03 -2.865936e+04 -8.680018e+03 -1.171254e+01 -7.772292e+00 6.229340e+00
26             -1.783319e+03 -3.614041e+04 1.039823e+04 -1.777039e+03 -3.614116e+04 1.039277e+04 -6.280624e+00 7.456345e-01 5.463820e+00
27             -4.499440e+03 -1.528587e+04 1.746945e+04 -4.499882e+03 -1.528271e+04 1.746645e+04 4.425350e-01 -3.151020e+00 3.001915e+00
28             -5.101534e+03 7.123259e+03 1.281624e+04 -5.104738e+03 7.131300e+03 1.281485e+04 3.204217e+00 -8.041673e+00 1.395143e+00
29             -4.789565e+03 1.184122e+04 4.791614e+03 -4.791874e+03 1.184925e+04 4.789650e+03 2.309450e+00 -8.031667e+00 1.963910e+00
30             -4.142517e+03 2.124816e+03 1.605166e+02 -4.142932e+03 2.130306e+03 1.560539e+02 4.153002e-01 -5.490754e+00 4.462659e+00
31             -3.533409e+03 -7.857818e+03 2.723761e+02 -3.534172e+03 -7.854451e+03 2.665960e+02 7.626494e-01 -3.367353e+00 5.780067e+00
32             -2.821616e+03 -9.618964e+03 2.705183e+03 -2.824745e+03 -9.617600e+03 2.699699e+03 3.129150e+00 -1.364209e+00 5.484147e+00
33             -1.918703e+03 -4.128186e+03 4.052967e+03 -1.923471e+03 -4.128049e+03 4.047457e+03 4.768114e+00 -1.372336e-01 5.510496e+00
34             -1.023371e+03 1.432780e+03 3.258687e+03 -1.027740e+03 1.434166e+03 3.251803e+03 4.368282e+00 -1.386082e+00 6.883655e+00
35             -3.752470e+02 2.418331e+03 1.318623e+03 -3.785764e+02 2.424097e+03 1.310692e+03 3.329445e+00 -5.766448e+00 7.931317e+00
36             3.125941e+01 -7.732904e+02 -5.921502e+02 3.014366e+01 -7.634328e+02 -6.018275e+02 1.115748e+00 -9.857623e+00 9.677384e+00
37             2.787581e+02 -4.403643e+03 -1.528015e+03 2.768093e+02 -4.389493e+03 -1.535984e+03 1.948755e+00 -1.415017e+01 7.968464e+00
38             4.135245e+02 -5.217104e+03 -1.512596e+03 4.101562e+02 -5.200224e+03 -1.518470e+03 3.368296e+00 -1.688059e+01 5.874237e+00
39             2.751944e+02 -3.505473e+03 -9.394948e+02 2.703449e+02 -3.489478e+03 -9.435615e+02 4.849474e+00 -1.599526e+01 4.066684e+00
40             -2.189759e+02 -1.089202e+03 -1.372619e+02 -2.242144e+02 -1.075340e+03 -1.407415e+02 5.238461e+00 -1.386105e+01 3.479640e+00
41             -9.210659e+02 6.530061e+02 7.097104e+02 -9.251640e+02 6.652968e+02 7.048808e+02 4.098066e+00 -1.229074e+01 4.829612e+00
42             -1.472953e+03 1.338218e+03 1.415988e+03 -1.475908e+03 1.350484e+03 1.410222e+03 2.954847e+00 -1.226555e+01 5.765660e+00
43             -1.560081e+03 1.171862e+03 1.678383e+03 -1.562642e+03 1.185451e+03 1.673058e+03 2.560615e+00 -1.358921e+01 5.325068e+00
44             -1.207095e+03 7.718287e+02 1.420686e+03 -1.209382e+03 7.868020e+02 1.416237e+03 2.287540e+00 -1.497330e+01 4.448345e+00
45             -7.284867e+02 5.832442e+02 9.175282e+02 -7.309160e+02 5.986798e+02 9.140812e+02 2.429274e+00 -1.543566e+01 3.447039e+00
46             -2.502770e+02 6.299228e+02 2.731280e+02 -2.530425e+02 6.450174e+02 2.705298e+02 2.765528e+00 -1.509460e+01 2.598182e+00
47             1.521755e+02 7.701475e+02 -3.576148e+02 1.491013e+02 7.843656e+02 -3.595561e+02 3.074177e+00 -1.421813e+01 1.941241e+00
48             2.077589e+02 7.797878e+02 -4.289668e+02 2.046302e+02 7.931655e+02 -4.304446e+02 3.128733e+00 -1.337777e+01 1.477765e+00
49             1.516404e+02 8.230813e+02 -2.376324e+02 1.485199e+02 8.356042e+02 -2.387946e+02 3.120461e+00 -1.252291e+01 1.162219e+00
50             2.177351e+02 9.647636e+02 -1.568810e+02 2.147550e+02 9.766338e+02 -1.578976e+02 2.980083e+00 -1.187015e+01 1.016634e+00
51             4.404240e+02 1.208198e+03 -2.843262e+02 4.376985e+02 1.219974e+03 -2.852051e+02 2.725523e+00 -1.177608e+01 8.788236e-01
52             7.481154e+02 1.480160e+03 -5.929295e+02 7.456287e+02 1.492227e+03 -5.935308e+02 2.486738e+00 -1.206711e+01 6.012761e-01
53             9.927588e+02 1.587482e+03 -9.240161e+02 9.904266e+02 1.599936e+03 -9.241631e+02 2.332159e+00 -1.245424e+01 1.470097e-01
54             1.118325e+03 1.483305e+03 -1.169143e+03 1.115961e+03 1.495805e+03 -1.168667e+03 2.364087e+00 -1.250020e+01 -4.764107e-01
55             1.195361e+03 1.203016e+03 -1.385821e+03 1.192823e+03 1.215153e+03 -1.384643e+03 2.537986e+00 -1.213673e+01 -1.177447e+00
56             1.283407e+03 6.507955e+02 -1.635102e+03 1.280654e+03 6.623706e+02 -1.633203e+03 2.753744e+00 -1.157512e+01 -1.899537e+00
57             1.302335e+03 3.295222e+02 -1.686903e+03 1.299428e+03 3.406091e+02 -1.684330e+03 2.907384e+00 -1.108688e+01 -2.573432e+00
58             1.304918e+03 3.101942e+02 -1.650220e+03 1.301998e+03 3.209774e+02 -1.647122e+03 2.919821e+00 -1.078315e+01 -3.097409e+00
59             1.326904e+03 3.026441e+02 -1.648678e+03 1.324090e+03 3.133173e+02 -1.645218e+03 2.813999e+00 -1.067313e+01 -3.459850e+00
60             1.372319e+03 2.290111e+02 -1.717191e+03 1.369655e+03 2.397037e+02 -1.713481e+03 2.664072e+00 -1.069259e+01 -3.709716e+00
61             1.435358e+03 4.753838e+01 -1.864710e+03 1.432824e+03 5.827315e+01 -1.860822e+03 2.534381e+00 -1.073478e+01 -3.887963e+00
62             1.469661e+03 -1.659692e+02 -1.987043e+03 1.467206e+03 -1.552499e+02 -1.983014e+03 2.455660e+00 -1.071926e+01 -4.029219e+00
63             1.467340e+03 -3.489388e+02 -2.043807e+03 1.464914e+03 -3.383312e+02 -2.039667e+03 2.426310e+00 -1.060756e+01 -4.140597e+00
64             1.417115e+03 -5.028435e+02 -2.010572e+03 1.414687e+03 -4.924463e+02 -2.006366e+03 2.428052e+00 -1.039715e+01 -4.206343e+00
65             1.325278e+03 -4.857989e+02 -1.869279e+03 1.322855e+03 -4.757237e+02 -1.865085e+03 2.422790e+00 -1.007519e+01 -4.193565e+00
66             1.269080e+03 -4.104950e+02 -1.777455e+03 1.266682e+03 -4.008590e+02 -1.773333e+03 2.397248e+00 -9.635999e+00 -4.122292e+00
67             1.238357e+03 -3.706053e+02 -1.741046e+03 1.235994e+03 -3.614704e+02 -1.736997e+03 2.362723e+00 -9.134919e+00 -4.048675e+00
68             1.205187e+03 -3.559804e+02 -1.719757e+03 1.202852e+03 -3.473803e+02 -1.715747e+03 2.334418e+00 -8.600102e+00 -4.009979e+00
69             1.161283e+03 -3.663534e+02 -1.688646e+03 1.158963e+03 -3.583285e+02 -1.684637e+03 2.319929e+00 -8.024909e+00 -4.009440e+00
70             1.110480e+03 -3.827543e+02 -1.635321e+03 1.108159e+03 -3.753418e+02 -1.631289e+03 2.321040e+00 -7.412462e+00 -4.031676e+00
71             1.055570e+03 -3.825124e+02 -1.560094e+03 1.053236e+03 -3.757263e+02 -1.556035e+03 2.333931e+00 -6.786143e+00 -4.058906e+00
72             9.820373e+02 -3.442946e+02 -1.443564e+03 9.796851e+02 -3.381206e+02 -1.439484e+03 2.352170e+00 -6.174043e+00 -4.080262e+00
73             9.071965e+02 -2.639152e+02 -1.322296e+03 9.048269e+02 -2.583316e+02 -1.318206e+03 2.369644e+00 -5.583602e+00 -4.089798e+00
74             8.794320e+02 -2.121064e+02 -1.286017e+03 8.770413e+02 -2.070860e+02 -1.281913e+03 2.390696e+00 -5.020351e+00 -4.104453e+00
75             8.721477e+02 -2.021659e+02 -1.284565e+03 8.697236e+02 -1.976614e+02 -1.280425e+03 2.424104e+00 -4.504486e+00 -4.140351e+00
76             8.534266e+02 -1.919385e+02 -1.266277e+03 8.509595e+02 -1.879007e+02 -1.262084e+03 2.467128e+00 -4.037860e+00 -4.193290e+00
77             8.119363e+02 -1.680254e+02 -1.209315e+03 8.094226e+02 -1.644241e+02 -1.205066e+03 2.513733e+00 -3.601217e+00 -4.248104e+00
78             7.562597e+02 -1.343326e+02 -1.124811e+03 7.536993e+02 -1.311539e+02 -1.120520e+03 2.560464e+00 -3.178638e+00 -4.290734e+00
79             7.068811e+02 -1.050991e+02 -1.048113e+03 7.042739e+02 -1.023284e+02 -1.043796e+03 2.607153e+00 -2.770727e+00 -4.317326e+00
80             6.716938e+02 -8.488481e+01 -9.952099e+02 6.690388e+02 -8.249829e+01 -9.908771e+02 2.655079e+00 -2.386513e+00 -4.332782e+00
81             6.454591e+02 -6.856780e+01 -9.590446e+02 6.427542e+02 -6.653634e+01 -9.547029e+02 2.704898e+00 -2.031465e+00 -4.341780e+00
82             6.213744e+02 -4.978911e+01 -9.284868e+02 6.186172e+02 -4.808677e+01 -9.241404e+02 2.757204e+00 -1.702336e+00 -4.346442e+00
83             5.979248e+02 -2.980569e+01 -8.990203e+02 5.951128e+02 -2.841086e+01 -8.946749e+02 2.811930e+00 -1.394831e+00 -4.345466e+00
84             5.771217e+02 -1.575342e+01 -8.716677e+02 5.742531e+02 -1.464076e+01 -8.673289e+02 2.868511e+00 -1.112664e+00 -4.338719e+00
85             5.566967e+02 -4.541222e+00 -8.429381e+02 5.537710e+02 -3.679195e+00 -8.386117e+02 2.925668e+00 -8.620271e-01 -4.326456e+00
86             5.321909e+02 1.076198e+01 -8.062847e+02 5.292105e+02 1.140315e+01 -8.019768e+02 2.980484e+00 -6.411737e-01 -4.307897e+00
87             5.037911e+02 3.205622e+01 -7.626007e+02 5.007597e+02 3.249805e+01 -7.583171e+02 3.031390e+00 -4.418374e-01 -4.283623e+00
88             4.763479e+02 5.578743e+01 -7.207032e+02 4.732698e+02 5.604420e+01 -7.164483e+02 3.078073e+00 -2.567711e-01 -4.254822e+00
89             4.573420e+02 7.259249e+01 -6.936432e+02 4.542205e+02 7.267801e+01 -6.894179e+02 3.121483e+00 -8.551509e-02 -4.225312e+00
90             4.465351e+02 8.057065e+01 -6.802381e+02 4.433728e+02 8.050333e+01 -6.760387e+02 3.162271e+00 6.731749e-02 -4.199484e+00
91             4.365502e+02 8.689284e+01 -6.675373e+02 4.333502e+02 8.669273e+01 -6.633580e+02 3.200075e+00 2.001115e-01 -4.179298e+00
92             4.226608e+02 9.669244e+01 -6.475364e+02 4.194270e+02 9.637563e+01 -6.433722e+02 3.233892e+00 3.168005e-01 -4.164234e+00
93             4.043919e+02 1.114299e+02 -6.194736e+02 4.011289e+02 1.110066e+02 -6.153205e+02 3.262978e+00 4.233601e-01 -4.153085e+00
94             3.855511e+02 1.275425e+02 -5.901721e+02 3.822645e+02 1.270180e+02 -5.860279e+02 3.286596e+00 5.244344e-01 -4.144186e+00
95             3.705736e+02 1.396013e+02 -5.675955e+02 3.672694e+02 1.389804e+02 -5.634588e+02 3.304158e+00 6.208979e-01 -4.136676e+00
96             3.596203e+02 1.469376e+02 -5.521135e+02 3.563052e+02 1.462259e+02 -5.479837e+02 3.315157e+00 7.117424e-01 -4.129758e+00
97             3.500975e+02 1.521548e+02 -5.392695e+02 3.467781e+02 1.513585e+02 -5.351464e+02 3.319397e+00 7.962691e-01 -4.123061e+00
98             3.396780e+02 1.574580e+02 -5.249382e+02 3.363611e+02 1.565825e+02 -5.208221e+02 3.316932e+00 8.755530e-01 -4.116064e+00
99             3.282503e+02 1.629104e+02 -5.085409e+02 3.249420e+02 1.619596e+02 -5.044326e+02 3.308336e+00 9.508405e-01 -4.108290e+00
100            3.184043e+02 1.667965e+02 -4.941780e+02 3.151099e+02 1.657744e+02 -4.900785e+02 3.294423e+00 1.022127e+00 -4.099443e+00
101            3.105349e+02 1.692487e+02 -4.827155e+02 3.072590e+02 1.681600e+02 -4.786265e+02 3.275891e+00 1.088780e+00 -4.089056e+00
102            3.023400e+02 1.715893e+02 -4.706614e+02 2.990870e+02 1.704379e+02 -4.665849e+02 3.252996e+00 1.151390e+00 -4.076549e+00
103            2.928824e+02 1.742393e+02 -4.565995e+02 2.896565e+02 1.730279e+02 -4.525382e+02 3.225927e+00 1.211350e+00 -4.061300e+00
104            2.831640e+02 1.766791e+02 -4.421296e+02 2.799687e+02 1.754096e+02 -4.380863e+02 3.195321e+00 1.269543e+00 -4.043323e+00
105            2.746803e+02 1.780808e+02 -4.295948e+02 2.715181e+02 1.767550e+02 -4.255716e+02 3.162183e+00 1.325728e+00 -4.023230e+00
106            2.678451e+02 1.780670e+02 -4.196023e+02 2.647176e+02 1.766881e+02 -4.156005e+02 3.127512e+00 1.378910e+00 -4.001803e+00
107            2.618943e+02 1.767295e+02 -4.109089e+02 2.588023e+02 1.753012e+02 -4.069293e+02 3.091999e+00 1.428368e+00 -3.979525e+00
108            2.557186e+02 1.742076e+02 -4.017355e+02 2.526627e+02 1.727335e+02 -3.977790e+02 3.055934e+00 1.474128e+00 -3.956515e+00
109            2.494825e+02 1.711792e+02 -3.923531e+02 2.464629e+02 1.696625e+02 -3.884203e+02 3.019594e+00 1.516624e+00 -3.932816e+00
110            2.441379e+02 1.686383e+02 -3.843163e+02 2.411546e+02 1.670819e+02 -3.804077e+02 2.983319e+00 1.556334e+00 -3.908578e+00
111            2.394993e+02 1.665293e+02 -3.773261e+02 2.365519e+02 1.649357e+02 -3.734422e+02 2.947393e+00 1.593522e+00 -3.883900e+00
112            2.344617e+02 1.641281e+02 -3.696148e+02 2.315500e+02 1.624998e+02 -3.657562e+02 2.911749e+00 1.628281e+00 -3.858576e+00
113            2.286956e+02 1.610832e+02 -3.606663e+02 2.258193e+02 1.594225e+02 -3.568339e+02 2.876233e+00 1.660710e+00 -3.832358e+00
114            2.228212e+02 1.575906e+02 -3.515166e+02 2.199803e+02 1.558997e+02 -3.477113e+02 2.840847e+00 1.690879e+00 -3.805244e+00
115            2.175014e+02 1.539757e+02 -3.432767e+02 2.146957e+02 1.522568e+02 -3.394992e+02 2.805734e+00 1.718855e+00 -3.777474e+00
116            2.128358e+02 1.503727e+02 -3.361254e+02 2.100647e+02 1.486280e+02 -3.323761e+02 2.771040e+00 1.744701e+00 -3.749279e+00
117            2.086173e+02 1.469282e+02 -3.297143e+02 2.058805e+02 1.451597e+02 -3.259935e+02 2.736802e+00 1.768528e+00 -3.720758e+00
118            2.046852e+02 1.439223e+02 -3.237364e+02 2.019822e+02 1.421317e+02 -3.200445e+02 2.702992e+00 1.790604e+00 -3.691887e+00
119            2.007243e+02 1.412347e+02 -3.176467e+02 1.980548e+02 1.394235e+02 -3.139841e+02 2.669502e+00 1.811246e+00 -3.662526e+00
120            1.963503e+02 1.384766e+02 -3.108291e+02 1.937141e+02 1.366460e+02 -3.071967e+02 2.636159e+00 1.830600e+00 -3.632412e+00
121            1.915741e+02 1.355115e+02 -3.033383e+02 1.889713e+02 1.336628e+02 -2.997369e+02 2.602824e+00 1.848689e+00 -3.601375e+00
122            1.868114e+02 1.324987e+02 -2.959023e+02 1.842419e+02 1.306332e+02 -2.923328e+02 2.569469e+00 1.865552e+00 -3.569436e+00
123            1.824494e+02 1.296391e+02 -2.891891e+02 1.799132e+02 1.277579e+02 -2.856524e+02 2.536157e+00 1.881216e+00 -3.536759e+00
124            1.785530e+02 1.270135e+02 -2.833012e+02 1.760500e+02 1.251178e+02 -2.797977e+02 2.502937e+00 1.895753e+00 -3.503472e+00
125            1.749296e+02 1.245925e+02 -2.778791e+02 1.724598e+02 1.226833e+02 -2.744095e+02 2.469814e+00 1.909267e+00 -3.469622e+00
126            1.713291e+02 1.222975e+02 -2.724666e+02 1.688924e+02 1.203756e+02 -2.690315e+02 2.436731e+00 1.921845e+00 -3.435161e+00
127            1.675643e+02 1.200333e+02 -2.667432e+02 1.651607e+02 1.180997e+02 -2.633433e+02 2.403603e+00 1.933543e+00 -3.399971e+00
128            1.636167e+02 1.177561e+02 -2.607004e+02 1.612464e+02 1.158117e+02 -2.573365e+02 2.370348e+00 1.944371e+00 -3.363947e+00
129            1.596067e+02 1.154787e+02 -2.545695e+02 1.572698e+02 1.135244e+02 -2.512424e+02 2.336919e+00 1.954305e+00 -3.327047e+00
130            1.557455e+02 1.132703e+02 -2.487193e+02 1.534422e+02 1.113070e+02 -2.454300e+02 2.303299e+00 1.963320e+00 -3.289288e+00
131            1.521166e+02 1.111553e+02 -2.432842e+02 1.498471e+02 1.091839e+02 -2.400335e+02 2.269492e+00 1.971395e+00 -3.250739e+00
132            1.486399e+02 1.091008e+02 -2.381080e+02 1.464044e+02 1.071223e+02 -2.348966e+02 2.235442e+00 1.978525e+00 -3.211418e+00
133            1.452301e+02 1.071017e+02 -2.330173e+02 1.430289e+02 1.051170e+02 -2.298459e+02 2.201202e+00 1.984733e+00 -3.171392e+00
134            1.418024e+02 1.051491e+02 -2.278566e+02 1.396356e+02 1.031591e+02 -2.247259e+02 2.166830e+00 1.990071e+00 -3.130714e+00
135            1.382944e+02 1.032183e+02 -2.225285e+02 1.361621e+02 1.012238e+02 -2.194391e+02 2.132335e+00 1.994559e+00 -3.089400e+00
136            1.347727e+02 1.013339e+02 -2.171550e+02 1.326749e+02 9.933569e+01 -2.141075e+02 2.097746e+00 1.998202e+00 -3.047487e+00
137            1.313266e+02 9.951547e+01 -2.118972e+02 1.292635e+02 9.751447e+01 -2.088922e+02 2.063104e+00 2.001004e+00 -3.005049e+00
138            1.279833e+02 9.775512e+01 -2.068021e+02 1.259549e+02 9.575215e+01 -2.038399e+02 2.028458e+00 2.002969e+00 -2.962165e+00
139            1.247006e+02 9.602565e+01 -2.017940e+02 1.227068e+02 9.402155e+01 -1.988751e+02 1.993823e+00 2.004105e+00 -2.918892e+00
140            1.214272e+02 9.431362e+01 -1.967801e+02 1.194680e+02 9.230917e+01 -1.939048e+02 1.959229e+00 2.004446e+00 -2.875300e+00
141            1.181511e+02 9.262906e+01 -1.917340e+02 1.162264e+02 9.062503e+01 -1.889026e+02 1.924677e+00 2.004034e+00 -2.831442e+00
142            1.149000e+02 9.099467e+01 -1.867005e+02 1.130098e+02 8.899175e+01 -1.839131e+02 1.890201e+00 2.002913e+00 -2.787395e+00
143            1.117051e+02 8.942508e+01 -1.817373e+02 1.098493e+02 8.742397e+01 -1.789941e+02 1.855846e+00 2.001114e+00 -2.743235e+00
144            1.085732e+02 8.791561e+01 -1.768631e+02 1.067516e+02 8.591695e+01 -1.741641e+02 1.821648e+00 1.998663e+00 -2.699022e+00
145            1.054887e+02 8.644817e+01 -1.720554e+02 1.037010e+02 8.445260e+01 -1.694006e+02 1.787629e+00 1.995577e+00 -2.654806e+00
146            1.024353e+02 8.500641e+01 -1.672878e+02 1.006815e+02 8.301453e+01 -1.646772e+02 1.753810e+00 1.991878e+00 -2.610633e+00
147            9.941329e+01 8.358548e+01 -1.625603e+02 9.769308e+01 8.159788e+01 -1.599937e+02 1.720213e+00 1.987596e+00 -2.566550e+00
148            9.643784e+01 8.219416e+01 -1.578966e+02 9.475098e+01 8.021139e+01 -1.553740e+02 1.686866e+00 1.982762e+00 -2.522612e+00
149            9.352405e+01 8.084280e+01 -1.533211e+02 9.187027e+01 7.886540e+01 -1.508422e+02 1.653788e+00 1.977403e+00 -2.478863e+00
150            9.067599e+01 7.953364e+01 -1.488405e+02 8.905499e+01 7.756210e+01 -1.464051e+02 1.621003e+00 1.971546e+00 -2.435346e+00
151            8.788757e+01 7.826194e+01 -1.444456e+02 8.629904e+01 7.629673e+01 -1.420535e+02 1.588528e+00 1.965218e+00 -2.392097e+00
152            8.515008e+01 7.702136e+01 -1.401237e+02 8.359369e+01 7.506292e+01 -1.377746e+02 1.556383e+00 1.958442e+00 -2.349156e+00
153            8.246087e+01 7.580565e+01 -1.358720e+02 8.093629e+01 7.385442e+01 -1.335655e+02 1.524580e+00 1.951233e+00 -2.306555e+00
154            7.982596e+01 7.461685e+01 -1.317005e+02 7.833283e+01 7.267325e+01 -1.294362e+02 1.493131e+00 1.943608e+00 -2.264330e+00
155            7.725297e+01 7.346220e+01 -1.276215e+02 7.579093e+01 7.152661e+01 -1.253990e+02 1.462045e+00 1.935587e+00 -2.222511e+00
156            7.474499e+01 7.234554e+01 -1.236395e+02 7.331366e+01 7.041835e+01 -1.214583e+02 1.431337e+00 1.927189e+00 -2.181131e+00
157            7.229996e+01 7.126182e+01 -1.197507e+02 7.089894e+01 6.934338e+01 -1.176105e+02 1.401017e+00 1.918434e+00 -2.140215e+00
158            6.991398e+01 7.020491e+01 -1.159493e+02 6.854289e+01 6.829557e+01 -1.138495e+02 1.371087e+00 1.909337e+00 -2.099778e+00
159            6.758514e+01 6.917203e+01 -1.122329e+02 6.624359e+01 6.727211e+01 -1.101730e+02 1.341552e+00 1.899919e+00 -2.059837e+00
160            6.531379e+01 6.816261e+01 -1.086026e+02 6.400138e+01 6.627242e+01 -1.065822e+02 1.312418e+00 1.890195e+00 -2.020410e+00
161            6.310132e+01 6.717843e+01 -1.050612e+02 6.181764e+01 6.529825e+01 -1.030797e+02 1.283688e+00 1.880179e+00 -1.981510e+00
162            6.094810e+01 6.621924e+01 -1.016091e+02 5.969274e+01 6.434935e+01 -9.966591e+01 1.255365e+00 1.869884e+00 -1.943149e+00
163            5.885354e+01 6.528201e+01 -9.824545e+01 5.762609e+01 6.342269e+01 -9.634011e+01 1.227451e+00 1.859323e+00 -1.905333e+00
164            5.681629e+01 6.436348e+01 -9.496903e+01 5.561634e+01 6.251498e+01 -9.310096e+01 1.199946e+00 1.848502e+00 -1.868067e+00
165            5.483470e+01 6.346251e+01 -9.177822e+01 5.366186e+01 6.162508e+01 -8.994686e+01 1.172847e+00 1.837432e+00 -1.831355e+00
166            5.290788e+01 6.257798e+01 -8.867216e+01 5.176172e+01 6.075185e+01 -8.687696e+01 1.146157e+00 1.826125e+00 -1.795198e+00
167            5.103565e+01 6.170904e+01 -8.565134e+01 4.991578e+01 5.989445e+01 -8.389175e+01 1.119869e+00 1.814594e+00 -1.759598e+00
168            4.921828e+01 6.085566e+01 -8.271659e+01 4.812429e+01 5.905281e+01 -8.099204e+01 1.093985e+00 1.802850e+00 -1.724553e+00
169            4.745525e+01 6.001773e+01 -7.986726e+01 4.638675e+01 5.822683e+01 -7.817719e+01 1.068502e+00 1.790902e+00 -1.690062e+00
170            4.574491e+01 5.919419e+01 -7.710121e+01 4.470149e+01 5.741543e+01 -7.544509e+01 1.043415e+00 1.778754e+00 -1.656126e+00
171            4.408515e+01 5.838278e+01 -7.441585e+01 4.306644e+01 5.661637e+01 -7.279311e+01 1.018719e+00 1.766413e+00 -1.622740e+00
172            4.247410e+01 5.758287e+01 -7.180864e+01 4.147969e+01 5.582899e+01 -7.021873e+01 9.944088e-01 1.753882e+00 -1.589902e+00
173            4.091096e+01 5.679490e+01 -6.927856e+01 3.994048e+01 5.505373e+01 -6.772095e+01 9.704815e-01 1.741171e+00 -1.557605e+00
174            3.939575e+01 5.601954e+01 -6.682564e+01 3.844882e+01 5.429125e+01 -6.529979e+01 9.469352e-01 1.728290e+00 -1.525848e+00
175            3.792831e+01 5.525685e+01 -6.444942e+01 3.700454e+01 5.354160e+01 -6.295479e+01 9.237666e-01 1.715251e+00 -1.494625e+00
176            3.650741e+01 5.450549e+01 -6.214776e+01 3.560644e+01 5.280344e+01 -6.068383e+01 9.009728e-01 1.702049e+00 -1.463929e+00
177            3.513140e+01 5.376303e+01 -5.991790e+01 3.425285e+01 5.207435e+01 -5.848414e+01 8.785494e-01 1.688689e+00 -1.433753e+00
178            3.379866e+01 5.302909e+01 -5.775728e+01 3.294217e+01 5.135392e+01 -5.635319e+01 8.564930e-01 1.675175e+00 -1.404086e+00
179            3.250803e+01 5.230458e+01 -5.566381e+01 3.167323e+01 5.064308e+01 -5.428890e+01 8.347924e-01 1.661503e+00 -1.374903e+00
180            3.125852e+01 5.159046e+01 -5.363531e+01 3.044508e+01 4.994278e+01 -5.228911e+01 8.134449e-01 1.647678e+00 -1.346196e+00
181            3.004918e+01 5.088641e+01 -5.166933e+01 2.925673e+01 4.925270e+01 -5.035138e+01 7.924453e-01 1.633707e+00 -1.317956e+00
182            2.887885e+01 5.019020e+01 -4.976360e+01 2.810706e+01 4.857060e+01 -4.847343e+01 7.717882e-01 1.619594e+00 -1.290176e+00
183            2.774629e+01 4.949947e+01 -4.791626e+01 2.699482e+01 4.789413e+01 -4.665341e+01 7.514695e-01 1.605341e+00 -1.262848e+00
184            2.665011e+01 4.881416e+01 -4.612499e+01 2.591863e+01 4.722321e+01 -4.488903e+01 7.314868e-01 1.590950e+00 -1.235966e+00
185            2.558891e+01 4.813636e+01 -4.438726e+01 2.487707e+01 4.655994e+01 -4.317773e+01 7.118378e-01 1.576421e+00 -1.209523e+00
186            2.456154e+01 4.746777e+01 -4.270071e+01 2.386902e+01 4.590601e+01 -4.151720e+01 6.925181e-01 1.561756e+00 -1.183504e+00
187            2.356731e+01 4.680746e+01 -4.106378e+01 2.289378e+01 4.526050e+01 -3.990588e+01 6.735240e-01 1.546960e+00 -1.157896e+00
188            2.260610e+01 4.615344e+01 -3.947639e+01 2.195125e+01 4.462140e+01 -3.834370e+01 6.548529e-01 1.532035e+00 -1.132691e+00
189            2.167787e+01 4.550387e+01 -3.793853e+01 2.104136e+01 4.398689e+01 -3.683065e+01 6.365028e-01 1.516979e+00 -1.107875e+00
190            2.078207e+01 4.485805e+01 -3.644914e+01 2.016359e+01 4.335626e+01 -3.536570e+01 6.184756e-01 1.501797e+00 -1.083441e+00
191            1.991717e+01 4.421587e+01 -3.500526e+01 1.931641e+01 4.272938e+01 -3.394590e+01 6.007643e-01 1.486488e+00 -1.059362e+00
192            1.908179e+01 4.357771e+01 -3.360448e+01 1.849843e+01 4.210667e+01 -3.256886e+01 5.833671e-01 1.471044e+00 -1.035621e+00
193            1.827461e+01 4.294399e+01 -3.224448e+01 1.770833e+01 4.148853e+01 -3.123228e+01 5.662821e-01 1.455458e+00 -1.012207e+00
194            1.749503e+01 4.231361e+01 -3.092437e+01 1.694552e+01 4.087389e+01 -2.993526e+01 5.495117e-01 1.439719e+00 -9.891136e-01
195            1.674278e+01 4.168536e+01 -2.964371e+01 1.620972e+01 4.026155e+01 -2.867738e+01 5.330542e-01 1.423811e+00 -9.663321e-01
196            1.601765e+01 4.105713e+01 -2.840238e+01 1.550074e+01 3.964941e+01 -2.745853e+01 5.169110e-01 1.407721e+00 -9.438580e-01
197            1.531910e+01 4.042792e+01 -2.719920e+01 1.481801e+01 3.903649e+01 -2.627752e+01 5.010830e-01 1.391435e+00 -9.216801e-01
198            1.464664e+01 3.979835e+01 -2.603268e+01 1.416108e+01 3.842341e+01 -2.513290e+01 4.855621e-01 1.374938e+00 -8.997840e-01
199            1.400005e+01 3.916935e+01 -2.490159e+01 1.352970e+01 3.781113e+01 -2.402343e+01 4.703435e-01 1.358220e+00 -8.781626e-01
200            1.337893e+01 3.854196e+01 -2.380500e+01 1.292350e+01 3.720069e+01 -2.294819e+01 4.554282e-01 1.341273e+00 -8.568121e-01
201            1.278204e+01 3.791818e+01 -2.274143e+01 1.234123e+01 3.659409e+01 -2.190571e+01 4.408125e-01 1.324094e+00 -8.357248e-01
202            1.220769e+01 3.730046e+01 -2.170887e+01 1.178120e+01 3.599379e+01 -2.089398e+01 4.264884e-01 1.306671e+00 -8.148903e-01
203            1.165569e+01 3.669151e+01 -2.070754e+01 1.124325e+01 3.540252e+01 -1.991324e+01 4.124459e-01 1.288996e+00 -7.942968e-01
204            1.112583e+01 3.609317e+01 -1.973773e+01 1.072716e+01 3.482209e+01 -1.896380e+01 3.986714e-01 1.271073e+00 -7.739359e-01
205            1.061758e+01 3.550587e+01 -1.879947e+01 1.023243e+01 3.425297e+01 -1.804568e+01 3.851523e-01 1.252905e+00 -7.537933e-01
206            1.013066e+01 3.493017e+01 -1.789388e+01 9.758783e+00 3.369568e+01 -1.716002e+01 3.718776e-01 1.234489e+00 -7.338656e-01
207            9.664955e+00 3.436743e+01 -1.702161e+01 9.306122e+00 3.315160e+01 -1.630746e+01 3.588331e-01 1.215830e+00 -7.141458e-01
208            9.220930e+00 3.381955e+01 -1.618274e+01 8.874924e+00 3.262261e+01 -1.548811e+01 3.460058e-01 1.196934e+00 -6.946278e-01
209            8.797729e+00 3.329099e+01 -1.537650e+01 8.464347e+00 3.211320e+01 -1.470119e+01 3.333815e-01 1.177793e+00 -6.753055e-01
210            8.392801e+00 3.278519e+01 -1.460049e+01 8.071855e+00 3.162679e+01 -1.394431e+01 3.209454e-01 1.158400e+00 -6.561745e-01
211            8.002669e+00 3.230251e+01 -1.385193e+01 7.693991e+00 3.116387e+01 -1.321470e+01 3.086778e-01 1.138636e+00 -6.372282e-01
212            7.624596e+00 3.183938e+01 -1.312999e+01 7.328016e+00 3.072062e+01 -1.251153e+01 2.965808e-01 1.118759e+00 -6.184606e-01
213            7.258050e+00 3.139277e+01 -1.243720e+01 6.973397e+00 3.029396e+01 -1.183733e+01 2.846527e-01 1.098809e+00 -5.998754e-01
214            6.902770e+00 3.096217e+01 -1.177590e+01 6.629882e+00 2.988343e+01 -1.119443e+01 2.728879e-01 1.078738e+00 -5.814750e-01
215            6.559484e+00 3.054910e+01 -1.114797e+01 6.298190e+00 2.949064e+01 -1.058471e+01 2.612938e-01 1.058458e+00 -5.632529e-01
216            6.228185e+00 3.015655e+01 -1.055302e+01 5.978302e+00 2.911858e+01 -1.000780e+01 2.498826e-01 1.037975e+00 -5.452113e-01
217            5.908509e+00 2.978403e+01 -9.989810e+00 5.669836e+00 2.876671e+01 -9.462442e+00 2.386730e-01 1.017318e+00 -5.273678e-01
218            5.598055e+00 2.942793e+01 -9.455214e+00 5.370383e+00 2.843142e+01 -8.945486e+00 2.276723e-01 9.965119e-01 -5.097276e-01
219            5.292588e+00 2.908525e+01 -8.943968e+00 5.075701e+00 2.810968e+01 -8.451672e+00 2.168869e-01 9.755737e-01 -4.922958e-01