/*--------------------------------*- C++ -*----------------------------------*\
| =========                 |                                                 |
| \\      /  F ield         | OpenFOAM: The Open Source CFD Toolbox           |
|  \\    /   O peration     | Version:  2512                                  |
|   \\  /    A nd           | Website:  www.openfoam.com                      |
|    \\/     M anipulation  |                                                 |
\*---------------------------------------------------------------------------*/
FoamFile
{
    version     2.0;
    format      ascii;
    arch        "LSB;label=32;scalar=64";
    class       volScalarField;
    location    "100";
    object      k;
}
// * * * * * * * * * * * * * * * * * * * * * * * * * * * * * * * * * * * * * //

dimensions      [0 2 -2 0 0 0 0];

internalField   nonuniform List<scalar> 
84826
(
0.231929
0.224212
0.216967
0.21015
0.203723
0.197656
0.191928
0.186508
0.18144
0.176709
0.172323
0.168291
0.164561
0.161097
0.157855
0.154802
0.151886
0.149141
0.146584
0.144264
0.142264
0.140799
0.142077
0.168494
0.380614
1.44149
4.03207
6.86312
9.23635
10.8265
0.23193
0.224214
0.216972
0.21016
0.203742
0.197686
0.19197
0.186567
0.181518
0.17681
0.172452
0.168449
0.164756
0.161324
0.15812
0.155104
0.152223
0.149518
0.147002
0.144727
0.142788
0.141649
0.146318
0.199957
0.534783
1.85348
4.45487
7.31035
9.77194
11.5031
0.231931
0.224216
0.216977
0.210171
0.203761
0.197717
0.19202
0.18664
0.181626
0.176963
0.172665
0.168729
0.165109
0.161747
0.15864
0.155718
0.152924
0.150312
0.147891
0.145711
0.14389
0.143243
0.153365
0.245882
0.727149
2.27308
4.84416
7.6859
10.2187
12.1053
0.231931
0.224218
0.216982
0.210179
0.203777
0.197747
0.192069
0.186718
0.181751
0.177157
0.1729
0.168983
0.165447
0.16225
0.15933
0.156594
0.153981
0.151557
0.149326
0.147342
0.145737
0.145599
0.160732
0.28952
0.890755
2.51411
5.05473
7.88878
10.498
12.5406
0.231931
0.224219
0.216985
0.210186
0.20379
0.197773
0.192115
0.186798
0.181891
0.177334
0.173109
0.169283
0.165911
0.162916
0.160282
0.157895
0.155643
0.1536
0.151765
0.150185
0.148986
0.149132
0.162644
0.293518
0.914182
2.48333
4.93679
7.75508
10.4575
12.6742
0.231931
0.22422
0.216986
0.21019
0.203801
0.197794
0.192158
0.186881
0.182044
0.177493
0.173434
0.170002
0.167493
0.165078
0.163157
0.161804
0.160913
0.16053
0.160638
0.161261
0.162473
0.164794
0.174393
0.25263
0.699049
2.0057
4.26702
7.06573
9.91359
12.366
0.231931
0.224219
0.216987
0.210193
0.203808
0.197811
0.192197
0.186982
0.182097
0.177651
0.174097
0.172555
0.177074
0.178443
0.182358
0.191144
0.20468
0.221732
0.240918
0.260973
0.28081
0.29983
0.319927
0.365212
0.584019
1.40164
3.21507
5.85864
8.84533
11.5957
0.231931
0.224218
0.216986
0.210193
0.203813
0.197826
0.192234
0.187076
0.18219
0.177897
0.173938
0.168069
0.169122
0.177349
0.648266
0.793371
0.915108
1.00779
1.07437
1.11972
1.14718
1.15893
1.15737
1.15621
1.22867
1.63157
2.82679
5.01557
7.91214
10.8596
0.231931
0.224217
0.216984
0.210193
0.203815
0.197837
0.192265
0.187084
0.182268
0.178172
0.174761
0.177591
0.299802
0.67675
5.67497
4.83265
4.26236
3.87282
3.58681
3.35674
3.15664
2.97251
2.79696
2.63602
2.53886
2.68544
3.48117
5.27492
7.99379
10.989
0.231932
0.224219
0.216987
0.210197
0.203822
0.197849
0.19229
0.187104
0.182355
0.17852
0.17619
0.177026
1.29074
3.5608
12.1465
9.49045
7.85512
6.72828
5.9031
5.26722
4.75721
4.33834
3.99172
3.71908
3.5713
3.72259
4.54304
6.3371
9.07196
12.0697
0.231933
0.224222
0.216991
0.210202
0.203828
0.197849
0.192293
0.187108
0.182373
0.178597
0.17677
0.177048
8.88267
9.20284
8.23299
7.14431
6.32388
5.68654
5.17354
4.74934
4.39617
4.10764
3.89738
3.83499
4.12735
5.16868
7.21017
10.174
13.2526
0.231934
0.22422
0.216988
0.210198
0.203822
0.19784
0.192276
0.187093
0.182306
0.178292
0.175391
0.176742
1.09524
3.28534
7.88958
6.70325
5.79457
5.14626
4.68319
4.3289
4.03363
3.77663
3.55323
3.37663
3.30946
3.56062
4.57704
6.78476
10.137
13.5832
0.231933
0.224218
0.216985
0.210194
0.203815
0.197832
0.19225
0.187083
0.182221
0.177996
0.174435
0.176534
0.576433
1.07311
2.42734
2.397
2.3844
2.39941
2.4301
2.47002
2.50711
2.52763
2.52389
2.50022
2.50049
2.70613
3.63566
5.80382
9.37141
13.4749
0.231931
0.224219
0.216986
0.210193
0.20381
0.197818
0.192214
0.187021
0.182142
0.177752
0.174485
0.182335
0.260518
0.324778
0.346022
0.363442
0.380005
0.416796
0.484258
0.576875
0.6852
0.797833
0.90324
0.996041
1.12263
1.57172
3.0066
5.88415
10.0891
14.8697
0.231931
0.224219
0.216986
0.210191
0.203803
0.197801
0.192175
0.186918
0.18206
0.177545
0.173605
0.171741
0.179283
0.184094
0.183703
0.182839
0.181975
0.181784
0.185239
0.194608
0.211407
0.235449
0.267103
0.345048
0.729627
1.97055
4.52011
8.31112
12.9591
18.0689
0.231931
0.224219
0.216985
0.210187
0.203793
0.197779
0.19213
0.18683
0.181954
0.177386
0.173209
0.169633
0.167437
0.165306
0.162798
0.160153
0.15752
0.15501
0.152829
0.151209
0.15049
0.151851
0.174477
0.385323
1.214
3.10074
6.23859
10.4593
15.5086
21.2122
0.231931
0.224218
0.216982
0.21018
0.20378
0.197753
0.192081
0.186743
0.1818
0.177236
0.172966
0.169084
0.165711
0.162693
0.159741
0.156819
0.153947
0.151198
0.148577
0.146119
0.143926
0.143668
0.180962
0.497349
1.53838
3.66554
7.04395
11.6195
17.2651
23.9528
0.231931
0.224216
0.216978
0.210172
0.203763
0.197722
0.192028
0.186657
0.181659
0.177025
0.172744
0.168807
0.165289
0.162061
0.158985
0.156002
0.153098
0.150333
0.147704
0.14522
0.142937
0.142436
0.181076
0.513298
1.58361
3.72982
7.09849
11.8648
18.0874
26.0489
0.23193
0.224214
0.216972
0.210161
0.203743
0.197687
0.191972
0.186572
0.181531
0.17684
0.172519
0.168582
0.164988
0.161682
0.158558
0.155558
0.152654
0.149891
0.14727
0.144792
0.142491
0.14152
0.172182
0.46654
1.45774
3.47145
6.66054
11.2928
17.7659
27.1953
0.23193
0.224214
0.21697
0.210153
0.203727
0.197658
0.191927
0.186506
0.18144
0.176719
0.172363
0.168388
0.164754
0.161416
0.158276
0.155274
0.152378
0.149624
0.147016
0.144551
0.142251
0.140882
0.162567
0.402226
1.25644
3.05138
5.98413
10.4269
17.0415
27.7499
0.238835
0.237486
0.236002
0.234409
0.232729
0.230984
0.229203
0.22743
0.225734
0.22421
0.222893
0.221633
0.220169
0.218431
0.216654
0.21503
0.213574
0.21227
0.211191
0.210416
0.210282
0.213861
0.254021
0.58387
2.33196
7.71761
15.877
22.6869
27.7726
31.1898
0.238835
0.237486
0.236001
0.234408
0.232729
0.230985
0.229208
0.227449
0.225788
0.224338
0.223139
0.22203
0.220749
0.219176
0.217519
0.215984
0.214597
0.213349
0.212312
0.211583
0.211779
0.219988
0.308356
0.877317
3.13439
8.89425
16.9559
23.8351
29.0273
32.5098
0.238836
0.237486
0.236001
0.234408
0.23273
0.230989
0.229221
0.227495
0.225915
0.224644
0.223754
0.22303
0.222159
0.22098
0.219609
0.218288
0.217075
0.21599
0.215098
0.21451
0.21527
0.230753
0.390425
1.23628
3.99864
10.0265
17.8391
24.7309
30.0825
33.743
0.238836
0.237486
0.236001
0.234409
0.232731
0.230997
0.229249
0.227583
0.226166
0.225244
0.224898
0.224788
0.224725
0.22427
0.22344
0.222516
0.221616
0.220827
0.220251
0.220048
0.22157
0.243131
0.461447
1.52491
4.62391
10.7346
18.3126
25.221
30.7703
34.6545
0.238836
0.237487
0.236002
0.234409
0.232735
0.23101
0.229296
0.227739
0.22661
0.226263
0.226667
0.227536
0.228905
0.229902
0.23041
0.230997
0.231736
0.232683
0.23389
0.235555
0.238849
0.259297
0.458624
1.56496
4.73823
10.6945
18.0329
25.0378
30.8881
35.0676
0.238836
0.237488
0.236004
0.234411
0.23274
0.231032
0.229374
0.228003
0.227397
0.227788
0.229517
0.232206
0.239778
0.245995
0.252705
0.261712
0.27315
0.286523
0.301221
0.316723
0.333261
0.357421
0.469588
1.20339
3.92167
9.40339
16.6127
23.9182
30.2806
34.897
0.238836
0.237489
0.236006
0.234415
0.232748
0.231062
0.229489
0.22841
0.228377
0.229961
0.234099
0.243865
0.291416
0.341847
0.429215
0.536724
0.65201
0.764354
0.86752
0.958228
1.03278
1.09322
1.1718
1.50831
3.11735
7.46643
14.3631
22.0619
29.1292
34.3283
0.238836
0.237489
0.236007
0.23442
0.232762
0.231105
0.229642
0.229005
0.22974
0.233481
0.235745
0.24871
0.393616
0.611903
3.03806
3.58544
3.89538
4.05142
4.10794
4.09898
4.04068
3.94209
3.82564
3.82179
4.51899
7.34541
13.1934
20.7927
28.3647
34.0603
0.238836
0.237488
0.236007
0.234422
0.232773
0.231144
0.229808
0.229504
0.231141
0.23868
0.247325
0.284715
3.40936
6.18739
13.2156
12.0182
11.0972
10.3389
9.67796
9.0641
8.46827
7.87838
7.30917
6.8725
7.02349
8.98929
13.9825
21.2348
29.0063
34.924
0.238836
0.237489
0.236007
0.234424
0.232779
0.231168
0.229929
0.229848
0.232421
0.243891
0.26687
1.55103
25.1582
54.2971
23.1382
18.65
15.9815
14.0304
12.4781
11.1759
10.0504
9.07483
8.27277
7.78913
8.10571
10.3171
15.4647
22.8499
30.9123
36.9433
0.238836
0.237489
0.236007
0.234424
0.232781
0.231173
0.229953
0.229905
0.232579
0.244207
0.269481
16.6534
16.5525
14.3512
12.7176
11.4047
10.3451
9.45469
8.68217
8.01905
7.50971
7.33573
8.05087
10.7796
16.5211
24.4713
33.1004
39.3876
0.238836
0.237488
0.236004
0.234423
0.232776
0.231156
0.229864
0.229649
0.23149
0.239486
0.256566
0.846969
32.7851
29.8736
16.9342
13.8182
11.7211
10.3115
9.29551
8.46781
7.72778
7.08408
6.56592
6.32194
6.92559
9.77829
16.2154
25.1526
34.746
41.6425
0.238835
0.237488
0.236003
0.23442
0.232764
0.231119
0.229705
0.229191
0.230168
0.234539
0.240498
0.296165
4.12972
9.27283
7.40917
7.33736
7.19297
6.9985
6.72188
6.39911
6.05604
5.71146
5.37876
5.13949
5.45613
7.93756
14.6974
24.7713
35.5956
43.6111
0.238835
0.237488
0.236006
0.234415
0.232751
0.231075
0.229544
0.228629
0.228827
0.230934
0.236601
0.302594
0.663995
0.93082
1.01924
1.09312
1.15869
1.22033
1.31385
1.42758
1.54457
1.6522
1.74753
1.97166
3.28966
7.71011
16.1409
26.8424
37.9644
46.8969
0.238836
0.237488
0.236003
0.23441
0.232741
0.23104
0.229415
0.228161
0.227775
0.228545
0.231221
0.243203
0.298198
0.33981
0.353407
0.361226
0.368331
0.376207
0.39015
0.412113
0.442087
0.481373
0.613893
1.53226
4.80719
11.3674
20.742
31.5818
42.8995
52.3708
0.238836
0.237487
0.236001
0.234408
0.232734
0.231014
0.229322
0.227844
0.226941
0.226891
0.227847
0.230389
0.237156
0.243288
0.244821
0.244789
0.24458
0.244606
0.245301
0.247118
0.25135
0.284365
0.672708
2.56495
7.08604
14.5105
24.4512
35.8645
48.0341
58.4189
0.238836
0.237486
0.236001
0.234407
0.23273
0.230997
0.229262
0.227647
0.226378
0.225795
0.225814
0.226309
0.227123
0.227242
0.226141
0.224566
0.222936
0.221378
0.219977
0.21886
0.219772
0.267135
0.830037
3.1634
8.14756
15.9262
26.2677
38.5857
52.186
64.0538
0.238836
0.237486
0.236001
0.234407
0.232727
0.230987
0.229227
0.227533
0.226053
0.225008
0.224516
0.224265
0.223913
0.222824
0.221182
0.219372
0.217551
0.215772
0.21406
0.212488
0.212636
0.258008
0.829104
3.2127
8.2203
15.9157
26.1259
39.1481
54.3314
68.4751
0.238835
0.237486
0.236001
0.234407
0.232727
0.230983
0.22921
0.227474
0.225883
0.224605
0.22373
0.223101
0.222216
0.22078
0.218997
0.217156
0.215334
0.213551
0.21182
0.210195
0.209788
0.243969
0.731826
2.92245
7.63471
14.864
24.5502
37.398
53.7908
71.0157
0.238836
0.237488
0.236004
0.234411
0.232731
0.230986
0.229209
0.227455
0.225818
0.224443
0.223394
0.222532
0.221433
0.219865
0.218043
0.216203
0.214393
0.21262
0.210896
0.209256
0.208431
0.231645
0.61519
2.50352
6.63965
13.1844
22.2142
34.7498
52.201
71.524
0.239046
0.238072
0.237085
0.236085
0.235074
0.234061
0.233071
0.232151
0.2314
0.230938
0.23078
0.230667
0.230274
0.229384
0.228345
0.22747
0.226797
0.226321
0.226129
0.22635
0.228733
0.256229
0.504436
1.89181
6.86899
17.1413
27.9789
36.1812
42.2293
46.2998
0.239046
0.238071
0.237085
0.236085
0.235075
0.234065
0.233085
0.232188
0.231496
0.231149
0.231101
0.231128
0.230994
0.230347
0.229482
0.228723
0.228126
0.227707
0.227562
0.227968
0.233184
0.297599
0.78799
2.79654
8.36453
18.6645
29.4415
37.6682
43.7193
47.7443
0.239046
0.238071
0.237085
0.236086
0.235079
0.234077
0.233117
0.232279
0.231726
0.231623
0.231814
0.232154
0.23242
0.232383
0.231971
0.231537
0.231191
0.230993
0.23105
0.231842
0.241699
0.361366
1.15099
3.77998
9.91142
20.1035
30.5844
38.8674
45.0494
49.1748
0.239046
0.238072
0.237086
0.236088
0.235085
0.234097
0.233174
0.232442
0.232146
0.232331
0.232986
0.233976
0.235116
0.236092
0.236603
0.237048
0.237535
0.238142
0.239005
0.240898
0.25532
0.415496
1.41107
4.50488
11.0055
21.0777
31.2556
39.6349
46.0319
50.3464
0.239047
0.238073
0.237086
0.236091
0.235095
0.234127
0.233267
0.232712
0.23274
0.233398
0.234862
0.237152
0.243532
0.249622
0.253832
0.258446
0.263603
0.268989
0.274406
0.280554
0.296641
0.437905
1.40782
4.68103
11.315
21.146
31.1758
39.7845
46.5155
51.0988
0.239048
0.238074
0.237089
0.236095
0.235108
0.23417
0.233405
0.233137
0.233535
0.234989
0.237891
0.246164
0.295851
0.340073
0.373334
0.407222
0.442453
0.477458
0.511416
0.543504
0.576702
0.661446
1.23287
3.88268
10.3185
19.903
30.1407
39.2235
46.474
51.4273
0.239048
0.238075
0.237091
0.236102
0.235125
0.234226
0.233594
0.233634
0.234599
0.237294
0.242809
0.289675
0.695916
1.05206
1.3898
1.69982
1.95902
2.15285
2.28216
2.35261
2.37094
2.37118
2.55875
3.98373
8.94184
17.9355
28.4904
38.2302
46.1677
51.5714
0.239048
0.238076
0.237094
0.236109
0.235145
0.234294
0.233831
0.234173
0.235938
0.240929
0.244591
0.26982
1.13856
3.24468
9.99141
9.59687
9.01752
8.41153
7.82638
7.26448
6.72339
6.21224
5.86251
6.32289
9.55805
17.2055
27.5532
37.7173
46.2664
52.0597
0.239048
0.238077
0.237097
0.236115
0.235167
0.234356
0.234078
0.234742
0.237472
0.246229
0.256014
0.300923
6.09917
13.5305
22.4441
18.5354
15.6874
13.5258
11.8251
10.4641
9.33619
8.4158
7.77799
7.9586
10.7114
17.8163
28.0188
38.4005
47.3751
53.4021
0.239048
0.238077
0.237098
0.236121
0.23518
0.234398
0.234256
0.23515
0.238876
0.251797
0.274039
1.14738
43.6533
79.4097
23.9657
18.9562
15.8619
13.6487
11.9757
10.6779
9.63834
8.82288
8.35234
8.81172
11.7877
18.9222
29.2649
39.9689
49.3875
55.628
0.239048
0.238077
0.237098
0.236119
0.235179
0.234404
0.234285
0.235214
0.239068
0.252317
0.277506
46.6554
20.5465
17.6502
15.4683
13.7184
12.3192
11.1631
10.1753
9.36123
8.87646
9.34915
12.3858
19.6734
30.4304
41.719
51.7766
58.4022
0.239047
0.238076
0.237094
0.236115
0.235169
0.234375
0.234162
0.234917
0.237914
0.247452
0.263315
0.780599
50.969
55.2261
22.65
18.6423
16.0324
14.1713
12.7456
11.5586
10.4874
9.53466
8.83829
9.01333
11.9296
19.6249
31.1492
43.2888
54.2064
61.5003
0.239046
0.238075
0.237091
0.23611
0.235153
0.234321
0.233932
0.234389
0.236451
0.242299
0.25026
0.860232
8.48644
13.142
9.59343
9.06618
8.47603
7.90731
7.38598
6.91654
6.49252
6.10836
5.83043
6.19525
9.53045
18.5103
31.4638
44.7645
56.7666
65.0753
0.239047
0.238075
0.237092
0.236104
0.235133
0.234253
0.233689
0.233852
0.235072
0.238474
0.246232
0.44846
1.04582
1.33605
1.45137
1.53545
1.59889
1.64368
1.67601
1.69589
1.70741
1.72818
1.95159
3.70185
9.66063
20.5282
34.0577
47.8114
60.5571
69.8844
0.239048
0.238074
0.237089
0.236097
0.235115
0.234194
0.233485
0.233381
0.233997
0.235881
0.240029
0.269816
0.359255
0.41554
0.430547
0.441086
0.45024
0.45857
0.466449
0.480143
0.502518
0.613803
1.59148
5.3881
13.1855
24.628
38.2775
52.3659
65.8795
76.1219
0.239047
0.238073
0.237087
0.236092
0.2351
0.234146
0.233328
0.232905
0.233106
0.234094
0.236207
0.241137
0.253676
0.263676
0.267448
0.269317
0.270735
0.271999
0.273484
0.276553
0.296264
0.574069
2.32492
7.16716
15.5904
27.3861
41.6951
56.7482
71.5684
82.9597
0.239046
0.238072
0.237086
0.236089
0.23509
0.234111
0.23322
0.23258
0.232487
0.23291
0.233979
0.235711
0.237787
0.23941
0.239744
0.239263
0.23863
0.238025
0.237598
0.23824
0.261115
0.611443
2.6377
7.85258
16.4674
28.3957
43.2629
59.9051
76.6056
89.5408
0.239046
0.238072
0.237085
0.236087
0.235083
0.234088
0.233151
0.232379
0.231995
0.232089
0.232593
0.233384
0.23408
0.234264
0.233623
0.232622
0.231559
0.230512
0.229548
0.229361
0.248553
0.575897
2.55121
7.71024
16.1891
27.815
42.7575
60.7212
79.9017
95.0035
0.239046
0.238072
0.237085
0.236086
0.235079
0.234075
0.233113
0.232267
0.231706
0.231603
0.231802
0.232176
0.23241
0.232105
0.231179
0.230073
0.228945
0.227825
0.226767
0.226237
0.239519
0.501028
2.2443
7.03259
14.9871
25.9601
40.4305
59.0023
80.5744
98.4703
0.239047
0.238074
0.237088
0.23609
0.235082
0.234076
0.233103
0.232227
0.231591
0.231377
0.231449
0.231656
0.231701
0.23117
0.23016
0.229034
0.227899
0.226768
0.225688
0.224962
0.233435
0.427732
1.88415
6.09109
13.2291
23.3841
37.2087
56.0948
79.5583
99.1152
0.239055
0.238105
0.237161
0.236224
0.235298
0.234391
0.233525
0.232752
0.232157
0.231848
0.231847
0.231913
0.231788
0.231214
0.230475
0.229874
0.229473
0.229298
0.229447
0.230636
0.244021
0.384459
1.25731
4.77361
14.1011
28.0124
39.7909
48.48
54.7945
58.9935
0.239055
0.238105
0.237161
0.236224
0.235299
0.234396
0.23354
0.23279
0.232251
0.232054
0.23216
0.232355
0.232456
0.23213
0.231564
0.231063
0.230715
0.230576
0.230823
0.233205
0.264785
0.568822
2.04365
6.45359
16.1001
29.8057
41.4911
50.1292
56.3821
60.4754
0.239055
0.238105
0.237161
0.236225
0.235303
0.234407
0.233573
0.232879
0.232473
0.232516
0.232846
0.233332
0.233834
0.234079
0.233982
0.233827
0.233746
0.233851
0.23441
0.238919
0.299434
0.810668
2.92096
8.18664
18.1516
31.4242
42.851
51.5482
57.8844
62.0261
0.239055
0.238105
0.237162
0.236227
0.235309
0.234427
0.233631
0.233037
0.232872
0.23318
0.233933
0.235037
0.23684
0.238793
0.240172
0.24155
0.242757
0.244027
0.245762
0.253245
0.336512
0.987918
3.55196
9.48091
19.7235
32.5609
43.7803
52.6139
59.1387
63.4304
0.239055
0.238105
0.237162
0.23623
0.235319
0.234456
0.233719
0.23329
0.233437
0.234164
0.23564
0.238256
0.252901
0.271444
0.282896
0.292184
0.299998
0.307235
0.314135
0.324737
0.39785
1.0232
3.71531
10.038
20.4265
32.8734
44.1222
53.2123
60.0305
64.5558
0.239056
0.238105
0.237164
0.236234
0.235331
0.234497
0.233848
0.23368
0.234158
0.23557
0.238278
0.250414
0.385921
0.560728
0.64725
0.698368
0.741709
0.778864
0.809041
0.833612
0.877601
1.22204
3.29322
9.41831
19.8859
32.281
43.8547
53.359
60.5916
65.4229
0.239056
0.238107
0.237165
0.236239
0.235347
0.234549
0.234021
0.234151
0.23511
0.237539
0.242473
0.31531
1.3797
2.51012
3.0482
3.28661
3.39789
3.4268
3.39571
3.3177
3.20976
3.22329
4.25543
8.87931
18.6657
31.1915
43.257
53.3039
61.0543
66.2388
0.239057
0.238108
0.237168
0.236244
0.235364
0.234607
0.234227
0.234623
0.236217
0.240491
0.243984
0.280879
4.73945
10.8937
12.7586
11.0442
9.72383
8.72221
7.93023
7.25604
6.65865
6.23304
6.60578
9.89346
18.4344
30.656
43.0249
53.5535
61.8263
67.3522
0.239057
0.23811
0.237171
0.23625
0.235384
0.234661
0.234438
0.235098
0.237481
0.244371
0.252125
0.29968
23.3636
25.654
19.2869
15.2573
12.9182
11.3099
10.0438
9.007
8.13642
7.53176
7.75334
10.741
18.8905
30.9791
43.5692
54.4895
63.245
69.0749
0.239057
0.238111
0.237173
0.236258
0.235399
0.234705
0.234602
0.235454
0.238551
0.248464
0.262742
0.648922
28.6116
62.9931
27.4769
21.6676
17.8229
15.0965
13.022
11.4023
10.0979
9.14393
9.08022
11.6719
19.3903
31.5232
44.5622
56.0176
65.331
71.5036
0.239057
0.23811
0.237173
0.236256
0.235396
0.234709
0.234628
0.23551
0.238727
0.249143
0.266071
1.09548
7.57841
87.7997
26.5622
21.4683
17.9535
15.2861
13.1823
11.4871
10.1055
9.09169
8.97245
11.5372
19.3361
31.9101
45.679
57.8864
67.9198
74.5785
0.239055
0.238107
0.237169
0.236249
0.235383
0.234677
0.234511
0.235247
0.237887
0.245668
0.257045
2.66033
34.9615
51.2051
19.2837
15.9664
13.683
11.9166
10.4911
9.30742
8.31259
7.56403
7.61638
10.5126
19.0251
32.45
47.0208
60.0423
70.9332
78.2825
0.239055
0.238107
0.237167
0.236246
0.235371
0.234632
0.234317
0.234814
0.236672
0.241806
0.248991
1.46256
9.63586
13.3621
7.16378
6.54119
6.01693
5.58334
5.23204
4.94119
4.68593
4.50671
5.05201
8.91979
18.9027
33.3909
48.7177
62.591
74.4807
82.7481
0.239055
0.238107
0.237165
0.236241
0.235355
0.234575
0.234109
0.234345
0.235537
0.238585
0.245307
0.366971
0.765968
0.983986
1.07589
1.1298
1.16452
1.18888
1.20664
1.22024
1.24133
1.50072
3.43181
9.66113
21.0743
35.9077
51.4718
66.0095
78.944
88.2508
0.239056
0.238105
0.237164
0.236236
0.235339
0.234521
0.233925
0.233922
0.234586
0.236373
0.240074
0.258408
0.309478
0.346515
0.360283
0.369431
0.376457
0.382803
0.388774
0.397775
0.467555
1.19181
4.49891
11.9898
23.7156
38.7639
54.8015
70.2185
84.3779
94.7898
0.239055
0.238105
0.237163
0.236232
0.235325
0.234476
0.23378
0.233475
0.233779
0.234793
0.236809
0.240536
0.248215
0.253872
0.256958
0.25887
0.26026
0.261559
0.263018
0.270514
0.388785
1.44434
5.36072
13.2581
25.0981
40.5436
57.6787
74.4972
90.2337
101.873
0.239055
0.238105
0.237162
0.236229
0.235315
0.234443
0.233679
0.233175
0.233215
0.233734
0.234842
0.236468
0.238206
0.239406
0.239836
0.239603
0.239212
0.238848
0.238789
0.244561
0.365364
1.45266
5.47227
13.5029
25.235
40.8362
59.1776
78.0149
95.7515
108.782
0.239055
0.238105
0.237162
0.236227
0.235308
0.234421
0.233612
0.232984
0.232742
0.232968
0.233579
0.23444
0.235238
0.235573
0.235223
0.234519
0.233731
0.232962
0.232402
0.236112
0.33298
1.29878
5.10808
12.9339
24.2897
39.4915
58.5619
79.7246
100.144
114.664
0.239055
0.238105
0.237162
0.236226
0.235304
0.234409
0.233573
0.232878
0.23247
0.232515
0.232849
0.233347
0.233753
0.233718
0.233107
0.232299
0.23145
0.230614
0.229915
0.231979
0.300369
1.0833
4.47178
11.7385
22.3522
36.7496
55.8911
78.9577
102.576
118.508
0.239056
0.238107
0.237164
0.23623
0.235307
0.234409
0.233562
0.232837
0.232359
0.23229
0.23251
0.232864
0.233104
0.232871
0.232183
0.231356
0.230502
0.229654
0.228903
0.229907
0.276041
0.882473
3.76788
10.1948
19.8484
33.3637
52.3945
76.945
102.607
118.997
0.239055
0.238107
0.237166
0.236235
0.235317
0.234421
0.233564
0.232793
0.232173
0.231786
0.231662
0.231658
0.231492
0.230998
0.230378
0.229883
0.229584
0.229533
0.230027
0.235126
0.295636
0.7601
2.82027
9.41269
23.0741
39.2763
51.5058
60.1745
66.2999
70.2233
0.239055
0.238107
0.237166
0.236235
0.235318
0.234425
0.233576
0.232825
0.232252
0.23196
0.231982
0.23211
0.232158
0.231858
0.231379
0.23096
0.230688
0.230662
0.231558
0.243074
0.380478
1.26382
4.31175
11.8315
25.4442
41.285
53.3567
61.9372
67.9526
71.7957
0.239055
0.238107
0.237166
0.236236
0.235321
0.234435
0.233604
0.232901
0.232439
0.232367
0.232599
0.232978
0.233347
0.23352
0.2334
0.233236
0.233152
0.233306
0.234964
0.257229
0.502815
1.85838
5.91355
14.3761
27.9352
43.078
54.9257
63.549
69.5998
73.4814
0.239055
0.238107
0.237167
0.236238
0.235327
0.234452
0.233654
0.233033
0.232773
0.23298
0.233553
0.234407
0.235467
0.236426
0.237178
0.237944
0.23875
0.239848
0.243075
0.276519
0.609135
2.33998
7.20513
16.4234
30.0244
44.4361
56.1624
64.9121
71.1229
75.14
0.239055
0.238107
0.237168
0.23624
0.235335
0.234477
0.233729
0.233244
0.233306
0.233849
0.23499
0.236854
0.241085
0.246345
0.251357
0.257269
0.263395
0.270251
0.279452
0.317751
0.671322
2.56599
7.91921
17.6525
31.2397
45.1858
56.964
65.9375
72.4162
76.6667
0.239055
0.238107
0.237168
0.236243
0.235346
0.234511
0.233835
0.23356
0.233901
0.234981
0.237113
0.242575
0.274902
0.316727
0.350245
0.385382
0.425285
0.470678
0.519348
0.58169
0.839918
2.41209
7.64596
17.7396
31.3656
45.3618
57.354
66.6616
73.508
78.0725
0.239055
0.238108
0.23717
0.236247
0.235359
0.234553
0.233977
0.233999
0.234717
0.236594
0.24035
0.26599
0.532143
0.818866
1.01941
1.24101
1.47522
1.70277
1.89642
2.04279
2.22136
3.15643
7.30282
17.0089
30.8228
45.1632
57.5292
67.2664
74.568
79.4984
0.239056
0.238108
0.237172
0.236251
0.235372
0.234601
0.234139
0.234386
0.235591
0.238607
0.245372
0.377339
1.99041
3.79638
4.76216
5.33222
5.65349
5.75869
5.69367
5.50165
5.27703
5.56597
8.44188
16.995
30.5281
45.0833
57.8459
68.0411
75.8505
81.1721
0.239057
0.238109
0.237175
0.236257
0.235387
0.234645
0.234298
0.234751
0.236477
0.241196
0.24587
0.324514
6.22301
14.6756
10.9319
10.6325
10.0932
9.45021
8.74973
8.02281
7.35598
7.23331
9.54918
17.4715
30.7571
45.4509
58.5814
69.2352
77.5816
83.3076
0.239057
0.238111
0.237177
0.236264
0.2354
0.234678
0.234417
0.23501
0.237208
0.243545
0.251597
0.532527
3.57465
9.60186
9.15096
9.96664
10.0547
9.70866
9.10925
8.39852
7.71785
7.54439
9.71069
17.4333
30.845
46.007
59.6903
70.9077
79.8619
86.0377
0.239057
0.238109
0.237176
0.236262
0.235399
0.234683
0.234438
0.235052
0.237351
0.244023
0.25318
0.531953
1.44899
8.77768
9.6191
9.64978
9.15018
8.45734
7.709
6.99582
6.393
6.34562
8.72091
16.7921
30.8014
46.6681
61.0854
73.0129
82.6954
89.4256
0.239055
0.238108
0.237172
0.236256
0.235389
0.234659
0.234353
0.234868
0.236789
0.242198
0.249742
2.08658
9.17945
14.1194
7.54616
6.91302
6.27557
5.68714
5.16729
4.71186
4.36552
4.62443
7.59504
16.5526
31.2986
47.7523
62.8471
75.5442
86.0892
93.5308
0.239055
0.238108
0.237171
0.236253
0.235379
0.234622
0.234212
0.234543
0.235931
0.239648
0.248648
0.529094
1.38172
1.79926
1.92825
1.95494
1.94927
1.92466
1.88988
1.85339
1.89339
2.78353
7.08782
17.2783
32.5189
49.3002
64.9409
78.4981
90.0974
98.4349
0.239055
0.238108
0.23717
0.236249
0.235365
0.234575
0.234049
0.23417
0.23507
0.237346
0.242419
0.2848
0.410137
0.493448
0.518277
0.534289
0.545704
0.555173
0.562985
0.582576
0.821037
2.5704
8.24579
18.9304
34.176
51.2423
67.4449
81.995
94.8312
104.225
0.239055
0.238107
0.237169
0.236245
0.235352
0.234531
0.2339
0.233759
0.234255
0.235635
0.238406
0.245907
0.262489
0.276574
0.283717
0.288579
0.29225
0.295536
0.299743
0.331439
0.736205
3.08394
9.45538
20.218
35.4141
53.1109
70.2229
86.0274
100.292
110.84
0.239055
0.238107
0.237168
0.236242
0.235341
0.234495
0.233783
0.233401
0.233598
0.234374
0.235923
0.238388
0.241552
0.244149
0.245746
0.246496
0.24695
0.247475
0.249482
0.284289
0.739306
3.23113
9.80036
20.675
35.8652
54.36
72.838
90.2413
106.163
117.904
0.239055
0.238107
0.237167
0.236239
0.235332
0.234467
0.233698
0.233155
0.233077
0.233465
0.234329
0.235563
0.23676
0.237523
0.237668
0.237295
0.236794
0.236354
0.237072
0.264546
0.664331
3.01472
9.47962
20.3362
35.2921
54.3326
74.6802
94.1001
111.866
124.772
0.239055
0.238107
0.237167
0.236238
0.235326
0.234449
0.233641
0.232998
0.232677
0.232815
0.233276
0.233953
0.234559
0.234818
0.234482
0.233848
0.233137
0.232453
0.232511
0.250917
0.560592
2.60816
8.66929
19.2045
33.5649
52.5204
74.7104
96.9194
116.71
130.564
0.239055
0.238107
0.237167
0.236237
0.235323
0.234438
0.233609
0.232908
0.23245
0.232387
0.232628
0.233016
0.233329
0.233267
0.232747
0.232046
0.231302
0.230575
0.230299
0.24161
0.463253
2.14273
7.56091
17.3543
30.7578
49.042
72.374
97.6384
119.812
134.176
0.239056
0.238109
0.23717
0.236241
0.235327
0.234439
0.233601
0.232876
0.232359
0.232182
0.232325
0.232587
0.232772
0.232552
0.231969
0.231253
0.230504
0.229766
0.229312
0.236149
0.390804
1.72905
6.40782
15.1163
27.4282
44.999
69.1608
96.4667
119.729
134.181
0.239055
0.238107
0.237167
0.236236
0.235318
0.234422
0.233558
0.232768
0.232097
0.231603
0.231304
0.231106
0.230813
0.230311
0.229739
0.229286
0.229035
0.229119
0.230749
0.250667
0.445559
1.52704
5.33891
15.5909
32.9432
50.4946
62.793
70.959
76.535
79.9778
0.239055
0.238107
0.237167
0.236236
0.235319
0.234424
0.233568
0.232794
0.232159
0.231739
0.23156
0.231519
0.231401
0.231061
0.230612
0.230227
0.229995
0.230165
0.233541
0.279465
0.688965
2.53171
7.65114
18.6561
35.5988
52.6525
64.7625
72.8084
78.2252
81.6299
0.239055
0.238107
0.237167
0.236237
0.235321
0.234433
0.233591
0.232854
0.232305
0.232058
0.232138
0.232338
0.232528
0.232534
0.232344
0.232133
0.232012
0.232379
0.238706
0.326001
1.01083
3.69224
10.147
21.9714
38.4213
54.6123
66.5031
74.5972
80.0241
83.4486
0.239056
0.238107
0.237167
0.236238
0.235326
0.234446
0.233629
0.232957
0.232563
0.232617
0.23296
0.233516
0.234141
0.234627
0.234944
0.235175
0.235454
0.236369
0.246348
0.37519
1.30487
4.71219
12.2744
24.8154
40.9363
56.227
68.0048
76.2566
81.8433
85.4168
0.239056
0.238108
0.237168
0.23624
0.235333
0.234466
0.233689
0.233119
0.232977
0.233309
0.234084
0.235262
0.236887
0.238553
0.240082
0.241996
0.244126
0.247243
0.260865
0.413954
1.50153
5.40471
13.7739
26.7933
42.5957
57.3845
69.1749
77.6853
83.5642
87.4195
0.239056
0.238108
0.237169
0.236243
0.235341
0.234493
0.233771
0.233356
0.233513
0.234229
0.235653
0.23818
0.24466
0.253104
0.2615
0.271787
0.283264
0.297467
0.321076
0.461506
1.50398
5.51576
14.3455
27.7088
43.3719
58.1042
70.0426
78.8899
85.1803
89.4237
0.239056
0.238108
0.23717
0.236246
0.235351
0.234525
0.233877
0.23368
0.234121
0.235394
0.237882
0.245181
0.288473
0.343631
0.387536
0.436676
0.496717
0.570782
0.658865
0.811758
1.5826
5.08647
13.8457
27.64
43.5921
58.5356
70.7528
80.0013
86.802
91.5038
0.239056
0.238109
0.237172
0.236249
0.235362
0.234561
0.233999
0.234056
0.234836
0.236851
0.240938
0.269617
0.537042
0.816178
0.986949
1.18908
1.42436
1.67819
1.92618
2.17058
2.7312
5.40908
13.4737
27.3521
43.6775
58.9492
71.5107
81.2169
88.5971
93.8017
0.239057
0.23811
0.237176
0.236254
0.235372
0.234594
0.23411
0.234321
0.235453
0.238338
0.244294
0.322496
0.900369
1.40059
1.78503
2.18085
2.58276
2.95197
3.25969
3.49959
3.91669
6.11056
13.5743
27.3734
43.9993
59.5984
72.5176
82.7251
90.731
96.4652
0.239057
0.238111
0.237178
0.23626
0.235381
0.234617
0.23419
0.234505
0.235894
0.239663
0.247494
0.291722
0.518241
0.793703
1.08515
1.41055
1.75744
2.0939
2.39868
2.67773
3.21012
5.61136
13.2993
27.4145
44.451
60.4729
73.8471
84.6268
93.3166
99.6179
0.239057
0.238111
0.237175
0.236258
0.235382
0.234621
0.234205
0.234539
0.235977
0.239999
0.248663
0.334813
0.582786
0.926977
1.14302
1.33484
1.50187
1.63901
1.75205
1.87582
2.36863
5.03404
13.1196
27.5348
44.9755
61.4979
75.479
86.9396
96.4088
103.354
0.239056
0.238109
0.237172
0.236253
0.235375
0.234605
0.23415
0.234409
0.23566
0.238979
0.246382
0.393821
0.805069
1.04591
1.1337
1.18468
1.21711
1.23401
1.24287
1.28683
1.8312
4.94713
13.5102
27.9891
45.7518
62.7351
77.3682
89.641
100.039
107.749
0.239056
0.238108
0.237171
0.236251
0.235367
0.234578
0.234051
0.234177
0.235098
0.237443
0.24279
0.291281
0.432753
0.522017
0.544962
0.557873
0.566473
0.573137
0.582404
0.660881
1.48108
5.32654
14.3589
28.7577
46.7192
64.1385
79.4733
92.7099
104.23
112.867
0.239056
0.238108
0.23717
0.236248
0.235357
0.234544
0.233933
0.233853
0.234426
0.235973
0.239126
0.249147
0.272909
0.293608
0.303831
0.309874
0.314209
0.318145
0.328096
0.453573
1.58761
6.00315
15.2757
29.3246
47.4548
65.5615
81.7811
96.1988
109.034
118.732
0.239056