/*--------------------------------*- C++ -*----------------------------------*\
| =========                 |                                                 |
| \\      /  F ield         | OpenFOAM: The Open Source CFD Toolbox           |
|  \\    /   O peration     | Version:  2512                                  |
|   \\  /    A nd           | Website:  www.openfoam.com                      |
|    \\/     M anipulation  |                                                 |
\*---------------------------------------------------------------------------*/
FoamFile
{
    version     2.0;
    format      ascii;
    arch        "LSB;label=32;scalar=64";
    class       volScalarField;
    location    "100";
    object      k;
}
// * * * * * * * * * * * * * * * * * * * * * * * * * * * * * * * * * * * * * //

dimensions      [0 2 -2 0 0 0 0];

internalField   nonuniform List<scalar> 
90398
(
0.232002
0.224578
0.218022
0.214398
0.286856
1.27369
5.74237
17.2471
36.9573
57.7151
74.9558
87.803
97.0459
103.735
108.891
113.632
119.33
127.746
141.175
161.87
190.947
226.913
265.341
300.549
328.011
345.471
353.061
351.51
345.427
331.988
0.232005
0.224588
0.218108
0.218175
0.399757
2.11947
8.45678
22.1687
41.8198
61.9875
78.8222
91.5428
100.832
107.614
112.796
117.374
122.545
129.791
141.012
158.149
182.507
213.633
248.561
282.475
310.693
330.205
340.362
341.461
337.527
326.261
0.23201
0.224605
0.218353
0.2295
0.644025
3.45412
11.7544
27.3481
47.4799
67.1068
83.2944
95.5464
104.564
111.206
116.226
120.41
124.689
130.216
138.427
150.901
169.06
193.484
222.99
254.215
282.623
304.364
317.719
322.263
321.365
312.834
0.232016
0.224631
0.218977
0.257299
1.04875
5.10436
15.4026
32.6503
52.6813
71.4152
86.4888
97.7855
106.076
112.327
117.035
120.696
123.966
127.703
132.939
140.885
152.845
169.999
192.804
219.847
247.433
271.103
287.864
296.294
298.946
293.515
0.232022
0.224672
0.220344
0.310237
1.58248
6.91602
18.9744
36.7957
56.1211
73.3526
86.5169
96.3225
103.532
109.258
113.738
116.958
119.288
121.403
124.091
128.257
134.883
145.217
160.793
182.223
207.626
232.559
252.723
265.363
271.952
269.924
0.232032
0.224731
0.222779
0.387091
2.16191
8.62201
21.7574
39.2104
57.0118
71.803
81.7765
88.6658
94.6656
100.635
105.555
108.628
110.087
110.704
111.29
112.566
115.697
121.975
132.323
147.666
167.763
191.356
214.074
230.959
241.768
243.405
0.232041
0.224814
0.226211
0.473216
2.67611
9.8864
23.1205
39.3804
54.8281
65.3784
71.3696
75.9364
81.4007
88.8257
94.9067
97.617
97.5579
96.3093
95.3738
95.3934
96.9667
100.718
107.473
118.38
134.231
154.18
175.239
194.919
209.707
215.115
0.232046
0.224905
0.230065
0.548309
3.02775
10.4923
23.039
37.4024
49.7563
41.1736
35.2993
41.3144
45.3293
50.4501
102.565
95.5734
89.2633
83.8469
79.8792
77.7556
77.7484
79.9958
84.7507
92.7941
105.203
122.239
142.05
161.288
177.646
186.137
0.232048
0.224982
0.233239
0.594621
3.16509
10.4013
21.6745
33.6511
30.1376
28.0368
40.0224
81.1751
69.2657
58.5297
94.2446
79.9593
68.9267
61.2744
56.7082
54.9035
55.6465
58.2987
62.8899
69.8361
80.1167
94.6775
112.966
132.143
149.305
159.894
0.232049
0.22504
0.235248
0.608853
3.08293
9.7239
19.3765
29.0881
25.074
18.7058
60.1636
72.1378
37.435
20.6279
62.9124
55.4898
51.1928
48.7472
47.1626
45.9246
44.8865
45.17
47.4029
52.0465
59.8379
71.7638
88.0646
106.623
124.372
136.567
0.232048
0.225086
0.236502
0.601992
2.87963
8.73529
16.7174
24.6793
21.4349
16.5084
63.8369
27.2719
22.7204
66.6262
56.7488
51.4022
49.3023
48.5596
48.0271
47.0032
45.4548
44.3536
44.8612
48.1627
55.6555
68.4109
85.1356
102.625
115.735
0.232047
0.22513
0.237513
0.582606
2.59562
7.58502
13.991
20.4297
17.907
17.8248
26.311
35.0439
56.9586
57.1728
57.3478
51.6409
49.1868
49.9009
51.8892
53.4995
53.4848
51.6284
48.632
45.9216
44.9744
47.4916
55.2943
68.5235
84.4768
97.6146
0.232046
0.225179
0.238432
0.561076
2.31839
6.48197
11.6353
16.7014
20.97
17.5358
19.0728
24.116
24.4731
21.15
41.2523
44.6062
47.8557
53.1549
59.1582
63.7073
64.5321
61.2698
56.105
50.545
46.1633
44.6921
47.9288
56.9329
70.2084
82.426
0.232045
0.225237
0.239695
0.548815
2.10982
5.55253
9.70831
13.6324
16.6149
18.8778
21.5042
23.5689
27.235
34.9392
42.8236
45.9397
51.2141
59.8737
69.2625
74.1542
73.4661
68.1934
60.6353
53.2553
47.023
43.3427
43.7022
49.276
59.5751
70.1713
0.232041
0.225318
0.241817
0.548667
1.97798
4.82833
8.17335
11.2781
13.818
16.3483
19.6189
24.2975
31.8588
41.2281
45.3848
46.9997
54.0263
65.6632
74.9922
77.4635
73.9582
66.4903
58.4255
51.192
45.2095
41.3311
40.6961
44.2621
52.0098
60.6437
0.232036
0.225426
0.24463
0.558405
1.91092
4.32631
7.12524
9.77364
12.4051
16.2231
21.9797
30.2715
39.6894
45.7518
44.4728
46.1939
54.5061
66.4924
73.0806
72.1132
66.3242
59.399
52.9733
47.1171
42.3916
39.4425
38.9634
41.505
47.1199
53.564
0.232031
0.225535
0.247712
0.571927
1.88249
4.00562
6.45925
8.91223
11.9537
17.9173
27.7191
38.0855
45.442
46.0245
42.1648
43.8013
52.345
61.7632
64.3493
60.558
56.3521
52.0664
47.7788
43.7759
40.8905
39.4444
39.4776
41.166
44.6499
48.6233
0.232024
0.22563
0.250145
0.5792
1.84105
3.74762
5.97757
8.36963
12.021
21.4275
33.949
43.5867
47.4984
42.7305
38.2164
40.4278
48.5765
54.1668
54.1255
52.1113
50.199
48.7906
47.4364
46.0495
44.8948
43.9502
43.3151
43.1865
43.9902
45.5399
0.232018
0.225644
0.250253
0.566802
1.74179
3.45194
5.50746
7.87723
12.6998
25.1239
38.8754
46.4886
46.4584
39.6565
34.6097
37.9578
46.1031
49.5881
51.0538
51.8601
52.4598
52.9428
53.4423
53.7244
53.2839
52.2692
50.7731
48.8439
46.7942
46.413
0.232028
0.225583
0.246814
0.527093
1.57243
3.09384
5.02684
7.40201
13.5528
27.921
41.2024
46.7173
43.2007
36.4008
31.7294
37.4287
43.7465
47.0257
49.1759
50.9477
52.7266
54.3491
55.5636
56.3821
56.8089
56.8397
56.4069
55.2067
53.3122
53.2202
0.239182
0.23923
0.240999
0.293815
1.43375
8.35802
28.1378
65.4291
113.35
157.296
191.349
217.197
237.031
252.941
267.079
281.901
300.597
326.937
364.888
416.502
479.973
549.25
616.157
673.453
716.805
744.352
757.173
756.77
747.151
727.436
0.239191
0.239288
0.242871
0.378196
2.4668
11.9375
35.3636
74.9339
122.507
164.844
198.356
223.969
243.599
259.252
272.944
286.883
303.918
327.365
360.83
406.476
463.414
527.103
590.647
647.266
691.876
722.082
737.98
740.644
733.597
716.38
0.239215
0.23945
0.248742
0.58548
4.17715
16.9607
44.9361
87.5039
134.122
174.485
206.878
231.783
250.765
265.757
278.493
290.774
304.868
323.511
349.765
385.917
432.275
486.372
543.447
597.536
643.186
677.089
697.856
705.712
703.502
690.658
0.239254
0.239811
0.264271
0.977789
6.47405
23.015
55.5721
100.212
144.724
183.243
214.036
237.505
255.111
268.941
280.322
290.456
300.999
314.166
332.485
358.26
392.721
435.284
483.598
533.011
578.807
616.381
642.831
657.118
661.174
653.905
0.239309
0.240538
0.297209
1.5599
9.09735
29.3839
65.5005
109.804
152.265
188.504
216.917
238.092
253.721
266.352
276.354
284.161
290.939
298.628
309.415
325.499
348.517
379.24
417.242
460.201
504.504
545.082
577.431
598.876
610.088
609.165
0.239381
0.241819
0.351365
2.25835
11.704
35.0498
72.9518
115.406
155.285
188.677
214.059
232.232
246.25
258.495
267.4
272.519
274.988
277.019
280.857
288.567
301.386
320.773
347.45
381.963
423.912
467.048
505.213
534.197
553.119
558.991
0.239468
0.243641
0.420941
2.95534
13.9047
39.1376
76.6471
116.472
153.541
184.52
206.316
221.2
236.773
253.504
260.677
260.306
255.797
250.306
246.885
247.558
253.356
264.869
283.063
309.157
344.144
385.789
429.233
465.734
492.628
505.494
0.239561
0.245769
0.492608
3.53775
15.4299
41.1818
76.6133
113.264
149.231
153.491
173.309
191.073
211.701
237.235
274.869
254.527
234.618
218.069
207.303
202.688
204.208
211.676
225.06
245.115
273.533
310.884
354.318
396.339
430.805
450.456
0.239651
0.247766
0.550397
3.91303
16.1204
41.065
73.4229
106.609
119.617
151.317
182.382
228.709
263.184
269.975
263.696
222.789
191.625
171.033
158.538
153.648
155.168
161.869
173.636
190.747
214.487
246.695
287.224
330.862
370.488
395.541
0.239738
0.249414
0.58935
4.07036
15.9436
39.0388
67.5894
95.953
108.383
132.844
265.021
155.083
328.315
232.774
194.76
170.716
154.05
141.742
133.046
127.289
125.006
127.55
135.129
148.275
167.862
195.183
231.141
273.015
314.36
342.736
0.239818
0.250798
0.615009
4.08101
15.2439
35.9537
60.401
83.6627
93.3603
117.384
127.769
173.278
153.348
141.503
134.614
130.865
128.118
124.998
122.445
122.372
126.727
138.056
158.261
187.974
225.378
265.21
294.452
0.239895
0.252161
0.634935
4.00326
14.2194
32.2808
52.7141
71.4129
77.8459
105.234
150.334
186.407
271.289
209.779
151.365
138.805
137.252
140.268
144.425
146.947
145.26
139.573
132.312
126.777
127.165
137.231
158.445
189.125
224.697
252.362
0.239978
0.253719
0.654595
3.89602
13.1143
28.5789
45.3689
60.0911
72.87
75.4285
91.978
107.785
103.536
102.142
127.102
135.878
146.442
159.104
169.878
174.27
171.794
163.258
150.062
137.017
128.287
128.535
140.637
163.523
193.073
217.168
0.240066
0.255692
0.679655
3.83075
12.197
25.2921
39.1667
50.8339
59.312
65.7383
73.4157
81.266
92.0295
112.33
132.635
146.958
163.494
181.525
192.172
194.369
188.957
177.24
161.042
144.445
131.116
125.295
130.405
146.262
169.368
188.691
0.240161
0.258219
0.716346
3.8342
11.5277
22.66
34.0846
43.4266
50.492
57.7287
67.3038
79.8147
99.5374
125.152
143.563
156.241
177.636
195.383
202.76
201.347
192.873
178.867
161.332
144.082
130.139
122.596
124.211
134.989
152.176
166.215
0.240259
0.261319
0.761776
3.89494
11.0842
20.7473
30.3796
38.3185
45.9852
56.9093
71.6652
90.3171
116.025
138.838
148.539
159.031
181.729
195.804
199.296
195.081
184.933
170.016
153.799
138.473
126.63
120.464
121.374
128.757
140.51
148.959
0.240339
0.264602
0.808067
3.97155
10.8103
19.4272
27.8877
35.378
44.5802
59.9081
80.631
105.805
131.709
145.566
144.605
153.442
172.52
183.57
185.003
180.16
170.164
158.908
146.879
135.258
126.879
123.23
124.045
128.028
134.159
136.638
0.2404
0.267196
0.840366
3.99192
10.5019
18.3449
26.1
33.5925
44.5976
65.564
92.6058
120.643
141.4
143.852
135.305
140.575
152.829
162.76
163.747
160.322
155.167
150.448
145.678
140.453
136.289
133.984
133.166
132.684
133.325
130.631
0.240417
0.267579
0.835032
3.86616
9.98183
17.1287
24.4288
32.007
45.3212
72.3526
104.379
131.383
145.268
135.577
124.637
123.93
130.459
138.327
142.37
144.073
144.559
144.376
142.963
140.983
139.479
138.599
138.126
137.744
138.03
133.356
0.240387
0.264428
0.773712
3.55059
9.20845
15.7602
22.8496
30.5753
46.2564
77.7133
111.946
136.595
145.761
126.291
115.696
108.369
109.643
114.299
117.808
120.461
122.516
124.25
125.903
127.851
130.375
133.541
137.35
141.482
144.562
140.673
0.23967
0.240311
0.251146
0.65458
5.02391
21.2437
57.2666
112.99
172.809
222.889
263.841
297.506
325.438
349.659
372.731
397.883
429.096
470.328
524.343
590.872
665.339
740.629
809.804
867.972
912.574
943.183
959.95
963.98
957.71
940.172
0.239697
0.240616
0.268933
1.10983
7.58611
27.4627
67.5565
124.58
182.972
232.14
272.882
306.149
333.524
357.002
378.974
402.44
431.027
468.39
517.229
577.84
646.78
717.991
784.983
842.712
888.358
920.581
939.484
945.828
941.703
926.581
0.239752
0.241516
0.318711
1.97287
11.4034
36.2327
81.7712
140.05
195.939
244.059
284.124
316.564
342.696
364.758
384.75
405.152
429.059
459.402
499.094
549.114
607.69
670.608
732.557
788.754
835.711
870.983
894.209
905.346
905.974
895.412
0.239847
0.243946
0.43288
3.30836
16.2949
46.6664
96.8396
154.684
208.585
255.505
294.166
325.033
349.32
369.307
386.61
403.054
421.087
443.225
472.303
509.925
555.885
607.994
662.64
715.819
763.491
802.529
831.324
848.896
856.077
851.471
0.240006
0.249559
0.64039
5.04332
21.7196
57.3248
110.097
166.168
218.273
263.311
300.008
328.514
350.597
368.413
382.684
394.62
406.244
419.939
438.49
463.873
496.961
537.24
583.19
631.773
679.074
721.732
756.624
781.563
796.355
798.513
0.240253
0.260241
0.937849
6.96831
26.9666
66.3159
119.306
173.099
222.838
265.608
300.74
327.431
347.549
363.6
374.416
380.776
385.053
390.092
398.763
413.18
434.5
463.175
499.507
542.278
588.409
633.988
674.925
707.576
730.46
739.674
0.240575
0.276377
1.29032
8.83588
31.3787
72.5847
123.847
174.63
221.767
263.156
300.853
328.307
349.785
366.432
369.456
365.617
359.21
354.109
353.212
358.4
370.54
390.013
417.514
453.142
496.142
543.442
590.185
630.435
661.422
677.555
0.240933
0.296107
1.65857
10.4869
34.5021
75.6531
123.727
170.869
217.522
262.096
281.693
320.852
350.652
375.45
379.673
351.091
326.482
308.945
299.963
299.227
305.921
319.92
341.193
370.871
409.701
456.38
506.477
553.372
591.867
614.318
0.241308
0.315491
1.96751
11.6691
36.1635
75.6292
119.438
162.621
190.661
244.047
299.174
367.199
442.54
446.065
356.968
306.347
272.566
251.432
240.027
237.811
243.46
255.346
273.495
298.858
333.249
377.366
428.415
479.646
524.322
551.853
0.241671
0.333635
2.20416
12.3069
36.1863
72.6899
111.606
149.615
178.634
243.027
349.763
182.039
454.473
449.111
269.767
241.511
221.749
208.874
201.77
199.113
201.8
209.916
223.256
243.01
271.517
310.752
359.69
412.198
460.456
491.394
0.242017
0.351131
2.40596
12.6702
35.3512
68.234
101.865
133.574
158.581
231.091
366.05
178.605
238.788
216.324
202.983
197.521
196.62
196.705
196.639
198.075
202.196
211.68
230.172
260.765
303.721
353.744
402.417
434.607
0.24238
0.369824
2.59773
12.8789
33.9922
62.9216
91.3917
117.191
135.389
186.271
240.439
349.827
385.552
329.92
225.658
207.431
204.122
209.246
216.605
220.366
218.943
213.017
206.634
203.924
209.778
228.694
262.221
306.048
351.768
382.845
0.242799
0.391027
2.77487
12.9038
32.2667
57.4271
81.2274
101.666
120.384
141.798
161.46
191.378
194.739
199.219
205.233
209.471
220.666
235.857
246.921
250.392
246.154
235.084
220.75
208.425
203.219
210.737
233.729
269.097
309.117
336.909
0.243314
0.415365
2.94988
12.9301
30.7688
52.5139
72.4521
88.9429
101.632
112.121
124.111
138.282
157.564
186.616
208.816
223.527
244.116
261.81
271.243
271.606
263.717
249.086
230.771
213.314
201.459
200.73
214.639
241.349
274.155
297.029
0.243923
0.443801
3.1642
13.0794
29.6045
48.4666
65.3082
78.6514
88.7245
99.2799
113.371
133.207
164.77
198.016
216.683
237.013
260.46
275.353
280.727
277.708
267.261
251.011
231.514
212.739
198.77
194.09
201.975
221.087
246.183
263.078
0.244624
0.477341
3.40012
13.3022
28.7967
45.4012
59.8381
70.897
81.3978
96.6464
117.586
146.016
183.752
208.075
219.219
242.878
262.932
272.684
274.357
269.384
258.332
242.32
224.419
207.512
194.974
190.14
194.847
207.489
224.756
234.952
0.245369
0.510867
3.61774
13.5282
28.2245
43.1441
55.82
65.9625
78.5499
99.7251
128.427
164.84
198.144
206.97
215.57
236.069
250.475
256.071
256.113
251.502
241.669
229.527
216.024
203.569
194.736
191.568
194.193
200.582
209.96
213.186
0.245956
0.535665
3.75868
13.5954
27.6081
41.2993
52.8014
62.8057
77.9792
106.476
144.324
182.005
201.044
199.134
205.172
216.83
226.339
229.974
230.112
227.459
222.882
216.963
210.25
203.844
199.37
197.62
198.306
199.327
202.23
199.965
0.246032
0.53689
3.72773
13.2869
26.5923
39.2658
50.0253
60.1396
78.184
115.771
159.607
190.766
194.311
187.644
188.223
190.995
195.177
198.019
200.376
202.169
202.767
202.428
201.369
200.169
199.509
199.613
200.313
200.924
202.135
197.495
0.245282
0.501653
3.45306
12.496
25.0617
36.9008
47.3949
57.7791
78.9955
123.416
168.907
190.886
184.925
175.635
170.977
167.101
166.128
166.157
167.485
169.952
173.057
176.101
179.206
182.668
186.734
191.52
196.798
201.859
204.497
199.933
0.240046
0.241583
0.305411
1.87614
12.1441
41.1786
93.5794
160.095
222.241
275.808
322.944
363.554
398.823
430.811
462.399
497.224
539.339
592.197
656.278
729.158
805.329
878.603
944.049
998.719
1041.33
1071.75
1090.67
1098.04
1095.41
1080.89
0.240082
0.24318
0.396876
3.1126
16.6897
50.0105
105.414
171.54
232.869
286.767
333.71
373.668
408.064
438.737
468.635
501.084
539.822
588.171
646.877
714.438
786.25
856.613
920.557
974.843
1017.88
1049.4
1069.67
1078.66
1077.79
1065.52
0.240182
0.248227
0.613372
5.1486
23.2153
62.2979
121.697
186.882
247.223
301.051
347.232
385.86
418.457
446.85
473.645
501.655
534.113
574.077
622.746
679.879
742.468
806.093
866.272
919.545
963.8
998.138
1022.01
1035.25
1038.79
1031.01
0.240419
0.262418
1.03927
8.04215
31.362
76.3667
138.371
202.459
262.187
315.017
359.658
396.221
426.116
451.492
474.182
496.476
521.154
550.911
587.566
631.893
682.598
736.936
791.433
842.748
888.417
926.462
955.503
974.885
984.817
982.972
0.240908
0.29393
1.71971
11.6405
40.2974
90.2673
152.876
215.674
274.017
324.963
367.583
401.746
428.858
450.542
468.467
484.266
500.491
519.621
544.121
575.384
613.511
657.382
704.861
753.4
799.859
841.762
876.812
903.382
920.821
925.675
0.241823
0.349325
2.60702
15.5224
48.7292
101.503
163.19
224.063
279.922
328.517
369.906
402.338
426.718
445.307
457.63
465.752
472.541
481.192
494.343
513.746
540.212
573.761
613.728
658.422
705.08
750.424
791.59
825.673
850.999
862.648
0.243297
0.429768
3.6086
19.2389
55.6896
109.181
168.509
226.132
278.786
325.716
370.927
405.571
429.573
445.333
447.116
443.432
438.361
435.764
438.725
448.451
465.491
490.24
523.116
563.291
609.201
657.638
704.487
745.815
778.799
796.781
0.24538
0.530578
4.63246
22.4963
60.6403
112.97
168.51
221.683
271.434
319.743
353.383
408.542
441.284
459.59
442.548
416.398
395.548
381.849
376.529
380.396
391.893
411.254
438.618
474.587
518.436
568.087
619.418
667.197
707.089
730.365
0.247864
0.637222
5.56462
24.9537
63.3791
113.019
163.569
211.494
260.165
315.203
365.734
461.228
534.142
526.812
408.719
365.836
336.918
319.916
312.474
314.188
324.229
341.019
364.772
396.416
437.203
486.249
539.987
592.356
637.661
665.077
0.250572
0.742835
6.37847
26.6754
64.0423
109.819
154.64
196.421
241.494
289.794
380.6
483.754
505.239
379.952
333.335
301.98
282.064
271.801
268.809
271.07
278.963
292.028
310.216
335.585
370.62
416.055
469.203
523.5
572.002
601.855
0.253542
0.853265
7.11042
27.9133
63.5517
104.8
143.363
178.287
216.734
267.681
360.447
592.425
357.965
289.549
299.046
271.887
259.416
257.704
261.26
265.714
270.038
275.474
283.707
298.367
323.395
361.078
409.728
462.538
511.455
541.783
0.257068
0.975526
7.80952
28.84
62.3762
98.8195
131.218
159.628
188.869
226.428
278.212
458.598
434.503
452.816
282.595
264.288
263.419
272.407
282.854
288.732
288.846
284.974
280.991
282.724
295.212
322.058
362.713
410.575
456.938
485.698
0.261202
1.10636
8.48032
29.5223
60.7171
92.6416
119.561
142.323
162.357
183.518
211.219
259.704
271.594
274.529
265.951
270.649
284.907
301.967
313.784
317.194
312.227
300.984
287.881
279.031
280.173
295.931
327.002
367.492
408.76
434.105
0.26597
1.24938
9.14116
30.0887
59.1349
87.0501
109.53
128.107
142.949
156.268
172.421
192.184
217.071
247.711
269.51
288.251
310.617
327.866
336.16
335.276
325.965
310.455
292.553
277.641
271.182
278.137
300.158
332.298
366.736
387.223
0.271667
1.40796
9.83733
30.7462
57.8852
82.4232
101.615
117.053
128.896
141.59
159.04
184.545
221.476
254.957
278.23
303.667
325.482
337.996
341.417
337.086
325.721
309.138
290.057
273.242
263.473
265.266
280.141
303.985
330.591
345.192
0.278283
1.57997
10.5451
31.4573
57.0225
78.8152
95.554
108.343
119.992
137.978
164.389
200.394
238.003
260.301
282.052
307.452
323.427
330.053
329.958
324.411
313.533
298.278
281.101
265.716
256.346
256.37
266.22
282.085
300.35
308.407
0.285007
1.74123
11.1718
32.1126
56.4573
76.1336
91.0035
102.04
116.27
142.982
181.073
220.011
243.944
256.965
278.074
296.952
305.664
307.972
306.805
302.492
294.316
283.126
270.399
259.01
252.268
252.421
258.38
266.48
276.507
278.108
0.290044
1.85444
11.5913
32.481
55.9226
74.0474
87.4503
97.8371
116.357
153.568
199.974
229.222
238.301
247.849
264.214
274.506
277.118
277.072
276.574
274.916
271.73
266.625
260.363
254.69
251.444
251.481
253.743
256.155
259.957
256.816
0.290325
1.85864
11.5903
32.1917
54.8264
71.9666
84.0495
94.6727
118.747
166.692
213.591
225.388
226.792
234.261
243.295
245.383
243.024
241.035
241.541
243.473
245.074
245.586
245.279
244.862
245.004
245.946
247.507
249.125
251.142
245.831
0.282962
1.69983
11.0038
31.0308
52.9083
69.3537
80.694
91.9649
120.679
176.537
216.823
215.722
214.65
219.94
222.68
217.824
210.32
205.577
204.876
207.042
210.656
214.462
218.383
222.62
227.355
232.6
238.2
243.326
246.117
240.142
0.240305
0.245436
0.50592
4.54562
23.3081
66.1495
130.323
200.459
265.419
325.213
378.832
426.284
468.724
508.343
548.275
592.265
643.851
705.139
774.812
849.136
923.001
991.699
1051.93
1101.9
1140.97
1169.38
1187.78
1196.28
1195.78
1183.53
0.240421
0.253002
0.795813
6.86447
29.8369
76.791
142.545
212.718
278.206
338.066
391.16
437.611
478.69
516.574
554.242
595.169
642.689
699.031
763.464
833.143
903.543
970.062
1029.18
1078.82
1118.14
1147.21
1166.54
1176.34
1177.28
1167.14
0.240725
0.274817
1.38748
10.4635
39.189
91.704
159.813
229.801
295.609
354.923
406.71
451.186
489.691
524.314
557.689
592.811
632.661
679.589
733.718
793.55
855.891
916.909
973.195
1022.33
1062.97
1094.63
1117.45
1131.22
1136.37
1130.7
0.241521
0.330552
2.4203
15.4653
50.7719
108.604
178.461
248.417
313.621
371.447
421.05
462.666
497.599
527.831
555.549
583.242
613.597
649.058
690.442
737.772
789.351
842.562
894.52
942.644
985.036
1020.56
1048.62
1068.41
1079.91
1080.23
0.243443
0.445796
3.93425
21.5376
63.1841
124.982
195.324
264.549
327.927
383.301
430.152
468.487
499.396
524.676
545.984
565.443
585.646
609.061
637.555
671.951
711.973
756.333
802.988
849.482
893.515
933.362
967.496
994.355
1013.35
1020.35
0.24759
0.638648
5.8502
28.0028
74.7119
138.576
208.079
274.968
335.245
387.491
431.985
467.662
494.825
515.176
529.417
539.898
549.603
561.397
577.944
600.724
630.063
665.806
706.861
751.227
796.52
840.37
880.551
914.709
941.379
954.925
0.254607
0.907675
7.99778
34.1982
84.2737
148.163
215.034
277.895
333.969
383.134
428.115
463.775
488.511
504.064
508.683
508.009
506.272
507.097
513.379
526.925
547.782
576.277
612.11
654.044
700.191
747.502
793.059
834.006
867.796
887.08
0.264604
1.22884
10.1817
39.6866
91.2981
153.214
215.652
273.005
324.248
371.579
425.959
468.279
492.715
501.517
485.955
469.159
454.954
446.541
445.753
453.43
469.583
493.404
525.046
564.436
609.941
659.227
709.095
755.743
795.518
819.141
0.277114
1.57735
12.2167
44.0816
95.6502
153.996
210.481
261.186
307.439
354.62
403.842
477.459
510.128
510.714
448.192
416.902
395.116
383.57
381.377
387.746
402.011
422.906
451.09
486.801
530.152
579.324
631.525
681.977
725.991
752.556
0.291905
1.9491
14.1006
47.4278
97.5138
151.212
200.796
244.034
284.261
332.172
392.852
481.312
497.503
471.994
390.999
359.671
341.816
335.801
338.289
346.221
358.622
375.432
397.51
426.654
464.448
510.642
562.398
614.169
660.248
687.988
0.309404
2.34178
15.9022
50.1832
98.0045
146.228
188.369
223.904
257.2
298.544
358.181
443.31
442.397
415.189
347.86
324.445
316.707
320.787
330.229
340.1
348.844
357.381
368.877
387.022
415.552
455.104
503.113
553.283
598.954
626.066
0.330586
2.76531
17.6793
52.5493
97.6445
140.059
175.007
203.586
229.029
257.243
302.681
377.129
390.036
376.332
323.066
314.538
321.088
336.019
350.555
359.457
362.145
360.721
359.638
365.211
382.126
412.301
453.821
499.616
542.415
567.198
0.355692
3.22922
19.4344
54.5003
96.6279
133.65
162.305
185.116
203.76
221.784
250.422
277.476
293.737
306.853
312.508
324.691
344.858
364.993
378.172
382.273
377.965
368.22
357.756
353.058
359.384
379.956
413.402
452.688
490.595
511.622
0.384886
3.72714
21.1178
56.2144
95.5475
127.826
151.555
170.037
184.771
198.31
215.625
236.862
263.604
294.244
320.155
345.404
370.302
387.383
394.754
393.131
383.725
369.387
354.031
343.173
342.189
354.804
380.136
411.873
443.335
459.51
0.417792
4.23391
22.7461
57.9177
94.7174
123.025
143.173
158.802
171.553
185.217
204.03
230.963
266.847
301.27
331.552
360.198
380.892
391.095
392.516
387.219
376.124
361.024
344.755
331.786
327.168
334.523
352.765
376.481
400.557
411.216
0.454177
4.75288
24.3568
59.6147
94.2459
119.353
136.877
150.531
162.832
182.611
210.811
244.874
278.265
306.288
335.864
359.436
372.001
375.539
373.503
367.619
357.993
345.033
330.746
318.945
313.844
318.339
330.752
346.278
362.594
367.489
0.490156
5.23561
25.8231
61.218
94.1
116.686
132.332
143.989
159.543
190.099
227.452
257.333
280.138
303.113
327.902
342.72
347.332
346.595
344.006
340.184
334.382
325.656
315.404
306.843
303.373
306.262
313.552
321.255
330.286
329.989
0.515746
5.57551
26.9124
62.427
94.0622
114.734
128.971
139.55
161.229
204.129
241.735
258.089
271.939
291.969
309.112
314.988
313.522
310.565
308.973
308.275
307.111
304.024
299.705
296.057
294.726
295.877
298.384
300.925
304.864
301.189
0.515936
5.62331
27.272
62.7726
93.6465
113.079
125.882
136.686
166.235
218.822
245.939
248.838
260.053
275.962
284.844
282.917
276.476
271.543
270.404
272.276
274.993
276.741
277.564
278.19
279.16
280.567
282.454
284.56
287.197
281.787
0.476106
5.24748
26.5855
61.8276
92.2361
111.113
122.446
134.374
170.772
227.185
240.8
237.697
247.881
260.086
262.669
254.61
243.473
235.302
232.668
234.162
238.021
242.339
246.788
251.454
256.426
261.691
267.09
272.013
275.184
268.992
0.240676
0.259355
1.02734
9.0561
37.8758
92.6241
163.193
237.131
308.464
374.636
434.734
488.903
538.389
585.537
633.566
685.935
745.223
812.069
883.97
957.095
1027.33
1091.27
1146.55
1191.78
1226.49
1251.13
1266.63
1273.51
1272.56
1261.19
0.240982
0.285412
1.67465
12.5382
45.986
104.336
176.677
251.917
323.615
389.422
448.565
501.308
548.976
593.865
638.999
687.605
742.221
803.869
870.746
939.761
1007.09
1069.27
1123.71
1168.81
1203.89
1229.25
1245.68
1253.7
1254.19
1244.85
0.241936
0.355977
2.87569
18.038
58.1825
121.74
196.735
272.94
344.374
408.927
465.973
515.885
560.026
600.546
640.113
681.564
727.319
778.835
835.396
895.187
955.377
1012.92
1065.22
1110.32
1147.11
1175.38
1195.51
1207.7
1212.65
1207.95
0.244814
0.521284
4.85926
25.7243
73.3802
142.052
219.445
295.69
365.828
428.038
481.874
527.784
567.088
601.746
634.038
666.426
701.227
740.28
783.998
831.899
882.453
933.416
982.423
1027.26
1066.33
1098.82
1124.5
1143.13
1154.79
1156.38
0.251939
0.826968
7.62253
34.8635
89.5109
162
240.412
315.364
382.925
441.687
491.516
532.802
566.626
594.709
618.948
641.565
664.988
691.261
721.813
757.43
797.751
841.433
886.548
930.768
972.05
1009.04
1041.02
1067.04
1086.48
1094.98
0.266834
1.31009
11.0379
44.4704
104.625
179.095
256.404
328.32
391.863
446.247
491.955
528.872
557.364
578.882
594.839
607.575
619.938
634.348
653.171
677.924
709.062
745.98
787.238
830.572
873.63
914.656
952.651
985.874
1012.94
1027.93
0.292159
1.95494
14.8529
53.6926
117.365
191.583
265.55
332.546
390.683
440.19
482.885
516.854
540.873
556.145
563.231
565.733
567.476
571.83
581.47
598.049
622.234
653.766
691.635
733.905
778.147
822.342
865.291
904.704
938.391
958.639
0.328148
2.71146
18.7531
61.9598
127.055
198.807
267.338
327.671
379.292
424.021
466.683
500.236
520.653
529.328
525.375
516.915
509.301
506.478
510.704
522.908
543.19
571.313
606.065
646.384
690.468
736.602
783.089
827.109
865.8
889.531
0.374632
3.54588
22.4748
68.9223
133.655
201.034
262.412
314.72
359.084
399.364
445.247
480.537
496.185
496.131
479.184
461.289
448.73
444.467
448.754
460.658
479.566
504.862
535.805
572.461
614.546
660.303
708.163
754.735
796.38
821.803
0.431385
4.45242
26.0416
74.5191
137.382
199.086
252.25
295.753
332.332
368.18
412.393
446.041
455.69
448.126
425.973
407.299
398.507
400.293
409.784
423.992
441.201
461.51
485.549
515.29
551.949
594.702
641.427
688.26
730.678
755.992
0.499306
5.42653
29.5479
79.3867
139.31
194.403
238.881
273.608
302.597
331.501
369.838
400.288
407.636
400.509
382.449
372.169
374.568
386.951
403.09
418.784
431.693
442.952
456.045
475.035
502.922
539.722
583.012
627.752
668.768
692.351
0.580056
6.47527
33.0529
83.7284
140.044
188.228
224.393
251.492
272.997
293.253
322.898
349.281
360.232
362.169
357.809
363.021
379.813
401.609
420.539
432.654
438.022
439.127
440.344
447.724
465.197
494.257
532.204
572.77
610.448
630.966
0.67524
7.61678
36.536
87.4142
139.9
181.605
210.575
231.555
247.108
260.642
279.57
300.365
318.403
336.034
352.931
375.957
403.378
426.829
441.347
446.373
443.45
436.01
428.621
426.88
435.326
456.499
487.906
522.662
555.445
571.908
0.785713
8.83336
39.8647
90.6951
139.485
175.434
198.908
215.392
227.62
238.821
253.792
274.119
300.819
332.592
364.935
397.236
425
441.956
448.419
446.311
437.84
425.985
414.323
407.281
409.631
424.258
448.808
476.798
503.615
515.384
0.908407
10.0515
43.0696
93.782
139.114
170.197
189.764
203.498
215.153
227.976
245.577
270.656
304.446
341.936
378.546
409.438
428.833
436.299
435.618
429.605
419.811
407.703
395.561
386.852
386.245
396.118
414.052
434.839
455.042
461.923
1.03725
11.2705
46.2189
96.7289
138.958
166.088
182.955
195.501
207.52
226.5
251.711
280.524
313.189
347.739
380.382
402.209
411.183
411.259
407.014
400.902
393.292
383.926
373.939
366.342
364.928
371.524
383.32
396.754
410.327
412.607
1.15992
12.3935
49.1117
99.4838
139.038
163.053
178.05
189.641
205.081
234.251
263.681
286.446
313.622
343.091
367.159
378.291
378.829
374.671
370.177
366.577
363.103
357.986
351.619
346.832
346.158
349.986
356.029
362.814
370.537
369.324
1.24399
13.2301
51.4919
101.843
139.216
160.844
174.644
185.364
207.75
246.58
270.336
282.952
304.464
328.537
343.101
345.186
339.852
333.625
330.21
329.671
330.192
329.546
327.832
326.471
326.562
328.071
330.309
333.276
337.389
334.174
1.24529
13.5158
52.905
103.38
139.149
159.028
172.104
182.967
213.579
257.048
267.721
272.96
291.527
309.306
315.529
310.444
300.585
292.525
289.29
290.307
293.402
296.284
298.208
299.804
301.468
303.284
305.648
308.723
311.858
307.706
1.12079
12.9824
52.6962
103.162
137.855
156.982
168.856
181.049
218.11
260.584
259.621
262.694
278.952
291.956
292.342
282.025
268.218
257.386
252.532
252.794
256.327
260.9
265.621
270.515
275.608
280.843
286.211
291.265
294.578
289.942
0.241244
0.29935
2.05113
15.289
54.0427
118.032
194.645
275.09
352.608
424.9
491.216
551.859
608.231
662.75
718.449
778.118
843.196
913.216
985.35
1056.35
1123.19
1183.31
1234.62
1275.61
1305.65
1325.29
1335.83
1338.49
1334.51
1322.22
0.242155
0.369934
3.16258
19.894
63.8005
131.921
211.202
292.726
370.193
441.642
506.522
565.261
619.296
670.948
723.05
778.251
838.142
902.796
970.058
1037.24
1101.45
1160.03
1210.76
1251.97
1282.83
1303.65
1315.53
1319.61
1317.28