/*--------------------------------*- C++ -*----------------------------------*\
| =========                 |                                                 |
| \\      /  F ield         | OpenFOAM: The Open Source CFD Toolbox           |
|  \\    /   O peration     | Version:  2512                                  |
|   \\  /    A nd           | Website:  www.openfoam.com                      |
|    \\/     M anipulation  |                                                 |
\*---------------------------------------------------------------------------*/
FoamFile
{
    version     2.0;
    format      ascii;
    arch        "LSB;label=32;scalar=64";
    class       volScalarField;
    location    "100";
    object      nut;
}
// * * * * * * * * * * * * * * * * * * * * * * * * * * * * * * * * * * * * * //

dimensions      [0 2 -1 0 0 0 0];

internalField   nonuniform List<scalar> 
84826
(
0.0144195
0.014177
0.0139456
0.0137243
0.0135124
0.0133094
0.0131154
0.0129298
0.0127539
0.0125863
0.012429
0.0122776
0.0121404
0.012016
0.0118936
0.0117772
0.0116639
0.0115559
0.0114546
0.0113617
0.0112799
0.0112115
0.0111568
0.011392
0.0152808
0.0297797
0.0537603
0.0728422
0.0864758
0.0949831
0.0144195
0.0141771
0.0139457
0.0137246
0.0135129
0.0133103
0.0131167
0.0129319
0.0127566
0.0125899
0.0124335
0.0122832
0.0121473
0.0120242
0.0119032
0.0117882
0.0116762
0.0115698
0.0114702
0.0113791
0.011299
0.0112323
0.0111942
0.0119717
0.0181539
0.034605
0.0570643
0.0755711
0.0892062
0.0980829
0.0144195
0.0141771
0.0139459
0.0137248
0.0135134
0.0133112
0.0131179
0.012934
0.0127603
0.0125953
0.0124411
0.0122929
0.0121597
0.0120395
0.011922
0.0118104
0.0117014
0.0115986
0.0115033
0.0114164
0.0113405
0.0112779
0.0112951
0.0129381
0.0213933
0.0395197
0.0602799
0.0779948
0.091537
0.100805
0.0144195
0.0141772
0.013946
0.0137251
0.0135139
0.0133121
0.0131194
0.0129366
0.0127647
0.0126021
0.0124498
0.0123033
0.0121734
0.0120578
0.0119469
0.0118421
0.0117398
0.0116442
0.0115566
0.0114779
0.0114108
0.0113596
0.0114593
0.0139392
0.0241155
0.0423081
0.0621089
0.0793645
0.092978
0.102706
0.0144195
0.0141772
0.013946
0.0137253
0.0135143
0.0133128
0.0131207
0.0129393
0.0127695
0.0126086
0.0124573
0.0123378
0.0122131
0.0120811
0.0119809
0.0118893
0.0117998
0.011718
0.0116457
0.0115832
0.0115338
0.0115075
0.0116346
0.0141917
0.0249251
0.0424526
0.0616153
0.0787898
0.0928031
0.10321
0.0144195
0.0141772
0.0139461
0.0137253
0.0135146
0.0133134
0.013122
0.0129421
0.0127751
0.0126143
0.0124688
0.0111522
0.0103317
0.0103336
0.0112152
0.0120182
0.0119773
0.0119537
0.0119511
0.0119694
0.0120103
0.0120814
0.0122559
0.0137154
0.0218503
0.0379446
0.0569563
0.0748522
0.0900148
0.101651
0.0144195
0.0141772
0.013946
0.0137254
0.0135148
0.0133139
0.0131234
0.0129448
0.0127762
0.0126197
0.00922123
0.00787962
0.00785011
0.00814161
0.0093525
0.0114697
0.0133593
0.0139137
0.0145336
0.0151686
0.0157772
0.0163347
0.0168496
0.0176232
0.0209848
0.0317269
0.0489004
0.0674694
0.0843611
0.0978736
0.0144195
0.0141771
0.013946
0.0137254
0.0135149
0.0133144
0.0131246
0.0129471
0.0127786
0.0105259
0.00418175
0.00305823
0.00310813
0.00310646
0.0202503
0.025669
0.0278995
0.0295357
0.0306715
0.0314069
0.0318173
0.0319638
0.0318871
0.031704
0.0320811
0.0356214
0.0460141
0.0618416
0.0789494
0.0939237
0.0144195
0.0141771
0.0139459
0.0137254
0.0135149
0.0133147
0.0131256
0.0129474
0.0127803
0.00751007
0.00290181
0.00211271
0.00351025
0.00637786
0.0689259
0.0636103
0.0597318
0.0569607
0.0548638
0.0531361
0.0515969
0.0501426
0.0486959
0.047254
0.0460814
0.0464089
0.0514285
0.0629618
0.0784683
0.0935997
0.0144195
0.0141769
0.0139457
0.013725
0.0135145
0.0133144
0.0131257
0.0129472
0.0127802
0.00574913
0.00202974
0.000912245
0.00336337
0.00591147
0.0626423
0.0607619
0.0616253
0.064105
0.0664219
0.0671552
0.0638407
0.0609738
0.0584468
0.0562421
0.0545887
0.0545347
0.0587143
0.0688583
0.0833143
0.0978124
0.0144194
0.0141768
0.0139455
0.0137247
0.0135142
0.0133141
0.0131257
0.0129474
0.0127808
0.00560135
0.00187812
0.00177585
0.00866311
0.0346109
0.0378346
0.0395615
0.0414867
0.0432331
0.0448967
0.0466529
0.0486419
0.0511991
0.0551387
0.0565619
0.0573232
0.0626084
0.0736049
0.0885176
0.102799
0.0144195
0.0141769
0.0139458
0.0137252
0.0135146
0.0133145
0.0131259
0.0129477
0.0127815
0.00696854
0.00226466
0.00103173
0.00669934
0.012991
0.0445152
0.04025
0.036279
0.0339334
0.0330625
0.0334027
0.0344756
0.0359936
0.0378716
0.0404859
0.0454449
0.0536169
0.059052
0.0712909
0.0884662
0.104345
0.0144195
0.014177
0.013946
0.0137255
0.013515
0.0133145
0.013125
0.0129473
0.0127796
0.00942365
0.00317669
0.00220939
0.00611611
0.0146059
0.0449526
0.0446812
0.0410161
0.0385777
0.0377815
0.0378913
0.0382573
0.0385595
0.038917
0.0397778
0.0426
0.0469051
0.0525312
0.0660243
0.0850232
0.104
0.0144195
0.0141771
0.013946
0.0137254
0.0135149
0.0133141
0.0131239
0.012946
0.0127775
0.0126228
0.00767074
0.00625054
0.00898553
0.0126211
0.0170308
0.0174664
0.0178167
0.0184453
0.0197482
0.0215289
0.0235398
0.0255576
0.0274043
0.0289513
0.0303668
0.0342398
0.0464021
0.0658448
0.0884507
0.109664
0.0144195
0.0141772
0.0139461
0.0137253
0.0135147
0.0133136
0.0131224
0.0129432
0.0127754
0.0126156
0.0112861
0.00873665
0.00906947
0.0102247
0.0124192
0.0126852
0.0126476
0.0126128
0.0126814
0.012932
0.0134254
0.0141574
0.0150404
0.0163014
0.0221453
0.0367375
0.0573866
0.0799863
0.101844
0.121933
0.0144195
0.0141772
0.013946
0.0137253
0.0135143
0.013313
0.0131211
0.0129402
0.0127715
0.01261
0.0124601
0.0121065
0.0111727
0.0114095
0.0120628
0.0119629
0.0118614
0.0117628
0.0116759
0.0116077
0.0115708
0.0115756
0.0117731
0.0159529
0.0286335
0.0472941
0.0689364
0.0910359
0.112337
0.132574
0.0144195
0.0141772
0.013946
0.0137251
0.0135139
0.0133122
0.0131197
0.0129373
0.0127661
0.0126048
0.0124518
0.0123061
0.0121813
0.0120729
0.011962
0.0118514
0.0117403
0.0116331
0.011531
0.011434
0.011344
0.0112578
0.0116886
0.0181873
0.0327598
0.0520664
0.0737704
0.0962935
0.118631
0.140717
0.0144195
0.0141771
0.0139459
0.0137249
0.0135135
0.0133113
0.0131181
0.0129344
0.0127612
0.0125971
0.0124437
0.0122955
0.012166
0.0120509
0.0119352
0.0118221
0.0117096
0.0116014
0.0114986
0.0114005
0.0113071
0.0112155
0.0116971
0.0185637
0.0333882
0.052634
0.0740201
0.0970676
0.120942
0.14617
0.0144195
0.0141771
0.0139457
0.0137246
0.0135129
0.0133103
0.0131167
0.0129319
0.0127568
0.0125905
0.0124353
0.0122873
0.0121549
0.0120365
0.011919
0.0118051
0.0116929
0.0115848
0.0114817
0.0113836
0.0112902
0.0111993
0.0115258
0.0177155
0.0319626
0.0506186
0.0714681
0.0943478
0.119299
0.148697
0.0144195
0.0141771
0.0139457
0.0137244
0.0135125
0.0133094
0.0131153
0.0129296
0.0127535
0.0125862
0.0124297
0.0122803
0.0121464
0.0120266
0.0119084
0.0117942
0.0116822
0.0115744
0.0114718
0.0113741
0.0112812
0.0111907
0.0113398
0.0164084
0.0293958
0.0471156
0.0673827
0.0902246
0.116384
0.149588
0.123111
0.114039
0.106778
0.100773
0.0956717
0.0912395
0.0873274
0.0838134
0.080572
0.0776373
0.0750239
0.0727581
0.0708786
0.0694123
0.0682074
0.0671748
0.0663026
0.0655393
0.0649482
0.0645144
0.0643076
0.0644092
0.0597991
0.10334
0.234271
0.490837
1.03167
1.10345
1.07794
1.03274
0.12311
0.114036
0.106771
0.100761
0.0956498
0.0912019
0.0872637
0.0837232
0.0804362
0.0774465
0.0747535
0.0724269
0.0705643
0.0691632
0.0680132
0.06703
0.0662056
0.0654864
0.0649327
0.0645331
0.064444
0.066506
0.0715864
0.149213
0.33771
0.653186
1.07271
1.10636
1.08755
1.04706
0.123113
0.114029
0.106757
0.100736
0.0956051
0.0911231
0.0871228
0.0835257
0.0801389
0.0770158
0.0741697
0.0717524
0.0699228
0.0686971
0.0676691
0.0667978
0.0660689
0.0654539
0.0649863
0.0646598
0.0647621
0.0675254
0.0872853
0.203272
0.443619
0.807484
1.06924
1.10921
1.09866
1.06503
0.123117
0.114022
0.106739
0.100701
0.0955424
0.0910137
0.0869362
0.0832363
0.0796929
0.0763335
0.066899
0.0599806
0.0651323
0.0682659
0.0673814
0.0666742
0.0661004
0.0656296
0.0652805
0.0650698
0.0653468
0.0678498
0.0993735
0.247649
0.537914
0.916487
1.06261
1.10744
1.1055
1.07934
0.123114
0.11402
0.106718
0.100658
0.0954651
0.0908762
0.0867002
0.0828541
0.0790563
0.0678855
0.0485462
0.0436793
0.04631
0.0542834
0.0630074
0.0665041
0.0661286
0.0657764
0.0653859
0.0649867
0.0648563
0.0687167
0.0962175
0.246442
0.574038
0.879871
1.0277
1.08693
1.0993
1.08349
0.123111
0.114017
0.106702
0.100611
0.0953784
0.0907212
0.0864264
0.0823881
0.0782809
0.04879
0.0336485
0.0324476
0.0333179
0.0369718
0.0482032
0.0592404
0.0615374
0.0607091
0.0595079
0.0581471
0.0571238
0.058107
0.0721467
0.16487
0.418106
0.713487
0.915414
1.02102
1.06556
1.06906
0.123109
0.114007
0.106687
0.100574
0.0952912
0.0905625
0.0861355
0.0818044
0.0587071
0.033768
0.0217276
0.0207052
0.025269
0.0269109
0.0386615
0.0443568
0.0459044
0.0483304
0.0511379
0.0540667
0.0570244
0.0602156
0.0658823
0.0879542
0.183458
0.410443
0.679375
0.875207
0.985042
1.02607
0.123107
0.113997
0.106667
0.10054
0.0952199
0.0904229
0.0858613
0.081238
0.0429526
0.0220395
0.0164159
0.014081
0.0206476
0.0296599
0.0630055
0.0729172
0.0815725
0.0897369
0.0971265
0.103375
0.10849
0.112578
0.116275
0.123785
0.155861
0.265543
0.475683
0.704655
0.874653
0.960359
0.123105
0.113989
0.106649
0.100506
0.0951622
0.0903065
0.0856347
0.0688052
0.0328163
0.0139837
0.00840706
0.00693245
0.0255105
0.0380617
0.10158
0.113993
0.124981
0.134519
0.142484
0.148763
0.153239
0.155972
0.157541
0.160878
0.178731
0.247853
0.405518
0.614217
0.79944
0.9078
0.123098
0.113974
0.106625
0.10047
0.0951065
0.090213
0.085475
0.0611563
0.0261283
0.0102999
0.00402576
0.00241827
0.0196125
0.117506
0.178184
0.178532
0.179743
0.180736
0.181123
0.180706
0.179496
0.177781
0.176652
0.180091
0.201499
0.272003
0.418565
0.608978
0.785028
0.892972
0.123091
0.113963
0.106609
0.100451
0.0950832
0.0902019
0.0854525
0.0601217
0.025514
0.0101737
0.00373177
0.0257819
0.190467
0.189695
0.188015
0.185942
0.183927
0.181776
0.17938
0.177045
0.176113
0.181387
0.207873
0.285517
0.435063
0.621702
0.794733
0.902215
0.123091
0.113976
0.106622
0.10048
0.0951207
0.0902608
0.0855502
0.0655074
0.0309053
0.0132418
0.00516801
0.00239292
0.048189
0.154876
0.145094
0.148643
0.14839
0.148197
0.148279
0.147948
0.146841
0.14552
0.14487
0.14827
0.169599
0.244298
0.404155
0.61136
0.804947
0.92705
0.123089
0.11399
0.106646
0.100516
0.0951725
0.0903387
0.0857142
0.0770068
0.039242
0.0195508
0.0102861
0.0081737
0.0525403
0.0723405
0.0883274
0.0930417
0.0948379
0.097367
0.100016
0.10257
0.103815
0.103256
0.102473
0.103125
0.115373
0.177404
0.344931
0.596275
0.840234
0.992755
0.123096
0.113996
0.106668
0.100537
0.0952272
0.0904535
0.0859502
0.0814682
0.0523275
0.0290089
0.0175773
0.0176525
0.0367165
0.0514707
0.0480509
0.0467156
0.0463491
0.0465922
0.0482016
0.0506773
0.0535236
0.0563962
0.0592397
0.0671978
0.114939
0.274081
0.554219
0.841704
1.05119
1.1655
0.123107
0.114005
0.106679
0.100567
0.0953035
0.090597
0.0862212
0.0820363
0.0692602
0.0416356
0.0269032
0.0242908
0.0328541
0.0439001
0.0544145
0.0524054
0.0502669
0.0482313
0.0464162
0.0450843
0.0444052
0.0451406
0.0552239
0.132079
0.369646
0.698711
0.96988
1.14823
1.26516
1.32481
0.123111
0.114007
0.10669
0.100609
0.0953828
0.0907425
0.0864861
0.0825087
0.0784891
0.0574652
0.0392244
0.0329523
0.0382226
0.0537632
0.0606175
0.0597319
0.0588892
0.0580525
0.0570892
0.0559765
0.0549565
0.0596108
0.130478
0.39738
0.748147
1.01385
1.19048
1.30644
1.39126
1.43617
0.123113
0.114008
0.106709
0.100648
0.0954555
0.0908755
0.0867209
0.0829026
0.0791744
0.0755637
0.0545507
0.0458737
0.0505657
0.064927
0.0636365
0.062653
0.0617795
0.0609806
0.0602186
0.0594824
0.0592193
0.070957
0.200991
0.555244
0.897051
1.11885
1.26707
1.37965
1.47015
1.5231
0.123109
0.114014
0.106727
0.100681
0.095516
0.0909837
0.0869103
0.0832067
0.0796711
0.0763018
0.0704386
0.0609401
0.0666323
0.066381
0.0650218
0.0639543
0.0630233
0.0621802
0.0614013
0.0606862
0.0604912
0.0728358
0.213575
0.588418
0.927933
1.13695
1.27173
1.39836
1.50756
1.59228
0.123106
0.114021
0.106739
0.100705
0.0955591
0.0910619
0.0870538
0.0834153
0.0799966
0.0768188
0.0738627
0.071233
0.0689784
0.0671875
0.065768
0.0646333
0.0636633
0.0627855
0.0619762
0.0612338
0.0608852
0.0703804
0.195198
0.563438
0.907497
1.11198
1.24134
1.36831
1.4994
1.64305
0.123107
0.114024
0.106746
0.100717
0.0955807
0.0910995
0.087119
0.0835108
0.0801458
0.0770535
0.0741945
0.0716483
0.0694484
0.0676539
0.0662046
0.065036
0.0640388
0.0631371
0.0623077
0.061545
0.0610636
0.0675462
0.168709
0.513617
0.846988
1.05374
1.18711
1.32264
1.4672
1.67249
0.134468
0.133877
0.133102
0.132175
0.131117
0.129948
0.128706
0.127305
0.12587
0.124432
0.123032
0.117016
0.120364
0.119139
0.118035
0.117037
0.116162
0.115391
0.114766
0.106477
0.0856964
0.0725505
0.111134
0.252106
0.472959
0.981919
2.24577
2.40083
2.33288
2.22687
0.134468
0.133876
0.133102
0.132173
0.131113
0.129939
0.128686
0.12727
0.125825
0.124371
0.113552
0.105146
0.120153
0.119112
0.11805
0.117085
0.116235
0.115485
0.114882
0.106914
0.0879426
0.0851371
0.168654
0.38661
0.672195
1.19978
2.32055
2.41628
2.34561
2.24163
0.134468
0.133876
0.1331
0.132169
0.131104
0.129917
0.128633
0.127215
0.125744
0.121715
0.0944933
0.0853357
0.0931426
0.118942
0.117975
0.11708
0.116285
0.11556
0.114977
0.104487
0.0890055
0.101976
0.24425
0.529696
0.871123
1.45458
2.40681
2.43203
2.36657
2.26979
0.134469
0.133875
0.133098
0.132164
0.131091
0.129891
0.128574
0.127134
0.125622
0.0972655
0.0724705
0.0639759
0.0676931
0.0813553
0.0973509
0.112956
0.114983
0.113861
0.112739
0.108176
0.0946415
0.118679
0.30385
0.662022
1.04548
1.66229
2.3839
2.42295
2.37427
2.29123
0.134469
0.133875
0.133095
0.132157
0.131076
0.12986
0.12851
0.127037
0.111177
0.0733912
0.0520075
0.0456255
0.0472864
0.055173
0.0659661
0.0783229
0.0929869
0.0942075
0.0891453
0.0848062
0.0834894
0.111184
0.289496
0.71467
1.16966
1.76707
2.25401
2.34828
2.34112
2.28513
0.134469
0.133875
0.133094
0.13215
0.13106
0.129826
0.128445
0.126933
0.0852986
0.0523609
0.0359205
0.0331506
0.0350021
0.0416296
0.0615263
0.0610925
0.0573209
0.055097
0.0539494
0.0535825
0.0541743
0.0603752
0.112075
0.355067
0.886203
1.49716
1.92921
2.15174
2.23262
2.22917
0.134468
0.133875
0.133093
0.132145
0.131044
0.129793
0.128384
0.11141
0.0632036
0.0362912
0.0227011
0.0219206
0.0424257
0.0584332
0.0599312
0.0641905
0.0690233
0.0736567
0.0778483
0.0815107
0.0846941
0.0885392
0.101817
0.173185
0.428987
0.913959
1.43896
1.82048
2.03277
2.11172
0.134468
0.133874
0.133091
0.132142
0.131033
0.129769
0.128334
0.0892448
0.0461704
0.0234068
0.0171931
0.0151455
0.0350196
0.0701903
0.121781
0.130707
0.137948
0.143635
0.14785
0.150657
0.152206
0.153082
0.157218
0.185721
0.312845
0.627694
1.07951
1.50686
1.81089
1.96636
0.134468
0.133873
0.133089
0.132137
0.131027
0.129752
0.128309
0.0737148
0.0350026
0.0148945
0.00819492
0.00639787
0.0503948
0.0816024
0.178265
0.187503
0.192758
0.194915
0.195043
0.19389
0.191929
0.19005
0.191589
0.213076
0.311941
0.562412
0.943991
1.34333
1.6677
1.85901
0.134468
0.133872
0.133087
0.132133
0.131018
0.129737
0.128296
0.0653426
0.0278466
0.0106225
0.00375019
0.00189716
0.0827298
0.166896
0.228487
0.226672
0.225394
0.222792
0.219374
0.215599
0.211773
0.208938
0.211539
0.237028
0.335137
0.566485
0.916678
1.29261
1.6149
1.81725
0.134468
0.133872
0.133087
0.13213
0.131014
0.12973
0.128289
0.0642007
0.0271036
0.0103972
0.00347157
0.103092
0.234155
0.231288
0.227821
0.223427
0.218841
0.214142
0.209377
0.2056
0.207355
0.231796
0.326532
0.552108
0.90082
1.282
1.61625
1.83245
0.134468
0.133872
0.133086
0.132133
0.131017
0.129736
0.128287
0.0702268
0.0326744
0.0137998
0.0049513
0.00241475
0.180212
0.160099
0.203034
0.197594
0.19187
0.189367
0.189504
0.191557
0.189249
0.185387
0.184561
0.201736
0.288034
0.515374
0.874219
1.3014
1.67129
1.91483
0.134467
0.133873
0.133087
0.132137
0.131022
0.129748
0.1283
0.082987
0.0419492
0.0205101
0.00985076
0.0168744
0.0903018
0.107804
0.117499
0.121671
0.124212
0.125556
0.126018
0.125912
0.125423
0.124902
0.126233
0.143098
0.239509
0.518363
0.962899
1.45005
1.86255
2.12643
0.134468
0.133874
0.133091
0.132139
0.13103
0.129767
0.128339
0.101214
0.0565231
0.0307025
0.018218
0.0241777
0.0574446
0.0664172
0.0621336
0.0605657
0.0601401
0.0601971
0.0605001
0.0609572
0.0615712
0.0630917
0.0742187
0.150391
0.42154
0.920947
1.48693
1.96929
2.32012
2.51983
0.134468
0.133874
0.133091
0.132142
0.131044
0.129796
0.128391
0.126434
0.0748436
0.0450564
0.0284338
0.0271571
0.0392033
0.0535251
0.067804
0.0632479
0.0594797
0.0564373
0.0539709
0.0521634
0.0514641
0.0614064
0.160008
0.523929
1.14104
1.78219
2.28002
2.61138
2.82139
2.91872
0.134468
0.133874
0.133092
0.132149
0.131059
0.129827
0.12845
0.126937
0.0973587
0.0624637
0.0424821
0.0356056
0.0420753
0.0590424
0.0934853
0.0973043
0.0951464
0.0926397
0.089775
0.0867033
0.0888446
0.158691
0.532776
1.24644
1.96806
2.50837
2.86319
3.06893
3.18955
3.22743
0.134468
0.133874
0.133094
0.132155
0.131073
0.129856
0.128511
0.12703
0.122933
0.0827264
0.0596137
0.0502176
0.0556214
0.0770759
0.112338
0.111047
0.109841
0.10862
0.107361
0.10635
0.114266
0.242577
0.793881
1.6612
2.38282
2.84967
3.06247
3.33246
3.43726
3.46193
0.134468
0.133875
0.133096
0.13216
0.131084
0.129881
0.12857
0.127111
0.125584
0.103556
0.0776761
0.067191
0.0737288
0.102757
0.115572
0.114324
0.113233
0.112156
0.111143
0.110471
0.1184
0.251675
0.842897
1.7666
2.50276
2.89292
2.93853
3.26053
3.2566
3.65237
0.134468
0.133875
0.133098
0.132164
0.131093
0.129902
0.128622
0.127167
0.125669
0.121403
0.0933784
0.0824981
0.0906578
0.117871
0.116471
0.115233
0.114146
0.113072
0.112079
0.111346
0.116948
0.228294
0.788347
1.71716
2.46964
2.76975
2.70648
2.79759
2.69507
3.81083
0.134468
0.133876
0.133099
0.132166
0.131098
0.129913
0.128644
0.127204
0.125718
0.124219
0.102359
0.0913447
0.101272
0.118199
0.116808
0.115581
0.114495
0.113419
0.112423
0.111616
0.115084
0.200128
0.699649
1.59506
2.05681
2.34697
2.24801
2.2373
2.21989
3.61872
0.134738
0.134631
0.134508
0.134367
0.134204
0.13402
0.133815
0.13359
0.133374
0.133187
0.133038
0.127602
0.132655
0.132352
0.132027
0.131738
0.131502
0.131332
0.131257
0.109181
0.0876831
0.103428
0.237145
0.450569
0.800936
1.68784
2.94723
3.06798
3.04466
2.96073
0.134738
0.134631
0.134508
0.134367
0.134204
0.13402
0.133816
0.133594
0.133387
0.133218
0.124494
0.114651
0.12687
0.132438
0.132146
0.131871
0.131638
0.131467
0.131417
0.110591
0.0968894
0.155675
0.389474
0.693705
1.07113
1.89024
3.00716
3.09717
3.06111
2.97454
0.134738
0.134631
0.134508
0.134366
0.134204
0.13402
0.133821
0.133604
0.133418
0.132641
0.103666
0.0927405
0.0974971
0.12246
0.132054
0.131773
0.131495
0.131253
0.131142
0.112216
0.110013
0.229673
0.57512
0.92702
1.35735
2.18198
3.06438
3.13491
3.0935
3.00868
0.134738
0.134631
0.134508
0.134367
0.134204
0.134021
0.133826
0.133627
0.133481
0.106318
0.0796425
0.0687851
0.0691577
0.0828293
0.106388
0.127758
0.126384
0.124913
0.123508
0.123952
0.131418
0.29557
0.674725
1.12259
1.57962
2.43361
3.07053
3.1447
3.11316
3.03897
0.134738
0.134631
0.134508
0.134367
0.134205
0.134024
0.133836
0.133667
0.121369
0.0806761
0.0574993
0.0486413
0.047222
0.0559623
0.0743641
0.0921146
0.0863059
0.0814567
0.0776066
0.0755745
0.087753
0.199493
0.566295
1.2084
1.74818
2.55622
2.96063
3.08121
3.08774
3.04037
0.134738
0.134631
0.134508
0.134367
0.134206
0.13403
0.133855
0.133733
0.0939576
0.0583506
0.0401774
0.0346243
0.0401448
0.0705804
0.0691576
0.0653691
0.0632351
0.0621561
0.0617808
0.0620591
0.0651721
0.0939778
0.268498
0.770345
1.51758
2.20894
2.66225
2.89651
2.98574
2.99063
0.134738
0.134631
0.134508
0.134368
0.134208
0.134037
0.133884
0.122574
0.0706532
0.0417112
0.025959
0.0226047
0.0666592
0.0841579
0.0895641
0.0934381
0.0971243
0.100427
0.103292
0.105682
0.108165
0.116951
0.170333
0.401926
0.935448
1.62304
2.20998
2.59471
2.80354
2.88543
0.134738
0.134631
0.134509
0.134368
0.134211
0.134047
0.133922
0.098741
0.0534769
0.0276024
0.0191493
0.0128934
0.0629646
0.106895
0.144556
0.149693
0.153747
0.157093
0.159799
0.16163
0.162885
0.167202
0.195128
0.326069
0.683913
1.24707
1.83409
2.29848
2.60406
2.7602
0.134739
0.134631
0.134509
0.134369
0.134214
0.134056
0.133963
0.082973
0.0410345
0.0190778
0.0100995
0.00693992
0.0679795
0.139939
0.175103
0.180433
0.185199
0.188502
0.190059
0.190181
0.189667
0.192235
0.215259
0.322546
0.616794
1.09681
1.63839
2.11394
2.46626
2.6704
0.134739
0.134631
0.134509
0.13437
0.134216
0.134065
0.133996
0.0741544
0.0341699
0.0140908
0.00535332
0.00514888
0.0422427
0.15964
0.217421
0.227027
0.228747
0.226201
0.22163
0.216359
0.211314
0.209898
0.227841
0.319397
0.581021
1.02836
1.55322
2.03452
2.41263
2.64648
0.134738
0.134631
0.134509
0.13437
0.134216
0.134065
0.134001
0.0730031
0.0332
0.0135518
0.00470984
0.00276861
0.0163116
0.255303
0.219951
0.226304
0.224715
0.21947
0.2128
0.205728
0.199137
0.196371
0.212681
0.299964
0.55423
1.0016
1.53782
2.0383
2.44229
2.7011
0.134738
0.134631
0.134509
0.134369
0.134213
0.134059
0.133976
0.0793419
0.0382069
0.0172062
0.00614861
0.00548985
0.0870324
0.198998
0.172184
0.17551
0.176212
0.174752
0.172037
0.168554
0.164939
0.164026
0.181486
0.275984
0.553504
1.0376
1.61108
2.1446
2.57815
2.85993
0.134738
0.134631
0.134508
0.134368
0.134211
0.134051
0.133936
0.0920778
0.0486967
0.0239341
0.0110825
0.0258678
0.0985731
0.117146
0.102488
0.103405
0.104229
0.105042
0.1059
0.106766
0.107673
0.110947
0.13653
0.270791
0.647426
1.24054
1.88299
2.4472
2.89019
3.17174
0.134738
0.134631
0.134508
0.134368
0.134209
0.13404
0.133897
0.112235
0.0633215
0.0356963
0.0209829
0.0228125
0.0487312
0.06311
0.0582078
0.0561224
0.055159
0.0547338
0.0546199
0.0547672
0.056101
0.0713226
0.177545
0.534903
1.16815
1.89559
2.54275
3.04972
3.42194
3.64185
0.134738
0.134631
0.134508
0.134367
0.134206
0.134031
0.133865
0.13377
0.0833195
0.0508163
0.0326358
0.0291312
0.0372227
0.0513957
0.0753424
0.0700934
0.065851
0.0623858
0.0595565
0.0577475
0.0657118
0.165263
0.572042
1.29089
2.09999
2.83009
3.37733
3.75414
4.00833
4.13627
0.134738
0.134631
0.134508
0.134366
0.134205
0.134025
0.133841
0.133691
0.107053
0.0695763
0.0481085
0.0399417
0.0454495
0.0626077
0.0985068
0.11403
0.111275
0.108163
0.105037
0.103994
0.139515
0.397056
1.05327
2.00495
2.72488
3.21488
3.90685
4.33203
4.49699
4.55465
0.134738
0.134631
0.134508
0.134366
0.134204
0.134021
0.133828
0.133641
0.133521
0.0913386
0.0666264
0.0563487
0.0619681
0.0843225
0.128803
0.128166
0.127453
0.126651
0.125852
0.127428
0.172163
0.474075
1.19888
2.30377
2.9318
3.2979
3.80674
4.69035
4.86135
4.88381
0.134738
0.134631
0.134508
0.134366
0.134203
0.134019
0.133822
0.133611
0.133448
0.113557
0.0862178
0.075018
0.0816206
0.112163
0.13124
0.130786
0.130337
0.129886
0.129496
0.131041
0.170176
0.462667
1.19979
2.35553
3.03943
3.26438
3.48028
4.09671
4.65724
5.14703
0.134738
0.134631
0.134508
0.134366
0.134203
0.134019
0.133815
0.133598
0.133408
0.132658
0.10323
0.0917961
0.100322
0.132192
0.131775
0.131344
0.13093
0.130516
0.13015
0.131082
0.160587
0.416654
1.12492
2.26372
2.93149
3.06826
3.0428
3.33899
3.82233
5.35933
0.134739
0.134631
0.134509
0.134367
0.134204
0.13402
0.133815
0.133594
0.133392
0.133239
0.112858
0.101391
0.11176
0.132286
0.131874
0.131454
0.131052
0.13065
0.130278
0.130745
0.151824
0.365548
1.02486
2.01062
2.46603
2.54262
2.43799
2.69819
3.38755
5.49702
0.134745
0.134655
0.134564
0.134474
0.134384
0.134296
0.134213
0.134145
0.13411
0.134126
0.1342
0.134297
0.134346
0.134311
0.134244
0.134206
0.134217
0.134295
0.131592
0.107209
0.0986061
0.185906
0.401136
0.651145
1.16487
2.34524
3.27304
3.39802
3.399
3.26167
0.134745
0.134655
0.134564
0.134474
0.134384
0.134296
0.134216
0.134153
0.134129
0.134169
0.134276
0.128969
0.134463
0.134461
0.134418
0.134387
0.134392
0.134468
0.131899
0.110204
0.130477
0.316036
0.649068
0.968808
1.46634
2.52936
3.33529
3.43041
3.4163
3.35472
0.134745
0.134655
0.134564
0.134474
0.134385
0.134299
0.134223
0.134172
0.134175
0.134266
0.117472
0.104967
0.108663
0.133007
0.134478
0.134447
0.134413
0.134424
0.133235
0.116434
0.179193
0.488182
0.907661
1.27488
1.84025
2.84328
3.4104
3.48257
3.45795
3.39556
0.134745
0.134655
0.134565
0.134475
0.134386
0.134303
0.134235
0.134204
0.134256
0.119836
0.091281
0.0785495
0.0782017
0.0924711
0.117183
0.13252
0.131649
0.13057
0.129956
0.133716
0.233044
0.549038
1.07072
1.51317
2.14812
3.1519
3.45487
3.52106
3.49808
3.44127
0.134745
0.134655
0.134565
0.134475
0.134388
0.134309
0.134253
0.134256
0.134377
0.0923264
0.0671968
0.0554995
0.0539415
0.0647439
0.0837417
0.111488
0.105844
0.0988878
0.0932484
0.0974978
0.178836
0.491912
1.05637
1.74538
2.38859
3.15684
3.41829
3.50919
3.50942
3.47124
0.134745
0.134655
0.134565
0.134476
0.134391
0.134318
0.134279
0.134334
0.106669
0.068636
0.0472862
0.0379785
0.0355552
0.047799
0.0750867
0.069955
0.065197
0.0625263
0.0615892
0.0638286
0.0902605
0.258171
0.756575
1.52291
2.31149
2.9031
3.24911
3.41321
3.46899
3.46815
0.134745
0.134655
0.134565
0.134477
0.134394
0.134328
0.134315
0.134437
0.0819438
0.0500677
0.0324598
0.0268839
0.0362164
0.0665171
0.0643909
0.0665304
0.0709885
0.0765038
0.0822206
0.0879784
0.0986092
0.151947
0.388744
0.969547
1.76115
2.46865
2.95182
3.23215
3.37445
3.42946
0.134745
0.134655
0.134566
0.134478
0.134398
0.13434
0.134354
0.113462
0.06391
0.0360904
0.0200311
0.0191247
0.0608745
0.081987
0.0965904
0.107653
0.118074
0.127112
0.134477
0.140195
0.146795
0.172618
0.298372
0.687924
1.35768
2.07764
2.64965
3.03218
3.26262
3.37831
0.134745
0.134655
0.134566
0.134479
0.134401
0.134351
0.134394
0.0968479
0.0515615
0.0260021
0.0160664
0.01308
0.059187
0.108756
0.126523
0.139538
0.150507
0.159175
0.165334
0.169144
0.17294
0.191073
0.285984
0.59484
1.17025
1.85011
2.44843
2.89021
3.18602
3.35242
0.134745
0.134655
0.134566
0.13448
0.134403
0.134359
0.134423
0.0881986
0.0440592
0.0210257
0.0107155
0.0134188
0.0483275
0.0837062
0.110713
0.128926
0.143025
0.153277
0.160002
0.163954
0.167754
0.184613
0.270753
0.551458
1.08992
1.75152
2.36106
2.83699
3.17748
3.3821
0.134745
0.134655
0.134566
0.13448
0.134404
0.13436
0.134427
0.0870573
0.0427863
0.0202638
0.00919005
0.0114366
0.0307544
0.0814897
0.108497
0.120026
0.1276
0.132362
0.134924
0.136251
0.138669
0.155451
0.245274
0.536056
1.0909
1.76479
2.38857
2.88712
3.25832
3.49082
0.134745
0.134655
0.134566
0.134479
0.134402
0.134355
0.134407
0.0929182
0.0482355
0.0234627
0.0105559
0.0318767
0.0832275
0.101024
0.0946443
0.0972536
0.0988764
0.0997732
0.100219
0.100488
0.102725
0.122774
0.233272
0.579708
1.2013
1.91479
2.55633
3.06769
3.4562
3.70463
0.134745
0.134655
0.134566
0.134479
0.134399
0.134345
0.134372
0.106287
0.0591598
0.0309927
0.0170278
0.0239934
0.0656563
0.0615251
0.0600673
0.0594284
0.0593509
0.0595372
0.0598842
0.0606284
0.0654721
0.107823
0.308259
0.812947
1.55226
2.30131
2.93392
3.42993
3.80806
4.04761
0.134745
0.134655
0.134565
0.134478
0.134396
0.134334
0.134332
0.12742
0.0743223
0.0442438
0.0264777
0.0267237
0.0390021
0.0632704
0.0604124
0.0564378
0.0535796
0.0514487
0.0499434
0.0503904
0.0728834
0.231369
0.704835
1.43727
2.25728
2.98983
3.55645
3.98594
4.30788
4.50174
0.134745
0.134655
0.134565
0.134477
0.134393
0.134323
0.134295
0.134381
0.095481
0.060363
0.0401776
0.0332668
0.0387635
0.0555335
0.0852732
0.0920732
0.0875763
0.083522
0.080279
0.0852533
0.177284
0.596898
1.35273
2.21843
2.78469
3.61209
4.26109
4.60624
4.85019
4.97943
0.134745
0.134655
0.134565
0.134476
0.13439
0.134313
0.134266
0.134294
0.120537
0.0806011
0.0573072
0.0475275
0.0524906
0.070595
0.110735
0.125684
0.124405
0.122923
0.121774
0.132829
0.272727
0.76921
1.60067
2.62195
3.0566
3.82056
4.85674
5.14741
5.32978
5.40233
0.134745
0.134655
0.134565
0.134475
0.134387
0.134307
0.134245
0.134234
0.134327
0.103832
0.0773673
0.0662874
0.0716867
0.0952592
0.133005
0.13278
0.132516
0.132229
0.132378
0.143584
0.281164
0.791885
1.66282
2.79438
3.20755
3.77302
4.72303
5.5561
5.7082
5.74286
0.134745
0.134655
0.134565
0.134475
0.134386
0.134302
0.134231
0.134195
0.134232
0.127657
0.0985346
0.0865135
0.0930221
0.124731
0.134224
0.134083
0.133925
0.133775
0.133943
0.142137
0.256536
0.743401
1.6173
2.77437
3.26562
3.5654
4.14637
5.20293
6.00081
6.00618
0.134745
0.134655
0.134565
0.134475
0.134385
0.1343
0.134223
0.134173
0.134177
0.13427
0.116925
0.104548
0.113237
0.134516
0.134434
0.13431
0.134176
0.134047
0.134116
0.139466
0.225814
0.664575
1.50788
2.6343
3.11151
3.19192
3.41584
4.16398
5.54003
6.20042
0.134745
0.134655
0.134565
0.134475
0.134386
0.1343
0.134221
0.134165
0.134154
0.13422
0.12715
0.114919
0.125238
0.134515
0.13443
0.134313
0.134187
0.134063
0.134063
0.137457
0.200496
0.585425
1.38122
2.31419
2.57082
2.55301
2.74389
3.6411
5.61807
6.31125
0.134745
0.134655
0.134567
0.134479
0.134393
0.134311
0.134236
0.134178
0.134149
0.134164
0.134228
0.134316
0.134379
0.134386
0.134375
0.134394
0.134466
0.134644
0.126978
0.105295
0.134169
0.30955
0.547376
0.841567
1.50728
2.77787
3.47946
3.57685
3.57722
3.28898
0.134745
0.134655
0.134567
0.134479
0.134393
0.134312
0.134239
0.134185
0.134166
0.1342
0.134295
0.134419
0.13452
0.134563
0.134578
0.134607
0.134677
0.134889
0.127985
0.117386
0.214643
0.524211
0.86754
1.20415
1.81799
2.94587
3.53879
3.60835
3.595
3.46644
0.134745
0.134655
0.134567
0.134479
0.134394
0.134314
0.134245
0.134201
0.134204
0.134282
0.13443
0.122543
0.126113
0.134765
0.134816
0.134857
0.134916
0.135154
0.131709
0.140122
0.334491
0.757718
1.16531
1.59257
2.27255
3.28822
3.62444
3.67034
3.64502
3.59645
0.134745
0.134655
0.134567
0.134479
0.134395
0.134317
0.134255
0.134228
0.134271
0.134417
0.108009
0.0937865
0.0931147
0.107325
0.129412
0.134454
0.134285
0.134149
0.137496
0.173412
0.411812
0.876308
1.42781
1.89414
2.69803
3.52389
3.70142
3.73575
3.70697
3.66076
0.134745
0.134655
0.134567
0.13448
0.134397
0.134322
0.13427
0.13427
0.134375
0.108951
0.0816882
0.06838
0.0667486
0.0782111
0.0975053
0.124083
0.126834
0.122793
0.122696
0.169876
0.416952
0.920035
1.59844
2.17809
3.05082
3.55719
3.73423
3.77746
3.76
3.72507
0.134745
0.134656
0.134567
0.134481
0.134399
0.134329
0.134291
0.134331
0.125256
0.0836715
0.0602324
0.0483919
0.0476584
0.0590947
0.0738417
0.0935517
0.0917371
0.0839542
0.0797973
0.106036