/*--------------------------------*- C++ -*----------------------------------*\
| =========                 |                                                 |
| \\      /  F ield         | OpenFOAM: The Open Source CFD Toolbox           |
|  \\    /   O peration     | Version:  2512                                  |
|   \\  /    A nd           | Website:  www.openfoam.com                      |
|    \\/     M anipulation  |                                                 |
\*---------------------------------------------------------------------------*/
FoamFile
{
    version     2.0;
    format      ascii;
    arch        "LSB;label=32;scalar=64";
    class       volScalarField;
    location    "100";
    object      nut;
}
// * * * * * * * * * * * * * * * * * * * * * * * * * * * * * * * * * * * * * //

dimensions      [0 2 -1 0 0 0 0];

internalField   nonuniform List<scalar> 
90398
(
0.0144217
0.0141889
0.0139799
0.013831
0.0152345
0.0308563
0.0667085
0.117943
0.175804
0.222506
0.255551
0.277885
0.293185
0.304017
0.312043
0.319074
0.326874
0.337469
0.353177
0.375796
0.405574
0.440273
0.475558
0.506835
0.530972
0.546734
0.554557
0.555098
0.551857
0.542566
0.0144218
0.014189
0.0139812
0.0138931
0.0174558
0.0397779
0.0812574
0.134256
0.187122
0.230388
0.261634
0.28322
0.298277
0.309046
0.316975
0.323695
0.330757
0.339902
0.353126
0.372095
0.397455
0.42803
0.460676
0.491279
0.516352
0.53394
0.543882
0.546534
0.545035
0.537482
0.0144219
0.0141894
0.0139851
0.0140813
0.0216868
0.050851
0.0961551
0.149331
0.199489
0.239426
0.268405
0.288652
0.302973
0.313357
0.320941
0.327067
0.332964
0.340068
0.34998
0.364188
0.383718
0.408529
0.437014
0.466058
0.49196
0.511853
0.524659
0.530188
0.531188
0.525792
0.0144221
0.0141899
0.0139941
0.0145721
0.0274729
0.0622212
0.110334
0.163336
0.210002
0.246572
0.272892
0.29134
0.304428
0.314159
0.321265
0.326683
0.331318
0.336315
0.342931
0.352446
0.366027
0.384387
0.407432
0.433665
0.459818
0.482167
0.498386
0.507434
0.511534
0.508664
0.0144222
0.0141908
0.014013
0.0155544
0.0337128
0.0726163
0.122719
0.173535
0.216595
0.249503
0.272411
0.289154
0.300746
0.309203
0.316027
0.32089
0.324362
0.32741
0.331114
0.336585
0.344876
0.356867
0.37361
0.395505
0.420849
0.445542
0.465725
0.479039
0.486909
0.487016
0.0144226
0.0141918
0.0140466
0.0169768
0.0394203
0.0812927
0.131837
0.179256
0.218167
0.246921
0.264773
0.276673
0.286815
0.296371
0.303953
0.308698
0.311061
0.312187
0.313294
0.315374
0.319343
0.327226
0.339465
0.35665
0.378466
0.403123
0.427126
0.445426
0.457865
0.461522
0.014423
0.0141936
0.0140959
0.0185182
0.0439003
0.0872274
0.136216
0.179802
0.213931
0.234987
0.246835
0.255744
0.265641
0.278151
0.28768
0.292036
0.292283
0.290642
0.289411
0.289587
0.291992
0.297363
0.306353
0.31986
0.338635
0.361605
0.385006
0.407467
0.424929
0.432729
0.0144231
0.0141958
0.0141585
0.0198263
0.0467836
0.0900288
0.136147
0.175459
0.2038
0.0930153
0.0866182
0.09384
0.0985646
0.104242
0.298115
0.288386
0.27917
0.270907
0.264598
0.261108
0.261072
0.264718
0.266104
0.280211
0.299846
0.321495
0.345989
0.369667
0.389659
0.401303
0.0144232
0.0141973
0.0142148
0.0206401
0.0479564
0.0898553
0.1322
0.16655
0.0789609
0.0767744
0.09188
0.132902
0.12412
0.113781
0.286705
0.264936
0.246461
0.232476
0.223392
0.219384
0.220522
0.225459
0.227736
0.23718
0.259882
0.282421
0.307579
0.333345
0.3561
0.370856
0.0144233
0.0141982
0.0142547
0.0209359
0.0474264
0.0870895
0.125201
0.154998
0.0721462
0.0313685
0.0573378
0.0627378
0.0447353
0.0338536
0.233651
0.219881
0.211167
0.206101
0.202842
0.200371
0.186191
0.180003
0.183596
0.196513
0.219768
0.245513
0.270644
0.298165
0.323777
0.341692
0.0144233
0.0141993
0.0142906
0.0209261
0.0460006
0.0828225
0.116671
0.143064
0.0668173
0.0295047
0.0569346
0.035912
0.0241855
0.240387
0.222381
0.211887
0.207615
0.206258
0.205535
0.201338
0.190513
0.182099
0.181822
0.195101
0.216939
0.238258
0.265468
0.293012
0.313616
0.0144233
0.0142009
0.014329
0.0207371
0.0438984
0.077545
0.10714
0.13061
0.06122
0.0611457
0.0375721
0.0440752
0.0543692
0.0561011
0.223712
0.213096
0.207933
0.209223
0.213381
0.217245
0.218144
0.215217
0.209323
0.203153
0.199762
0.202658
0.215325
0.238021
0.26515
0.287316
0.0144233
0.0142022
0.014363
0.0205005
0.0417557
0.0721309
0.0980766
0.118607
0.13355
0.0611009
0.063534
0.071989
0.072422
0.0655916
0.190202
0.199017
0.205197
0.215215
0.226623
0.236075
0.239154
0.234786
0.225694
0.214687
0.204542
0.199135
0.202655
0.21788
0.241676
0.263676
0.0144233
0.0142031
0.0144012
0.0204098
0.0401573
0.0673042
0.0902039
0.10786
0.11993
0.12804
0.136371
0.142856
0.153746
0.174552
0.195428
0.202901
0.211485
0.22624
0.24368
0.253891
0.25471
0.247401
0.234536
0.220683
0.207355
0.197671
0.195507
0.204218
0.223229
0.243381
0.014423
0.0142047
0.0144589
0.0205239
0.0392071
0.0632853
0.0834818
0.0988258
0.109834
0.119472
0.130494
0.14517
0.166437
0.191114
0.203585
0.204424
0.215396
0.234936
0.252785
0.259354
0.25563
0.244464
0.230063
0.216019
0.2032
0.193474
0.189806
0.195019
0.209623
0.226773
0.0144229
0.0142072
0.014531
0.0208035
0.0388289
0.0602958
0.078314
0.0923659
0.103982
0.117802
0.136852
0.16154
0.186879
0.203807
0.201785
0.201313
0.214287
0.235321
0.249736
0.250843
0.242789
0.230828
0.218929
0.207095
0.196581
0.189042
0.186327
0.19012
0.200853
0.214008
0.0144228
0.0142094
0.0146064
0.0211344
0.0388117
0.0582723
0.0748002
0.0882867
0.101413
0.121608
0.152277
0.181282
0.201247
0.207911
0.197312
0.194612
0.208689
0.227267
0.235936
0.231195
0.224252
0.216523
0.208325
0.189023
0.169804
0.164089
0.168786
0.179278
0.195771
0.205031
0.0144226
0.0142112
0.0146626
0.021314
0.0386598
0.0565249
0.0720407
0.0854434
0.100464
0.131825
0.168731
0.195292
0.208133
0.20043
0.187119
0.179359
0.177424
0.188632
0.179378
0.161218
0.144139
0.132359
0.124716
0.120441
0.120004
0.12283
0.128898
0.138133
0.152868
0.182596
0.0144224
0.0142113
0.0146596
0.0210862
0.0377739
0.0542039
0.0690448
0.082569
0.100932
0.14213
0.181727
0.203133
0.208505
0.19396
0.177512
0.121636
0.121952
0.119626
0.113684
0.108863
0.106208
0.105394
0.106202
0.108
0.109993
0.112875
0.117242
0.123559
0.135432
0.175178
0.0144226
0.0142098
0.0145721
0.0202964
0.0357775
0.0509841
0.065706
0.0796355
0.103341
0.150226
0.187851
0.204849
0.202581
0.186094
0.144663
0.0975707
0.0957889
0.0937408
0.0917058
0.0909196
0.0916256
0.0932226
0.0952435
0.0978558
0.101354
0.1063
0.113425
0.12338
0.140836
0.19261
0.123325
0.10324
0.0634472
0.0564597
0.197003
0.674154
1.17855
1.63701
2.21533
2.39074
2.46712
2.50384
2.52109
2.53321
2.55137
2.58882
2.66229
2.78644
2.97084
3.20392
3.45389
3.68386
3.86773
3.99371
4.0616
4.07331
4.04028
3.97014
3.88292
3.76999
0.123328
0.101905
0.0632083
0.0703672
0.317032
0.911754
1.48838
1.94058
2.22773
2.38944
2.47121
2.51335
2.53362
2.54716
2.56443
2.59685
2.65932
2.76462
2.9227
3.12671
3.3518
3.56604
3.74456
3.87536
3.95329
3.98034
3.96309
3.90786
3.83245
3.7307
0.123336
0.098901
0.0626561
0.102225
0.480445
1.14603
1.65217
2.00862
2.26084
2.39729
2.47448
2.51646
2.53682
2.54979
2.56333
2.58623
2.6301
2.70657
2.82541
2.98564
3.17218
3.36074
3.52949
3.66382
3.75588
3.80471
3.81106
3.77886
3.72335
3.63918
0.123349
0.0948446
0.063181
0.156586
0.655274
1.33595
1.75117
2.08061
2.27978
2.39812
2.46589
2.50193
2.51642
2.52526
2.53302
2.54406
2.56675
2.61165
2.68811
2.80004
2.94141
3.09669
3.24963
3.38346
3.49131
3.56486
3.60001
3.59663
3.56677
3.50466
0.123365
0.0901619
0.0663972
0.225908
0.80463
1.44333
1.8355
2.11438
2.28042
2.37898
2.42826
2.44817
2.45277
2.45844
2.4608
2.45899
2.45976
2.47397
2.51093
2.57722
2.67153
2.78659
2.9132
3.04182
3.16518
3.2683
3.33868
3.37051
3.37175
3.3356
0.123384
0.0853171
0.0727643
0.294793
0.915009
1.526
1.88884
2.11639
2.25477
2.32849
2.34165
2.32961
2.32522
2.33647
2.33536
2.31875
2.29578
2.28036
2.28274
2.30961
2.34656
2.39217
2.45749
2.56313
2.73241
2.89869
3.02409
3.10373
3.14418
3.13865
0.123413
0.0805931
0.0805629
0.349459
0.983906
1.575
1.89983
2.08863
2.20244
2.24615
2.11305
1.99954
2.02956
2.12133
2.12867
2.09489
2.04587
1.99596
1.95946
1.94871
1.95982
1.98448
2.02455
2.09631
2.22751
2.41732
2.63837
2.79078
2.88525
2.9177
0.123442
0.0760914
0.0873519
0.383994
1.0147
1.59087
1.87339
2.03317
2.14561
1.59855
1.38519
1.22818
1.32137
1.51321
1.80024
1.73331
1.64844
1.57323
1.53079
1.52366
1.54632
1.58814
1.6391
1.70271
1.80412
1.9678
2.19093
2.417
2.59021
2.67177
0.123465
0.0720896
0.0907322
0.395444
1.01386
1.57409
1.82069
1.9583
1.53457
1.35496
1.06234
0.719783
0.863132
1.1087
1.32777
1.2735
1.20629
1.16098
1.13843
1.1472
1.18477
1.24217
1.31073
1.3849
1.47585
1.61081
1.80715
2.03914
2.25535
2.37759
0.123486
0.0687494
0.0913533
0.388387
0.976531
1.53564
1.74639
1.81592
1.40233
0.919587
0.752004
0.0704835
0.372922
0.378978
1.01456
1.04392
1.0523
1.04716
1.03754
1.03007
1.03307
1.0569
1.09951
1.15831
1.23623
1.34782
1.51174
1.72129
1.93694
2.07422
0.123505
0.0656777
0.0903833
0.374905
0.931806
1.48065
1.65657
1.65114
1.24624
0.770716
0.11341
0.950105
1.01855
1.06824
1.09337
1.10992
1.11899
1.11398
1.0966
1.07941
1.07597
1.104
1.17679
1.30306
1.47825
1.67157
1.80301
0.123523
0.0629656
0.08925
0.358052
0.876786
1.4138
1.55669
1.50495
1.12251
0.896107
0.553978
0.206255
0.408515
0.50854
1.01931
1.07817
1.15382
1.22152
1.28844
1.34163
1.35015
1.30381
1.2206
1.13485
1.08462
1.09552
1.1732
1.30633
1.46577
1.57731
0.123543
0.0608732
0.08872
0.342476
0.82575
1.34343
1.44527
1.37188
1.23937
0.878945
0.645514
0.55065
0.53379
0.640647
1.07952
1.18104
1.28472
1.41647
1.54673
1.61082
1.6086
1.54611
1.40527
1.24962
1.12903
1.0772
1.10395
1.19331
1.31397
1.39723
0.123561
0.0593654
0.0893399
0.333735
0.793898
1.26981
1.34345
1.26793
1.14093
1.01623
0.891663
0.864221
0.958744
1.09428
1.19489
1.27493
1.41362
1.61186
1.73137
1.76736
1.735
1.64652
1.49285
1.31107
1.16031
1.07567
1.06825
1.12225
1.20593
1.25765
0.123593
0.0581332
0.0916535
0.333675
0.78211
1.20056
1.25206
1.1773
1.07749
1.02275
1.02048
1.05996
1.14572
1.15303
1.23282
1.28182
1.49971
1.71541
1.80485
1.80468
1.74374
1.63428
1.46199
1.28309
1.14148
1.06027
1.04543
1.07949
1.13197
1.15252
0.123677
0.0572579
0.0952963
0.340227
0.78743
1.14038
1.17551
1.10814
1.05911
1.09575
1.17137
1.2158
1.21409
1.10976
1.18137
1.23003
1.51387
1.71324
1.7602
1.72586
1.64013
1.49172
1.33078
1.1895
1.08918
1.03947
1.0377
1.06307
1.08747
1.07819
0.12353
0.0566598
0.0993565
0.349507
0.803171
1.09158
1.11712
1.06671
1.07792
1.18603
1.25893
1.28815
1.11736
1.05744
1.036
1.13607
1.42468
1.60228
1.60774
1.54088
1.40737
1.29089
1.19313
1.11674
1.07372
1.06314
1.07374
1.08565
1.07586
1.03819
0.121142
0.056165
0.102084
0.355048
0.81326
1.04998
1.07238
1.042
1.11098
1.24526
1.31563
1.24455
1.04195
0.942939
0.827012
1.02133
1.24887
1.39174
1.36122
1.28061
1.21254
1.18049
1.16671
1.16061
1.16287
1.16959
1.17152
1.15489
1.10728
1.05111
0.119515
0.0555713
0.100824
0.348129
0.801793
1.00617
1.0304
1.01833
1.12789
1.29026
1.3518
1.11373
0.962694
0.786119
0.658787
0.905986
1.07353
1.17235
1.19411
1.19588
1.20348
1.21752
1.22109
1.21624
1.21516
1.21549
1.21188
1.19664
1.16703
1.12196
0.118831
0.0547887
0.0930881
0.320816
0.756678
0.962344
0.991059
0.996939
1.13865
1.32237
1.21928
1.01288
0.883746
0.651586
0.557727
0.847581
0.973278
1.07547
1.13237
1.1649
1.17852
1.18292
1.1867
1.19143
1.19843
1.20661
1.21446
1.2183
1.21015
1.18675
0.134631
0.0941146
0.0610446
0.109672
0.505766
1.08721
1.65972
2.47722
3.80359
5.16873
5.30864
5.39142
5.44092
5.4815
5.53978
5.64537
5.82981
6.11042
6.48206
6.9062
7.32035
7.67084
7.92873
8.08681
8.14848
8.12882
8.03335
7.87933
7.69151
7.47949
0.134638
0.0925726
0.0636536
0.175203
0.713662
1.38022
2.05408
2.98371
4.35039
5.15138
5.30137
5.38948
5.43922
5.47887
5.53061
5.62208
5.78186
6.027
6.35593
6.73854
7.12155
7.45533
7.71044
7.87642
7.95761
7.95832
7.8872
7.75638
7.58793
7.39337
0.134652
0.0893274
0.0713594
0.280592
0.930129
1.64788
2.46766
3.61056
4.88997
5.13901
5.2872
5.37212
5.4133
5.44311
5.47922
5.54324
5.66064
5.84409
6.10234
6.41694
6.74852
7.05448
7.30421
7.48548
7.59663
7.63231
7.60221
7.51119
7.37798
7.21343
0.134679
0.0853784
0.0896435
0.414147
1.13484
1.91476
2.921
4.27058
4.89474
5.12155
5.24921
5.31375
5.33659
5.34597
5.35716
5.38464
5.44891
5.56365
5.74231
5.97808
6.24637
6.51432
6.75315
6.95117
7.09491
7.17859
7.20166
7.16346
7.07786
6.95262
0.134724
0.0818114
0.121018
0.549923
1.30944
2.18671
3.39089
4.55509
4.8826
5.07361
5.16193
5.18063
5.16542
5.14902
5.1286
5.11407
5.1232
5.17178
5.27574
5.43574
5.63765
5.85733
6.07843
6.28703
6.46797
6.61041
6.70011
6.72824
6.70201
6.62434
0.134782
0.0794144
0.160593
0.665006
1.45051
2.44123
3.81275
4.54914
4.8292
4.97053
4.98805
4.91668
4.83976
4.78696
4.73177
4.67508
4.63494
4.63062
4.67735
4.77838
4.91828
5.07486
5.25674
5.47329
5.70536
5.92446
6.10169
6.21445
6.26162
6.24019
0.13485
0.0784668
0.200584
0.749674
1.55428
2.6439
4.07373
4.49042
4.72244
4.79055
4.66615
4.34037
4.18295
4.13932
4.05831
3.9815
3.91576
3.88466
3.89901
3.96584
4.07541
4.21002
4.36584
4.55728
4.80607
5.10561
5.40293
5.62507
5.76384
5.8088
0.130913
0.0783158
0.235369
0.807758
1.61736
2.76932
4.01123
4.37565
4.57199
4.50518
3.90087
3.12942
2.89766
2.98199
3.02983
3.00933
2.95299
2.92765
2.96322
3.05748
3.19406
3.35595
3.52567
3.71462
3.95416
4.26711
4.62825
4.96564
5.21351
5.33403
0.124301
0.0781146
0.257177
0.831369
1.63557
2.80103
3.88854
4.20987
3.95229
3.6986
3.08669
1.53455
1.51899
1.92941
2.03656
2.06001
2.07549
2.10811
2.17195
2.2841
2.44444
2.62874
2.82026
3.01604
3.24262
3.53736
3.90453
4.29058
4.61916
4.80607
0.11876
0.0777674
0.2692
0.831747
1.60455
2.73278
3.71243
3.96713
3.68689
3.23465
2.08404
0.111103
0.515584
0.711059
1.44794
1.58718
1.69351
1.78729
1.88097
1.97712
2.09291
2.23273
2.38139
2.53736
2.7227
2.97365
3.3074
3.68833
4.04208
4.26384
0.113694
0.0774863
0.276944
0.824053
1.56226
2.62496
3.49793
3.66095
3.34006
2.892
0.764478
0.233257
1.30005
1.52291
1.69646
1.85276
1.9975
2.11322
2.19358
2.25115
2.29245
2.33864
2.42651
2.59509
2.86223
3.19885
3.53395
3.75682
0.10901
0.077586
0.283888
0.813082
1.50456
2.48002
3.26076
3.35571
3.00792
2.56236
1.59746
0.587575
0.626541
0.672727
1.61923
1.78001
1.97037
2.18346
2.38781
2.52733
2.58545
2.55006
2.46286
2.36955
2.32577
2.38279
2.5594
2.82618
3.11307
3.31036
0.105009
0.0783897
0.290195
0.799721
1.44751
2.32564
3.01428
3.06154
2.86242
2.33308
1.78201
1.46332
1.40692
1.5541
1.93088
2.08904
2.33046
2.61024
2.82933
2.94614
2.95764
2.8635
2.68603
2.48413
2.32689
2.27909
2.36345
2.55206
2.77599
2.93127
0.10157
0.0798376
0.297659
0.792697
1.40297
2.18328
2.78123
2.81701
2.62629
2.02323
1.56196
1.48865
1.58409
1.554
2.10035
2.32963
2.66506
2.96555
3.15132
3.21383
3.165
3.02056
2.79832
2.5424
2.32652
2.21422
2.22973
2.34999
2.50938
2.616
0.0982707
0.0820744
0.309584
0.794918
1.37489
2.07308
2.57601
2.55244
2.22333
1.99982
1.90764
1.76239
1.4305
1.52183
2.1937
2.49888
2.89094
3.15975
3.27928
3.2781
3.17661
2.99551
2.74626
2.48264
2.2669
2.14312
2.12769
2.19846
2.29955
2.35794
0.0952722
0.0852624
0.323765
0.803818
1.36068
2.00169
2.40176
2.2556
2.11125
2.21205
2.20487
1.68453
1.41253
1.74711
2.1928
2.57305
2.95712
3.15052
3.18969
3.13005
2.99004
2.77883
2.54022
2.32082
2.15661
2.06795
2.0535
2.09027
2.13883
2.15288
0.0927981
0.0885417
0.336807
0.813918
1.35192
1.95073
2.2606
2.16061
2.1815
2.24047
1.8999
1.49158
1.50791
1.93067
2.11003
2.49728
2.83575
2.93989
2.90395
2.79862
2.6209
2.44343
2.2797
2.15164
2.06855
2.03104
2.02492
2.03024
2.02738
2.00487
0.0908024
0.0907335
0.344327
0.814924
1.32939
1.88564
2.14788
2.15049
2.10421
1.90093
1.58396
1.44864
1.58603
1.87725
1.97298
2.28721
2.55039
2.57895
2.48938
2.35883
2.24543
2.08707
1.96653
1.9087
1.90293
1.94646
2.03367
2.01224
1.97101
1.93113
0.0893981
0.0898437
0.33826
0.791969
1.27379
1.7671
2.03291
2.04709
1.77304
1.55605
1.42726
1.4437
1.54914
1.69505
1.81072
2.04224
2.19621
2.19712
2.14614
2.09968
2.03392
1.96147
1.92772
1.92892
1.95319
1.99556
2.03051
2.00568
1.96692
1.94004
0.0888165
0.0837424
0.308075
0.726263
1.16696
1.59553
1.90592
1.93286
1.50941
1.38075
1.3966
1.46241
1.51551
1.58647
1.69574
1.88492
1.99261
2.00377
1.99295
1.98863
1.99037
1.99507
2.00118
2.00757
2.01336
2.01773
2.01773
2.00863
1.80428
1.95805
0.13497
0.0843919
0.068036
0.262006
0.87594
1.55514
2.4119
3.86953
6.14755
6.95762
7.31462
7.56183
7.73942
7.88748
8.04649
8.2569
8.5514
8.94183
9.39911
9.87333
10.3057
10.6546
10.9014
11.0449
11.0924
11.0529
10.9409
10.7624
10.5397
10.3006
0.134974
0.0829308
0.0841311
0.403707
1.16152
1.93971
2.92829
4.47718
6.45584
6.96248
7.31208
7.55201
7.72013
7.856
7.99933
8.18664
8.44871
8.79906
9.21433
9.65363
10.0631
10.4017
10.6494
10.8031
10.8671
10.8507
10.7622
10.6059
10.4039
10.1827
0.132035
0.0805534
0.119188
0.582995
1.42355
2.29779
3.52026
5.31694
6.48616
6.97005
7.29754
7.51499
7.65903
7.76844
7.87788
8.01889
8.21981
8.49784
8.83918
9.21724
9.58711
9.90981
10.1624
10.3373
10.4344
10.461
10.4158
10.3037
10.1414
9.95335
0.125721
0.0795269
0.181026
0.779155
1.67492
2.67876
4.15908
5.87803
6.52821
6.96906
7.25545
7.42698
7.52648
7.59291
7.65105
7.72868
7.85342
8.04304
8.29713
8.60058
8.9199
9.22043
9.47764
9.67909
9.82318
9.90666
9.92266
9.87298
9.76705
9.62425
0.118933
0.0822045
0.266194
0.96761
1.91364
3.08426
4.82541
5.9582
6.54621
6.93121
7.15603
7.25627
7.28019
7.27746
7.26691
7.26933
7.31376
7.41598
7.58671
7.81758
8.08475
8.35927
8.618
8.85118
9.04901
9.20219
9.29808
9.32816
9.29437
9.20791
0.112343
0.0896548
0.357335
1.12543
2.12341
3.45459
5.1912
5.98545
6.50916
6.82625
6.95791
6.91126
6.81268
6.72279
6.63025
6.5569
6.52838
6.56795
6.68071
6.86097
7.08915
7.34039
7.59942
7.86316
8.12185
8.35875
8.55307
8.6816
8.73608
8.71639
0.106429
0.101347
0.440651
1.24279
2.28541
3.7605
5.21865
5.93866
6.3968
6.62659
6.6039
6.24096
5.93601
5.76319
5.59682
5.48745
5.43109
5.44776
5.55004
5.71961
5.93878
6.18681
6.45424
6.74061
7.05616
7.39293
7.70135
7.94591
8.10438
8.16081
0.101281
0.115123
0.508481
1.32336
2.3894
3.96646
5.15865
5.8084
6.20176
6.30674
5.91966
4.97565
4.356
4.21678
4.08662
4.08314
4.09196
4.14852
4.27771
4.49131
4.75067
5.03863
5.33511
5.64388
5.98316
6.36874
6.7732
7.13971
7.41395
7.55008
0.0967841
0.128046
0.55668
1.36076
2.42737
4.04242
5.01209
5.59556
5.93308
5.80613
5.18235
3.12522
2.37328
2.47258
2.66083
2.79662
2.91572
3.05464
3.23099
3.46145
3.75192
4.06787
4.38591
4.70049
5.03955
5.432
5.8735
6.31116
6.67374
6.88471
0.0928598
0.138948
0.590235
1.3761
2.40517
3.96975
4.78929
5.29921
5.53478
5.18577
4.11889
0.720466
0.686886
0.561418
1.85375
2.11368
2.3343
2.54786
2.7671
2.99223
3.24246
3.51039
3.77309
4.03425
4.32177
4.67198
5.09411
5.54496
5.9476
6.20297
0.0894989
0.149611
0.614034
1.37295
2.35446
3.77773
4.51342
4.9385
5.06819
4.65916
3.31911
0.902011
0.563822
0.375515
1.77082
2.05838
2.33043
2.60539
2.87054
3.09879
3.2855
3.43995
3.56936
3.69971
3.8707
4.12564
4.47809
4.89001
5.28359
5.54839
0.0866344
0.160893
0.634131
1.36422
2.28433
3.55699
4.20828
4.54958
4.58556
4.15001
3.22844
1.47226
0.995452
1.07197
2.25178
2.44622
2.72089
3.04048
3.33503
3.54562
3.65794
3.68246
3.65022
3.61859
3.64134
3.77003
4.02084
4.35795
4.70454
4.94824
0.0842023
0.172426
0.652404
1.34937
2.20428
3.32748
3.89949
4.17251
4.12953
3.79137
3.10754
2.64142
2.38344
2.36815
2.64444
2.86599
3.21016
3.56633
3.83881
3.99163
4.02015
3.94232
3.79679
3.63715
3.53125
3.53948
3.68466
3.93338
4.21197
4.41415
0.0821332
0.184824
0.670829
1.33693
2.13285
3.11417
3.61446
3.84476
3.71482
3.00334
2.36737
2.10359
1.9392
1.92981
2.739
3.22659
3.64907
3.98903
4.19774
4.27338
4.22173
4.07131
3.85819
3.6249
3.43986
3.36399
3.42397
3.59023
3.79602
3.94738
0.0805088
0.198612
0.692053
1.33083
2.07495
2.93067
3.37233
3.50739
2.97325
2.57101
2.32823
1.94243
1.66126
2.02467
3.07497
3.54554
3.956
4.21682
4.33242
4.32798
4.21308
4.01959
3.77047
3.51302
3.30595
3.19758
3.20629
3.3072
3.4452
3.54503
0.0793553
0.213216
0.712987
1.32808
2.03012
2.78133
3.17352
2.99341
2.59205
2.41889
2.16803
1.76333
1.82638
2.61041
3.25852
3.73256
4.05019
4.19278
4.20946
4.13923
3.98697
3.77569
3.53011
3.29869
3.12387
3.03084
3.02197
3.07504
3.15302
3.20584
0.078543
0.226194
0.729709
1.32279
1.9875
2.66384
3.01379
2.72712
2.4363
2.18389
1.84506
1.76271
2.24079
2.94312
3.3199
3.70473
3.89509
3.91941
3.85441
3.74053
3.5757
3.38767
3.20049
3.04162
2.91287
2.8696
2.87643
2.89348
2.91962
2.93525
0.0777924
0.234024
0.735346
1.30185
1.92449
2.56726
2.82705
2.58378
2.18407
1.80841
1.68057
1.94489
2.61988
2.90514
3.21982
3.4845
3.54592
3.47574
3.35837
3.22101
3.03856
2.7908
2.59194
2.46285
2.40975
2.45473
2.6145
2.75576
2.74974
2.74627
0.0766706
0.230622
0.716624
1.24434
1.80748
2.3994
2.58882
2.34774
1.78892
1.54763
1.68554
2.14587
2.64352
2.79623
3.02976
3.17864
3.14185
3.01708
2.89891
2.81169
2.65257
2.4936
2.39546
2.35611
2.37017
2.43879
2.54543
2.63016
2.56533
2.64277
0.0748045
0.207626
0.650393
1.12662
1.62697
2.12357
2.33125
2.07197
1.50396
1.47726
1.85182
2.48057
2.56025
2.69386
2.87694
2.94665
2.85692
2.73468
2.64847
2.60078
2.57717
2.56572
2.56229
2.56515
2.57274
2.58303
2.59393
2.59941
2.37301
2.60475
0.112268
0.076526
0.101443
0.497172
1.25888
2.16975
3.59424
5.96625
7.24918
8.01143
8.58462
9.01649
9.35129
9.6352
9.91481
10.2312
10.6088
11.0456
11.5066
11.9463
12.3245
12.617
12.8166
12.9269
12.9561
12.9136
12.807
12.6423
12.4339
12.2122
0.11003
0.0762654
0.147865
0.704614
1.62136
2.67459
4.22563
6.31826
7.3019
8.0376
8.58821
8.9993
9.31365
9.57616
9.8308
10.1168
10.4589
10.8587
11.2869
11.7032
12.0687
12.3581
12.5621
12.6831
12.7281
12.7049
12.6188
12.4753
12.2851
12.08
0.105673
0.0777705
0.229105
0.92916
1.93976
3.1613
4.97814
6.45484
7.37886
8.06874
8.5787
8.95
9.22356
9.44213
9.64557
9.87049
10.1433
10.4726
10.8391
11.2119
11.5554
11.8424
12.0599
12.2063
12.2857
12.3026
12.2603
12.1591
12.0074
11.8346
0.100381
0.0860354
0.3494
1.14543
2.2708
3.67943
5.46557
6.6088
7.46097
8.09003
8.54165
8.85079
9.05874
9.20831
9.3358
9.4759
9.658
9.89816
10.1858
10.5024
10.8166
11.1003
11.3363
11.5185
11.6473
11.723
11.745
11.7062
11.6119
11.4845
0.0950823
0.105309
0.492117
1.36321
2.60692
4.22113
5.68014
6.73484
7.5125
8.07222
8.4484
8.66558
8.7735
8.82424
8.85119
8.88897
8.97041
9.11539
9.32713
9.58841
9.87395
10.1558
10.4142
10.6394
10.8286
10.9801
11.0843
11.1274
11.1085
11.0387
0.0905109
0.136141
0.636051
1.56765
2.90354
4.5159
5.82147
6.79488
7.49978
7.98337
8.2598
8.328
8.28051
8.19515
8.10011
8.03081
8.01974
8.08723
8.24343
8.47218
8.74392
9.03311
9.3196
9.59346
9.85193
10.0908
10.2927
10.4359
10.5082
10.5067
0.0870741
0.174767
0.764387
1.74032
3.12483
4.65834
5.87151
6.76623
7.39922
7.795
7.92654
7.72268
7.43002
7.17887
6.96625
6.82383
6.76326
6.79913
6.93896
7.17217
7.4575
7.77106
8.09355
8.41824
8.75202
9.0851
9.39292
9.64876
9.82496
9.89955
0.0847889
0.214127
0.866761
1.87221
3.26626
4.70159
5.82091
6.63838
7.1982
7.4832
7.39954
6.68674
6.07523
5.70029
5.44501
5.33417
5.30779
5.37753
5.54819
5.81412
6.14938
6.50909
6.87347
7.2399
7.61731
8.01661
8.42128
8.79061
9.07599
9.22848
0.0833815
0.2505
0.939545
1.95699
3.32511
4.65087
5.67332
6.41225
6.89333
7.02858
6.73
5.29686
4.31426
3.91483
3.90195
3.92907
4.0131
4.17046
4.40146
4.70241
5.0646
5.44709
5.83216
6.20732
6.59289
7.01081
7.46304
7.9064
8.27711
8.50056
0.0827042
0.284017
0.993763
2.00281
3.3069
4.51956
5.44312
6.09683
6.47957
6.46759
5.92928
4.14707
3.1327
2.69762
2.97867
3.10829
3.29681
3.54423
3.83507
4.1474
4.47626
4.80958
5.13406
5.4493
5.78058
6.16278
6.60497
7.06928
7.48406
7.75241
0.0828366
0.314889
1.03419
2.0093
3.24805
4.33811
5.15476
5.71532
5.98984
5.85419
5.19831
3.86019
2.84958
2.3398
2.78703
2.95872
3.21707
3.53928
3.87423
4.17727
4.43139
4.63889
4.8216
5.00135
5.22002
5.51234
5.89198
6.32525
6.73847
7.02075
0.0837957
0.344702
1.06903
2.00177
3.16536
4.12865
4.83681
5.30203
5.47549
5.25476
4.77046
3.79566
3.04589
2.76728
3.08417
3.2515
3.55948
3.93334
4.27422
4.52587
4.67728
4.74519
4.76469
4.78798
4.86484
5.03739
5.32334
5.68859
6.06258
6.33051
0.0855076
0.375269
1.09718
1.98051
3.06838
3.91432
4.5202
4.8993
4.99237
4.76691
4.39667
3.90421
3.54895
3.38028
3.38699
3.63279
4.02347
4.41381
4.71086
4.88271
4.928
4.87812
4.77705
4.6735
4.62484
4.68322
4.86794
5.14845
5.46148
5.69503
0.0878764
0.405335
1.11933
1.96036
2.97728
3.71684
4.23374
4.54205
4.58516
4.22034
3.45793
2.87501
2.46665
2.5332
3.30415
3.9948
4.44856
4.80107
5.01698
5.09671
5.04798
4.91368
4.73513
4.54933
4.41611
4.38899
4.48715
4.68667
4.93079
5.11936
0.0907893
0.432914
1.1365
1.94258
2.8997
3.54785
3.99263
4.24592
3.83147
3.19376
2.73086
2.22477
2.07146
2.58406
3.58391
4.35331
4.75713
5.0049
5.1098
5.09796
4.97939
4.79636
4.57714
4.35493
4.1847
4.11352
4.15333
4.28568
4.46401
4.60563
0.0942733
0.458761
1.15112
1.92651
2.83795
3.41077
3.79722
3.87605
3.07135
2.6116
2.23985
2.03568
2.40395
3.31464
4.15417
4.58814
4.84678
4.94837
4.94057
4.85935
4.70748
4.51189
4.28843
4.07666
3.91644
3.8423
3.85592
3.93782
4.05842
4.15588
0.0976653
0.480499
1.15979
1.90491
2.79004
3.3026
3.64276
3.31644
2.62681
2.1942
1.99203
2.27847
3.16176
3.84137
4.29305
4.5702
4.65839
4.62343
4.53107
4.41256
4.26412
4.08546
3.86276
3.57401
3.37164
3.33845
3.53989
3.64347
3.71577
3.77639
0.0994692
0.490823
1.15111
1.85747
2.74956
3.21589
3.5188
2.94043
2.22319
1.87767
2.01119
2.79012
3.50731
3.89727
4.21636
4.32629
4.26553
4.12935
3.98436
3.84829
3.63909
3.33833
3.08274
2.91202
2.85612
2.95603
3.2229
3.39931
3.44102
3.47534
0.0976933
0.479424
1.10649
1.7543
2.58846
3.14239
3.27525
2.53176
1.83108
1.72733
2.20061
3.22789
3.5191
3.84044
4.02443
3.99295
3.82441
3.62919
3.46688
3.35407
3.24717
3.03227
2.89122
2.83802
2.87391
2.99696
3.17151
3.21494
3.24851
3.26583
0.0898529
0.428525
0.996238
1.58411
2.34996
2.97288
2.83436
2.14252
1.59479
1.7688
2.62339
3.22124
3.49633
3.76449
3.86192
3.74457
3.51952
3.30298
3.1585
3.07563
3.03265
3.01011
3.00239
3.00767
3.02376
3.04804
3.07801
3.11092
3.10719
3.15835
0.0942032
0.0729794
0.177757
0.776845
1.73538
3.04524
5.14847
6.66298
7.802
8.71536
9.44475
10.0258
10.4972
10.9028
11.2862
11.6812
12.1018
12.5387
12.9604
13.3358
13.6425
13.8698
14.0176
14.0916
14.1009
14.0542
13.9582
13.8158
13.6358
13.4475
0.0920646
0.0764645
0.266969
1.03902
2.16582
3.63391
5.38572
6.76767
7.87109
8.7513
9.44996
10.0018
10.4446
10.8206
11.1719
11.532
11.9173
12.3228
12.7208
13.0824
13.3841
13.6133
13.7682
13.8537
13.8781
13.8494
13.7725
13.6487
13.4863
13.3132
0.0882966
0.0881226
0.403106
1.23368
2.42196
4.01125
5.61855
6.93039
7.97088
8.7946
9.4404
9.94009
10.3292
10.6478
10.9354
11.2262
11.541
11.8833
12.234
12.5685
12.8624
13.0991
13.2732
13.3867
13.4461
13.4572
13.4221
13.3392
13.2144
13.0718
0.0841656
0.116684
0.585745
1.46975
2.7376
4.37617
5.89644
7.11691
8.07788
8.82924
9.40438
9.82979
10.1392
10.3723
10.5679
10.7615
10.9803
11.2369
11.5232
11.8199
12.1025
12.3496
12.5509
12.7048
12.8152
12.8857
12.914
12.8945
12.8267
12.7282
0.0808588
0.165365
0.755449
1.72153
3.06605
4.71517
6.14339
7.27291
8.15184
8.82437
9.3155
9.64241
9.84117
9.95786
10.0338
10.1088
10.2177
10.379
10.5956
10.8535
11.1271
11.3891
11.6245
11.8278
12.001
12.146
12.2568
12.3205
12.3282
12.2865
0.0794256
0.232729
0.911234
1.95826
3.36152
4.97179
6.31104
7.3557
8.15583
8.74698
9.13885
9.32953
9.37258
9.33541
9.26667
9.21253
9.21349
9.28988
9.45161
9.68602
9.96415
10.2519
10.5297
10.7891
11.0318
11.2601
11.4668
11.6291
11.7273
11.7527
0.0804453
0.308264
1.05645
2.16066
3.59491
5.1311
6.37868
7.34112
8.06473
8.56948
8.83579
8.82118
8.643
8.41633
8.19608
8.03065
7.95333
7.98344
8.12598
8.36522
8.66876
8.996
9.32334
9.6416
9.95421
10.2658
10.5712
10.8397
11.0379
11.1365
0.0836587
0.380934
1.18129
2.31931
3.75109
5.19045
6.34023
7.21957
7.86557
8.27195
8.37111
8.04279
7.58484
7.17503
6.84819
6.63715
6.54901
6.59193
6.75987
7.03299
7.37766
7.75173
8.12056
8.4789
8.83863
9.21736
9.61028
9.97973
10.2781
10.4507
0.0885565
0.446737
1.28233
2.43111
3.82948
5.15656
6.20162
6.99367
7.55602
7.84355
7.73571
7.03865
6.32539
5.82336
5.46525
5.29562
5.28033
5.40237
5.63622
5.95204
6.32373
6.71307
7.0887
7.44875
7.81769
8.21751
8.65548
9.09332
9.47
9.70543
0.0948056
0.505894
1.36602
2.50228
3.83731
5.04465
5.97933
6.6768
7.143
7.29454
6.99875
6.14885
5.29213
4.7698
4.46393
4.39092
4.49156
4.72138
5.02859
5.37039
5.71672
6.05094
6.36155
6.66059
6.97942
7.34922
7.78033
8.24095
8.66031
8.93656
0.102335
0.558987
1.43787
2.55188
3.80387
4.88217
5.69903
6.29408
6.65208
6.67822
6.31782
5.53631
4.74598
4.28042
4.04625
4.07025
4.28316
4.61002
4.9655
5.29544
5.56499
5.7777
5.95675
6.13369
6.35089
6.64299
7.0235
7.46121
7.88368
8.17459
0.111174
0.607516
1.50259
2.58736
3.74471
4.69247
5.39042
5.88079
6.12763
6.05289
5.71953
5.10352
4.53873
4.18972
4.03741
4.15969
4.4735
4.86205
5.21389
5.47567
5.63804
5.72109
5.75878
5.79981
5.89258
6.08332
6.38542
6.7668
7.15937
7.44103
0.121169
0.653507
1.56141
2.60954
3.6711
4.49718
5.08387
5.47554
5.61973
5.46864
5.11522
4.65705
4.27695
4.08084
4.11358
4.39146
4.80584
5.20606
5.50811
5.68296
5.73459
5.70083
5.62752
5.55504
5.53762
5.62871
5.84403
6.15238
6.49402
6.74885
0.132197
0.696124
1.60147
2.62571
3.59834
4.31515
4.80648
5.11117
5.16867
4.94853
4.55343
3.70735
3.15405
3.21322
3.78377
4.51869
5.13562
5.49417
5.71111
5.78556
5.73627
5.61459
5.46382
5.31315
5.21813
5.23176
5.36943
5.60502
5.88765
6.10532
0.143774
0.732328
1.61579
2.64168
3.5337
4.15669
4.57144
4.80493
4.75324
3.8694
3.2159
2.68351
2.62656
3.11381
3.87343
4.62912
5.31072
5.63987
5.72952
5.70167
5.57759
5.40562
5.21283
5.0239
4.89149
4.83516
4.93998
5.11437
5.33833
5.51508
0.155046
0.763916
1.62653
2.65874
3.48014
4.02553
4.38019
4.55598
3.6227
2.89577
2.50213
2.49341
3.01053
3.80399
4.52589
5.05974
5.47004
5.53524
5.4948
5.39241
5.23733
5.05618
4.85777
4.67137
4.40082
4.32052
4.54853
4.67613
4.84681
4.98223
0.164619
0.786202
1.6248
2.67426
3.43724
3.92029
4.22719
3.98494
2.87968
2.35065
2.33576
2.95323
3.94259
4.59975
5.02142
5.22625
5.24683
5.15825
5.0272
4.88939
4.74232
4.57924
4.22827
3.91695
3.74913
3.83975
4.19811
4.29127
4.4155
4.5114
0.169054
0.791168
1.59792
2.61559
3.40185
3.83635
4.10624
3.33398
2.35449
2.08409
2.5304
3.71984
4.24696
4.70303
4.94761
4.96219
4.82185
4.62702
4.44476