/*--------------------------------*- C++ -*----------------------------------*\
| =========                 |                                                 |
| \\      /  F ield         | OpenFOAM: The Open Source CFD Toolbox           |
|  \\    /   O peration     | Version:  2512                                  |
|   \\  /    A nd           | Website:  www.openfoam.com                      |
|    \\/     M anipulation  |                                                 |
\*---------------------------------------------------------------------------*/
FoamFile
{
    version     2.0;
    format      ascii;
    arch        "LSB;label=32;scalar=64";
    class       volScalarField;
    location    "100";
    object      omega;
}
// * * * * * * * * * * * * * * * * * * * * * * * * * * * * * * * * * * * * * //

dimensions      [0 0 -1 0 0 0 0];

internalField   nonuniform List<scalar> 
84826
(
16.0844
15.8151
15.558
15.3122
15.0768
14.8509
14.6338
14.4246
14.2263
14.0397
13.8647
13.7071
13.5549
13.4069
13.2722
13.1442
13.022
12.906
12.7969
12.6974
12.6121
12.5584
12.7346
14.7906
24.9079
48.405
75.0009
94.219
106.809
113.983
16.0845
15.8152
15.5583
15.3127
15.0776
14.8521
14.6355
14.4269
14.2294
14.0438
13.8699
13.7138
13.5632
13.4166
13.2838
13.1576
13.037
12.9231
12.8161
12.7187
12.6372
12.6109
13.0709
16.7024
29.4583
53.561
78.0675
96.7347
109.543
117.28
16.0845
15.8154
15.5585
15.3131
15.0784
14.8535
14.6381
14.4302
14.2336
14.0499
13.8786
13.7258
13.5784
13.4348
13.3065
13.1848
13.0688
12.9595
12.8564
12.7633
12.6881
12.7012
13.578
19.0045
33.9895
57.5175
80.3611
98.5438
111.635
120.086
16.0845
15.8154
15.5588
15.3135
15.0791
14.8547
14.6401
14.4333
14.2386
14.0577
13.8879
13.7348
13.5908
13.456
13.3365
13.2235
13.1161
13.0156
12.9213
12.837
12.7719
12.8173
14.0263
20.7701
36.937
59.4239
81.3851
99.3994
112.908
122.102
16.0845
15.8155
15.5589
15.3138
15.0796
14.8558
14.6422
14.4365
14.2441
14.0646
13.8962
13.7207
13.5847
13.4853
13.3781
13.2804
13.1903
13.108
13.0319
12.9657
12.9173
12.9595
13.9794
20.6824
36.6772
58.4965
80.1228
98.4274
112.685
122.8
16.0846
15.8155
15.559
15.3141
15.08
14.8568
14.644
14.4398
14.2499
14.0709
13.9095
13.7744
13.6816
13.5862
13.5132
13.4633
13.4349
13.4294
13.4413
13.4727
13.5278
13.6403
14.2293
18.4195
31.9927
52.8588
74.9174
94.3958
110.133
121.652
16.0846
15.8155
15.559
15.3141
15.0803
14.8575
14.6454
14.4445
14.2528
14.0773
13.9367
13.9149
14.1567
14.211
14.4092
14.7899
15.3211
15.9363
16.5766
17.2049
17.7985
18.3554
18.9872
20.7233
27.8306
44.1783
65.7472
86.8341
104.851
118.477
16.0845
15.8155
15.559
15.3141
15.0806
14.8581
14.6469
14.4493
14.2574
14.0871
27.8613
27.3995
27.6618
28.6226
28.3137
30.9077
32.8001
34.1209
35.0283
35.652
36.0551
36.2575
36.2959
36.469
38.299
45.8031
61.4331
81.1035
100.218
115.622
16.0845
15.8155
15.559
15.3142
15.0808
14.8585
14.6481
14.4495
14.2616
14.1061
27.9279
28.3458
38.8242
57.5701
82.3343
75.9728
71.3583
67.991
65.3767
63.1725
61.1789
59.2812
57.4372
55.784
55.0951
57.8646
67.6896
83.7798
101.873
117.404
16.0846
15.8158
15.5595
15.3149
15.0817
14.8598
14.6499
14.4513
14.2685
14.139
28.0808
57.0914
157.115
255.432
119.432
105.296
95.7593
88.6508
83.0477
78.4336
74.5168
71.1509
68.2965
66.1263
65.4221
68.261
77.3754
92.031
108.888
123.397
16.0848
15.8161
15.56
15.3155
15.0826
14.8601
14.6501
14.4515
14.2693
14.1422
28.1563
59.4936
408.417
103.838
96.8714
90.6453
85.503
81.1835
77.4642
74.2186
71.4175
69.1113
67.5824
67.8018
72.0014
82.5558
97.9578
114.937
128.918
16.0848
15.8159
15.5594
15.3148
15.0816
14.859
14.6486
14.45
14.2633
14.1113
27.9802
56.4386
153.174
252.893
94.6079
87.1113
81.1618
76.7835
73.4768
70.731
68.2709
66.0266
64.0381
62.5507
62.4971
66.4086
77.5086
95.1701
114.587
130.176
16.0847
15.8156
15.5589
15.3141
15.0806
14.8583
14.6475
14.4496
14.2588
14.0915
27.9031
28.2741
53.8963
73.4704
53.9976
53.6466
53.524
53.6563
53.9754
54.3588
54.6332
54.6585
54.401
53.9963
54.1943
57.6937
69.2095
87.9043
110.222
129.567
16.0846
15.8155
15.559
15.3141
15.0804
14.8578
14.6462
14.4462
14.2549
14.0818
13.9538
14.4254
17.6096
19.6763
20.3174
20.8081
21.3285
22.5963
24.5217
26.7954
29.1081
31.217
32.9598
34.404
36.9689
45.9033
64.7946
89.3639
114.064
135.593
16.0846
15.8155
15.5589
15.3141
15.0802
14.8571
14.6447
14.4414
14.2508
14.0734
13.9172
13.8651
14.2387
14.4549
14.4407
14.4136
14.3881
14.4127
14.6071
15.0485
15.7468
16.6308
17.759
21.1667
32.9472
53.6386
78.766
103.907
127.245
148.187
16.0845
15.8155
15.5589
15.3139
15.0798
14.8561
14.6429
14.4379
14.2469
14.0671
13.9011
13.7379
13.6581
13.5977
13.4959
13.3874
13.2801
13.1779
13.0893
13.0267
13.006
13.1183
14.82
24.1537
42.3979
65.5629
90.4978
114.892
138.054
160.003
16.0845
15.8154
15.5588
15.3135
15.0792
14.855
14.6407
14.4345
14.2408
14.061
13.8909
13.7398
13.6038
13.4759
13.354
13.2321
13.1127
12.9972
12.885
12.7794
12.6875
12.7616
15.4819
27.346
46.9593
70.4013
95.4848
120.667
145.537
170.22
16.0845
15.8154
15.5586
15.3132
15.0785
14.8537
14.6385
14.431
14.2352
14.0528
13.8821
13.7292
13.5861
13.4481
13.3206
13.1959
13.0746
12.9581
12.8454
12.738
12.6413
12.6999
15.4804
27.6506
47.4301
70.8632
95.8996
122.232
149.554
178.21
16.0845
15.8152
15.5584
15.3127
15.0777
14.8522
14.6357
14.4273
14.2302
14.0455
13.8733
13.72
13.5738
13.4326
13.303
13.1772
13.0553
12.9386
12.8265
12.7193
12.6207
12.6366
14.9388
26.3352
45.6075
68.5805
93.1959
119.693
148.919
182.891
16.0845
15.8152
15.5582
15.3124
15.077
14.851
14.6339
14.4248
14.2267
14.0407
13.867
13.7121
13.564
13.4216
13.2912
13.1652
13.0436
12.9271
12.8154
12.7088
12.6096
12.5892
14.3359
24.5135
42.742
64.7636
88.8081
115.566
146.425
185.508
1.94
2.0825
2.2102
2.32609
2.43258
2.53162
2.62464
2.71353
2.80165
2.88792
2.97096
3.04617
3.10628
3.14687
3.17641
3.20105
3.2212
3.23882
3.25168
3.26154
3.26994
3.27663
3.32196
3.67483
4.99417
8.65731
14.7491
20.56
25.7646
30.201
1.94001
2.08256
2.21035
2.32638
2.43313
2.53268
2.62661
2.71668
2.80704
2.89668
2.98499
3.06557
3.12834
3.16896
3.19818
3.22219
3.24137
3.25791
3.26973
3.27867
3.28624
3.29708
3.38884
3.93125
5.67909
9.89587
15.8066
21.5438
26.6906
31.0488
1.93997
2.08269
2.21063
2.32696
2.43428
2.53491
2.63102
2.72365
2.81905
2.91685
3.01678
3.10832
3.17721
3.21673
3.24534
3.2679
3.28558
3.29988
3.3099
3.31753
3.32402
3.33972
3.49304
4.24568
6.45985
11.0312
16.6839
22.296
27.381
31.6826
1.93992
2.08282
2.21102
2.32777
2.4359
2.53804
2.63697
2.73418
2.83797
2.95079
3.06388
3.16305
3.23902
3.28524
3.31605
3.33737
3.35272
3.36476
3.37392
3.38172
3.39068
3.41781
3.63855
4.57802
7.13321
11.7128
17.2336
22.7741
27.8337
32.1072
1.93996
2.08286
2.21146
2.32878
2.4379
2.54203
2.6447
2.74868
2.86643
2.99528
3.13017
3.2564
3.34499
3.40175
3.43941
3.47343
3.50432
3.53748
3.57707
3.62467
3.68274
3.77342
4.05788
5.08062
7.72822
12.1546
17.5468
23.0353
28.0978
32.3654
1.94001
2.08293
2.2118
2.32987
2.44018
2.54661
2.65398
2.76743
2.90488
3.05673
3.2522
3.45611
3.69393
3.85072
3.99516
4.19293
4.43877
4.7196
5.06187
5.44693
5.83402
6.15108
6.5088
7.29902
9.37959
13.1795
18.1477
23.4258
28.4176
32.6425
1.94004
2.0831
2.21213
2.33078
2.4425
2.55141
2.66428
2.79215
2.94064
3.14975
3.48302
4.04663
5.4157
6.9368
9.59845
12.1002
14.2036
15.8152
16.9643
17.7231
18.1113
18.1551
17.7862
17.1488
16.9921
18.1912
21.1417
25.2076
29.5715
33.4561
1.94007
2.08328
2.21256
2.33161
2.44446
2.55582
2.67457
2.81894
2.9915
3.32414
3.70059
4.98415
11.7209
18.3726
48.2189
49.1714
47.7535
45.1478
42.2947
39.6515
37.2445
35.0166
32.9017
30.8744
28.9937
27.6619
27.7357
29.5076
32.4296
35.4662
1.9401
2.08344
2.21293
2.33242
2.44607
2.55955
2.68358
2.83201
3.0443
3.62771
4.58657
10.8602
133.645
162.562
130.1
105.43
88.7913
76.858
67.9231
60.9299
55.2619
50.5117
46.3954
42.7188
39.2965
36.2686
34.4805
34.5721
36.2832
38.471
1.94022
2.0837
2.21343
2.33328
2.44756
2.56247
2.69001
2.84397
3.10194
3.99114
7.5523
564.334
1282.76
462.078
129.856
104.463
88.9133
77.6296
68.8929
61.8462
55.9924
51.045
46.8309
43.251
40.227
37.93
36.9469
37.5218
39.3773
41.3712
1.94032
2.08391
2.21375
2.33371
2.44818
2.56284
2.691
2.84599
3.1117
4.02738
8.19559
645.931
86.9045
75.6537
67.6413
61.3348
56.2459
52.0127
48.4011
45.2938
42.6415
40.4424
38.7298
37.7548
37.974
39.3617
41.6497
43.6566
1.94033
2.08366
2.21346
2.33303
2.44716
2.56098
2.68689
2.83787
3.06531
3.70785
5.85636
320
680.344
192.888
116.712
92.9624
78.9882
69.5795
62.6893
57.235
52.6267
48.6813
45.3228
42.6381
40.835
40.026
40.1217
41.142
43.1656
44.9193
1.94035
2.0834
2.21297
2.33218
2.44571
2.55836
2.67989
2.82702
3.01553
3.4137
4.12042
10.9876
78.6009
124.101
83.883
77.9806
73.1011
68.9957
65.1683
61.6019
58.3348
55.3134
52.4896
49.8374
47.2914
44.7428
42.6098
41.5434
42.3639
43.9294
1.94023
2.0833
2.21253
2.33164
2.44416
2.55462
2.67066
2.80636
2.96712
3.22328
3.72325
5.83098
12.7828
18.0844
21.2117
23.3994
24.9992
26.1917
27.2574
28.17
28.8577
29.2964
29.4993
29.3411
28.621
28.1308
29.1237
31.8905
36.1155
40.2375
1.94007
2.08313
2.21228
2.33089
2.4421
2.5502
2.66077
2.78123
2.92569
3.10748
3.38691
3.92465
5.16975
6.06234
6.49472
6.89292
7.3275
7.80006
8.40546
9.14093
9.95576
10.6639
11.1165
11.6011
13.0049
16.2691
21.3861
27.5049
33.9084
39.5308
1.94001
2.08309
2.21202
2.3299
2.44
2.54582
2.65155
2.76145
2.89137
3.03614
3.2128
3.43722
3.7163
3.93588
4.03878
4.09812
4.15322
4.21352
4.29679
4.41467
4.57362
4.77036
5.15571
6.45466
9.47145
14.3123
20.5388
27.4521
34.5256
40.6769
1.93997
2.08307
2.21162
2.32897
2.4381
2.54191
2.64368
2.74595
2.85923
2.98814
3.12187
3.2604
3.39742
3.49996
3.55364
3.58429
3.60858
3.6303
3.65297
3.6794
3.71115
3.76475
4.12973
5.69731
9.0826
14.2345
20.731
27.9677
35.497
42.0548
1.94003
2.08295
2.21126
2.32821
2.43653
2.53878
2.63752
2.73455
2.83733
2.94893
3.06618
3.179
3.28287
3.35675
3.40166
3.43013
3.45192
3.4701
3.48625
3.50143
3.51515
3.54233
3.88202
5.4599
8.85871
13.9986
20.5436
27.9957
36.0394
43.0046
1.94008
2.08283
2.211
2.32767
2.43542
2.53654
2.63297
2.727
2.82366
2.92382
3.02899
3.13198
3.22154
3.28602
3.32985
3.35981
3.38239
3.40127
3.41777
3.43266
3.44564
3.46643
3.74914
5.18681
8.41293
13.3671
19.7771
27.3315
35.875
43.2217
1.94007
2.08278
2.21088
2.32742
2.43492
2.53553
2.63099
2.72366
2.81759
2.91282
3.01092
3.1059
3.18845
3.24986
3.29348
3.32436
3.34786
3.36759
3.38476
3.40005
3.41335
3.42943
3.64646
4.8743
7.83912
12.512
18.7129
26.2731
35.0386
42.7649
1.77771
1.77829
1.78122
1.78615
1.79285
1.80119
1.81088
1.82358
1.8384
1.85593
1.87577
1.89544
1.91315
1.92534
1.93456
1.94358
1.95242
1.96135
1.97035
1.97922
1.99149
2.0511
2.53528
4.14833
6.07895
8.62188
11.8971
15.0703
18.1018
20.7915
1.77771
1.77829
1.78123
1.78618
1.79292
1.80135
1.81127
1.82438
1.83982
1.85855
1.87946
1.9003
1.92033
1.93387
1.94394
1.95348
1.96263
1.97174
1.98084
1.98988
2.00643
2.11583
2.86738
4.51679
6.20275
8.93577
12.3399
15.5893
18.6388
21.2989
1.77771
1.7783
1.78126
1.78624
1.79308
1.80174
1.81226
1.82588
1.84284
1.86401
1.88821
1.91318
1.93685
1.95375
1.96627
1.97759
1.98815
1.9989
2.00953
2.02031
2.04548
2.22286
3.18572
4.76816
6.49874
9.31678
12.7074
15.9815
19.0357
21.6649
1.77771
1.77831
1.78129
1.78633
1.79329
1.80225
1.81354
1.82832
1.84797
1.87288
1.9043
1.93909
1.97647
2.00461
2.02415
2.04355
2.06584
2.09151
2.11999
2.152
2.20958
2.48081
3.60096
5.11491
6.95186
9.80169
13.1112
16.3581
19.3878
21.9736
1.77772
1.77832
1.78133
1.78644
1.79357
1.80292
1.81516
1.83185
1.8549
1.88743
1.93699
2.00322
2.15178
2.28484
2.36977
2.48003
2.64829
2.85528
3.07819
3.30818
3.55303
3.93855
4.84242
6.14255
8.02927
10.7374
13.8313
16.942
19.8689
22.3614
1.77772
1.77832
1.78136
1.78657
1.7939
1.80372
1.81715
1.83669
1.86546
1.91545
2.01562
2.25384
3.36628
4.53205
5.57946
6.66566
7.71889
8.66578
9.47955
10.1433
10.6453
10.9556
11.0004
10.9351
11.6435
13.2939
15.6233
18.2288
20.8159
23.0701
1.77772
1.77834
1.7814
1.78668
1.79425
1.80461
1.81949
1.84206
1.8805
1.97252
2.20758
3.56748
10.9549
18.0045
23.1899
26.4809
28.3821
29.2281
29.3154
28.8626
27.9942
26.7812
25.1308
23.0028
20.8441
19.624
19.7993
21.0001
22.7117
24.4215
1.77773
1.77836
1.78145
1.78678
1.79455
1.80547
1.82204
1.84873
1.9068
2.10823
2.32821
3.89089
21.3029
46.2268
82.044
73.4226
65.3687
58.5617
52.9345
48.2186
44.1731
40.581
37.289
34.0451
30.552
27.4107
25.5239
25.0303
25.549
26.4751
1.77773
1.77837
1.78149
1.7869
1.7948
1.80618
1.82434
1.85507
1.94452
2.40258
3.38136
10.9091
101.708
144.851
125.903
98.8534
81.3841
69.3933
60.6282
53.9692
48.6441
44.2821
40.5973
37.351
34.3378
31.6784
29.6812
28.5861
28.4075
28.7262
1.77773
1.77839
1.78153
1.78699
1.79502
1.80671
1.82589
1.86038
1.98879
2.83558
6.75701
604.787
485.43
475.802
104.889
83.6285
70.3742
61.2621
54.5902
49.5267
45.5127
42.2272
39.4837
37.1759
35.1729
33.4028
31.925
30.921
30.5824
30.6111
1.77773
1.77839
1.78153
1.78701
1.79508
1.80686
1.82623
1.86142
1.99609
2.88292
7.6132
452.56
87.7475
76.3129
67.8965
61.3999
56.2928
52.1292
48.5979
45.5313
42.808
40.3335
37.9312
35.6332
33.7808
32.5421
32.035
31.8711
1.77773
1.77838
1.78151
1.78695
1.79495
1.80656
1.8253
1.85765
1.95823
2.48608
4.75235
323.262
282.827
344.95
111.558
91.9329
79.9845
71.6222
65.2035
59.9414
55.4157
51.4312
47.8883
44.6788
41.4173
38.0789
35.1843
33.2632
32.4338
32.1179
1.77773
1.77837
1.78147
1.78686
1.79476
1.80597
1.82332
1.85165
1.91954
2.17688
2.83466
20.4656
93.9786
117.355
81.6466
74.5137
68.2384
62.9786
58.6104
54.9316
51.7649
48.9053
46.1879
43.2937
39.7916
35.7091
32.5502
30.8711
30.4779
30.6032
1.77773
1.77836
1.78142
1.78679
1.79449
1.80518
1.82088
1.84526
1.89035
2.01499
2.4121
6.30886
14.9621
20.116
23.3589
25.3518
26.5862
27.305
27.7027
27.821
27.7307
27.3915
26.295
24.6148
22.9174
22.2903
22.9048
24.2785
26.1009
27.7338
1.77772
1.77834
1.78141
1.78669
1.79416
1.80432
1.81854
1.83988
1.87254
1.93806
2.10105
2.76088
4.43741
5.68246
6.34988
6.97393
7.56964
8.12531
8.64261
9.20459
9.76442
9.99574
9.94622
10.284
11.5557
13.8189
16.7882
20.053
23.35
26.0806
1.77772
1.77833
1.78138
1.78657
1.79385
1.80353
1.81648
1.83481
1.86085
1.90149
1.97485
2.11378
2.38814
2.60382
2.69746
2.76778
2.84545
2.93609
3.04633
3.18965
3.33463
3.61752
4.36378
5.75009
7.92171
10.9179
14.5625
18.4912
22.4384
25.7046
1.77772
1.77833
1.78134
1.78646
1.79358
1.80286
1.81478
1.8309
1.85302
1.88296
1.92508
1.98209
2.04835
2.10254
2.13412
2.15462
2.17252
2.19136
2.21307
2.24014
2.28515
2.52062
3.32254
4.72706
6.91087
9.96457
13.7602
17.9762
22.2868
25.8644
1.77772
1.77832
1.78131
1.78638
1.79337
1.80233
1.81343
1.82817
1.84733
1.87167
1.90231
1.93739
1.97406
2.00242
2.02145
2.03477
2.04497
2.05528
2.06535
2.07621
2.09926
2.28826
3.02672
4.36445
6.4685
9.42354
13.167
17.5514
22.1272
26.0115
1.77771
1.77831
1.78129
1.78632
1.79322
1.80193
1.81238
1.82648
1.84378
1.86546
1.89081
1.91869
1.94667
1.96914
1.98487
1.99659
2.00572
2.01487
2.02328
2.03183
2.04808
2.19466
2.84684
4.09547
6.06852
8.84922
12.4216
16.7728
21.5778
25.8396
1.77772
1.77832
1.78129
1.78631
1.79317
1.80179
1.812
1.82563
1.84215
1.86265
1.88596
1.91113
1.93573
1.95577
1.97041
1.98159
1.99048
1.99938
2.00749
2.01549
2.02839
2.1373
2.693
3.81872
5.60218
8.17444
11.553
15.833
20.778
25.2496
1.77422
1.76857
1.76317
1.75805
1.75328
1.74893
1.74513
1.74229
1.74065
1.74077
1.74272
1.74541
1.7473
1.74697
1.74566
1.74493
1.74502
1.74593
1.74807
1.7531
1.78942
2.15793
3.52228
6.12521
8.81018
11.1011
13.5011
15.8019
17.9969
19.9253
1.77421
1.76857
1.76317
1.75806
1.75329
1.74896
1.74523
1.74252
1.74119
1.74191
1.74465
1.74826
1.75179
1.75274
1.75233
1.75218
1.75265
1.75388
1.75641
1.76399
1.84275
2.47374
4.15006
6.64445
8.90972
11.2699
13.7974
16.1855
18.4188
20.331
1.77422
1.76858
1.76317
1.75807
1.75332
1.74905
1.74541
1.74306
1.74244
1.74451
1.74952
1.75624
1.76433
1.76924
1.77186
1.77447
1.7776
1.78169
1.78744
1.80244
1.96029
2.82232
4.69298
7.03553
8.97696
11.3928
13.9836
16.4433
18.7116
20.6157
1.77422
1.76858
1.76318
1.75808
1.75337
1.74918
1.74578
1.74394
1.74461
1.74916
1.7598
1.77662
1.8064
1.83919
1.86245
1.89068
1.92079
1.95358
1.98984
2.04309
2.2984
3.3093
5.2643
7.44217
9.25032
11.6809
14.2582
16.731
18.9963
20.8724
1.77422
1.76858
1.76318
1.7581
1.75343
1.74936
1.74631
1.74531
1.748
1.75806
1.78251
1.83354
2.11681
2.52746
2.85707
3.17196
3.47598
3.77175
4.04778
4.29691
4.53375
5.12898
6.56074
8.30685
10.1363
12.4595
14.903
17.2699
19.4416
21.2329
1.77422
1.76858
1.76319
1.75813
1.7535
1.74959
1.74702
1.74737
1.7537
1.77619
1.8358
2.13512
4.51737
7.47692
9.35906
10.6835
11.7294
12.5308
13.0953
13.4326
13.4659
13.0035
12.2653
12.2261
13.1036
14.6138
16.4728
18.4218
20.2936
21.876
1.77422
1.76859
1.7632
1.75815
1.75359
1.74988
1.74793
1.75009
1.76364
1.81316
1.96738
3.85862
17.7453
29.8263
34.0337
35.1742
34.9849
34.1224
32.8749
31.3932
29.6748
27.561
24.983
22.0919
19.9538
19.218
19.5735
20.5433
21.7776
22.9563
1.77423
1.7686
1.76322
1.75818
1.75369
1.75018
1.74898
1.75383
1.77997
1.89921
2.04177
4.21841
57.6922
95.2671
88.2605
73.7789
63.2456
55.5227
49.6264
44.8928
40.8795
37.2785
33.8536
30.3416
26.9544
24.5825
23.4585
23.2996
23.7422
24.4012
1.77423
1.7686
1.76323
1.75822
1.7538
1.75046
1.75002
1.7582
1.80456
2.06269
2.62255
7.73317
282.423
183.323
110.146
84.5598
69.753
59.9988
52.8457
47.36
42.8983
39.18
36.0186
33.3007
30.6269
28.2448
26.5927
25.7763
25.6441
25.8669
1.77423
1.76861
1.76325
1.75826
1.75388
1.75068
1.75081
1.76181
1.83021
2.30861
4.13084
119.435
677.316
394.595
126.377
95.4406
77.9154
66.7392
58.7558
52.7011
47.7864
43.5637
39.8534
36.5437
33.3728
30.654
28.6901
27.5336
27.0788
27.0184
1.77423
1.76861
1.76325
1.75825
1.75386
1.75071
1.75094
1.76241
1.83518
2.35488
4.76947
395.679
464.603
343.904
120.764
94.8652
79.8944
69.6497
61.9472
55.8364
50.7466
46.2986
42.1873
38.462
34.8883
31.8592
29.7038
28.3994
27.8099
27.6104
1.77422
1.76859
1.76323
1.75822
1.7538
1.75055
1.75039
1.75968
1.81372
2.13066
3.38482
186.614
401.707
257.315
111.995
90.9715
77.6506
68.1913
60.9819
55.2191
50.398
46.1147
41.9668
38.0913
34.3721
31.2741
29.1859
27.997
27.5132
27.3721
1.77422
1.76859
1.76321
1.7582
1.75373
1.75033
1.74947
1.75555
1.78788
1.94732
2.40379
26.0624
97.7535
114.063
69.8989
63.2579
57.7279
53.1533
49.4053
46.2806
43.5201
40.6204
37.003
32.9398
29.1967
26.9164
25.8726
25.5766
25.7702
26.0892
1.77422
1.76859
1.7632
1.75817
1.75365
1.75003
1.74842
1.75159
1.76939
1.83898
2.09665
4.65325
11.1611
15.5916
18.4836
20.1309
21.112
21.7211
22.0916
22.2805
22.1267
21.0413
19.3292
18.0615
18.0408
18.9428
20.2426
21.6445
23.07
24.2325
1.77422
1.76858
1.7632
1.75814
1.75356
1.74974
1.74747
1.74869
1.75763
1.78914
1.8853
2.29305
3.34286
4.2408
4.78194
5.27055
5.7168
6.13606
6.52783
6.88818
7.11524
7.21158
7.86466
9.28804
11.2932
13.697
16.2263
18.7043
21.0506
22.9167
1.77422
1.76858
1.76319
1.75812
1.75348
1.7495
1.7467
1.74638
1.75068
1.76558
1.8036
1.88204
2.03771
2.14844
2.21046
2.27018
2.33888
2.4182
2.50404
2.60125
2.78668
3.63762
5.0896
6.61266
8.65984
11.2743
14.2248
17.1968
20.0654
22.3667
1.77422
1.76858
1.76318
1.7581
1.75341
1.7493
1.74611
1.74479
1.74665
1.75394
1.77096
1.79872
1.82942
1.8503
1.86205
1.86947
1.87687
1.88587
1.89738
1.91921
2.1222
3.0642
4.56449
5.86123
7.65305
10.1581
13.2218
16.498
19.6965
22.2741
1.77422
1.76858
1.76318
1.75808
1.75337
1.74916
1.7457
1.74375
1.74407
1.74783
1.75649
1.76883
1.78182
1.78915
1.79231
1.79315
1.79328
1.79359
1.79466
1.80182
1.95668
2.80716
4.25749
5.49085
7.13516
9.47274
12.4948
15.9687
19.4544
22.2777
1.77422
1.76858
1.76318
1.75808
1.75334
1.74907
1.74549
1.74312
1.74255
1.74471
1.74985
1.75708
1.76412
1.76802
1.76898
1.76863
1.76775
1.76694
1.76654
1.76972
1.87044
2.59999
3.97521
5.18549
6.70534
8.86467
11.768
15.3007
19.0157
22.1124
1.77422
1.76858
1.76319
1.75809
1.75335
1.74906
1.74541
1.74288
1.74193
1.74341
1.74728
1.75286
1.75781
1.76036
1.76065
1.75997
1.75886
1.75779
1.75703
1.75843
1.81816
2.41411
3.67648
4.83769
6.24702
8.25323
11.0649
14.6367
18.4543
21.6476
1.77414
1.76828
1.76247
1.75673
1.75108
1.74556
1.74025
1.73538
1.73122
1.72813
1.72624
1.72496
1.7231
1.71987
1.71611
1.71291
1.71055
1.70916
1.70964
1.72215
1.88777
2.73062
4.83178
8.07847
11.0037
13.5066
15.7364
17.7087
19.5057
21.0335
1.77414
1.76828
1.76247
1.75673
1.75108
1.74558
1.7403
1.73552
1.73156
1.72887
1.72765
1.72731
1.72656
1.72434
1.72133
1.71861
1.71653
1.71537
1.71679
1.74449
2.06557
3.27058
5.58328
8.54748
11.117
13.6663
15.9976
18.0554
19.8907
21.4014
1.77414
1.76828
1.76247
1.75674
1.7511
1.74562
1.74043
1.73584
1.73235
1.73065
1.7312
1.7335
1.73586
1.73646
1.7356
1.73478
1.73459
1.73559
1.74077
1.79644
2.28297
3.76332
6.18888
8.87559
11.1591
13.7064
16.1053
18.2477
20.1275
21.6405
1.77414
1.76828
1.76248
1.75674
1.75112
1.74569
1.74064
1.73641
1.73379
1.73402
1.73857
1.74767
1.76027
1.77201
1.78169
1.79553
1.81353
1.83693
1.87044
1.98781
2.60251
4.26197
6.72923
9.17242
11.3374
13.8397
16.256
18.4354
20.332
21.835
1.77414
1.76828
1.76248
1.75675
1.75116
1.7458
1.74096
1.7373
1.7362
1.74033
1.75396
1.78347
1.86003
1.96751
2.09677
2.27525
2.48852
2.73291
2.99686
3.25906
3.75384
5.21636
7.49661
9.68478
11.8887
14.3136
16.6645
18.7899
20.6348
22.0863
1.77414
1.76828
1.76248
1.75677
1.7512
1.74594
1.74141
1.73865
1.74021
1.75236
1.78823
1.9126
2.61347
3.60173
4.52795
5.509
6.52309
7.52769
8.43246
9.1133
9.30548
9.343
10.106
11.6485
13.5695
15.6253
17.6522
19.5305
21.19
22.5113
1.77414
1.76828
1.76249
1.75678
1.75126
1.74612
1.74201
1.74058
1.74705
1.77556
1.86921
2.58032
7.29043
12.3106
15.8315
18.6533
20.7811
22.2573
23.065
23.2192
22.5269
20.7733
18.7857
17.5431
17.5015
18.2947
19.4894
20.8117
22.0978
23.181
1.77414
1.76828
1.7625
1.7568
1.75131
1.74632
1.74269
1.74322
1.75741
1.82019
2.07268
5.65972
27.3503
44.754
49.3026
49.5317
47.881
45.3041
42.3392
39.2428
35.9483
32.2445
28.2931
24.7047
22.4855
21.6992
21.8315
22.4396
23.2484
24.0274
1.77414
1.76829
1.76251
1.75683
1.75138
1.7465
1.74337
1.74612
1.77097
1.90072
2.10758
6.22165
76.9929
124.857
86.4024
76.198
67.0611
59.3699
52.9215
47.4318
42.5349
37.8563
33.3906
29.3718
26.2825
24.5666
23.9261
23.9551
24.3506
24.85
1.77415
1.7683
1.76253
1.75687
1.75145
1.74665
1.74388
1.74833
1.78456
1.99676
2.52615
14.4336
69.5853
114.709
82.6547
77.305
70.3005
63.3405
56.9323
51.2248
46.007
40.8659
35.8655
31.6131
28.3003
26.2669
25.2812
24.994
25.1337
25.4392
1.77414
1.76829
1.76252
1.75685
1.75144
1.74667
1.74397
1.74869
1.78751
2.01873
2.71523
16.9413
47.1149
107.715
88.6576
80.3972
71.7101
63.8956
57.136
51.3452
46.1025
40.8206
35.5558
31.3253
28.2348
26.444
25.5741
25.2892
25.3798
25.6174
1.77414
1.76828
1.7625
1.75682
1.75138
1.74656
1.74361
1.74707
1.77631
1.93752
2.41707
37.409
110.293
139.763
79.7318
71.0824
63.4688
57.0007
51.5602
46.8897
42.497
37.6663
32.5587
28.5534
26.054
24.9386
24.5849
24.6257
24.9086
25.247
1.77414
1.76828
1.76249
1.75681
1.75134
1.74641
1.74301
1.74437
1.76195
1.84861
2.26045
8.00078
21.0448
29.2443
32.1015
32.8957
32.8431
32.327
31.559
30.5697
28.9191
25.8157
22.993
21.254
20.9494
21.4227
22.1345
22.8862
23.6597
24.3193
1.77414
1.76828
1.76249
1.75679
1.75128
1.74622
1.74231
1.74163
1.75067
1.78945
1.93764
2.9074
5.44451
7.46606
8.57899
9.46686
10.1849
10.7908
11.2725
11.5612
11.2651
11.1095
11.6989
13.171
15.1404
17.1389
18.9641
20.5711
22.0134
23.1522
1.77414
1.76828
1.76248
1.75678
1.75123
1.74603
1.74168
1.73952
1.74282
1.76031
1.81418
1.98037
2.34337
2.69371
2.92303
3.13423
3.33709
3.53842
3.73376
3.8877
4.15268
5.16662
6.98987
9.11364
11.5299
14.0812
16.48
18.6763
20.6779
22.2596
1.77414
1.76828
1.76248
1.75676
1.75118
1.74588
1.74119
1.73798
1.73804
1.74519
1.76644
1.80865
1.86495
1.91018
1.93846
1.96124
1.98505
2.01325
2.04872
2.14026
2.7108
4.20058
6.12265
7.80575
9.83105
12.368
14.9973
17.5314
19.9188
21.8248
1.77414
1.76828
1.76248
1.75675
1.75115
1.74576
1.74083
1.73693
1.73514
1.73723
1.74575
1.76075
1.77542
1.78391
1.78691
1.78713
1.7869
1.78745
1.79087
1.84245
2.36279
3.80702
5.70093
7.27754
9.00855
11.4088
14.1586
16.9363
19.5974
21.7265
1.77414
1.76828
1.76248
1.75674
1.75112
1.74568
1.74059
1.73626
1.73339
1.73296
1.73597
1.74183
1.7469
1.74841
1.74695
1.74405
1.7408
1.73764
1.73589
1.76532
2.18524
3.50842
5.36033
6.92212
8.49865
10.7372
13.5468
16.5587
19.4491
21.7383
1.77414
1.76828
1.76248
1.75674
1.75111
1.74563
1.74045
1.73588
1.73242
1.73075
1.7313
1.73347
1.73496
1.73412
1.73131
1.72769
1.72387
1.72011
1.71716
1.73239
2.05148
3.22421
5.01428
6.5878
8.06815
10.1429
12.9452
16.1473
19.2365
21.6398
1.77414
1.76829
1.76249
1.75676
1.75112
1.74564
1.74042
1.73575
1.73203
1.72986
1.72949
1.73033
1.73054
1.72882
1.72557
1.72175
1.71778
1.71386
1.71048
1.71798
1.94919
2.95349
4.63924
6.19378
7.63866
9.61584
12.4312
15.712
18.8447
21.2607
1.77414
1.76827
1.76245
1.75668
1.75097
1.74537
1.7399
1.73477
1.73014
1.72626
1.72322
1.72061
1.71763
1.7138
1.70968
1.70608
1.7033
1.70167
1.70413
1.75246
2.15732
3.53462
6.28928
10.0435
13.1757
15.8458
18.0468
19.8384
21.3951
22.6635
1.77414
1.76827
1.76245
1.75668
1.75098
1.74538
1.73994
1.73487
1.73039
1.72682
1.72427
1.72236
1.72019
1.71712
1.7136
1.71036
1.70775
1.70632
1.71246
1.8268
2.50327
4.26173
7.09269
10.4444
13.2689
15.9952
18.3008
20.1777
21.7594
23.0139
1.77414
1.76827
1.76245
1.75668
1.75099
1.74541
1.74004
1.73512
1.73099
1.72813
1.72683
1.72674
1.72667
1.72547
1.72341
1.72133
1.71967
1.71936
1.73241
1.92589
2.8462
4.87285
7.71432
10.6878
13.2473
15.9649
18.3485
20.3243
21.9543
23.203
1.77414
1.76827
1.76245
1.75669
1.751
1.74547
1.74019
1.73553
1.73204
1.73056
1.7319
1.73602
1.74124
1.7449
1.74676
1.7491
1.75339
1.76199
1.79168
2.06329
3.16861
5.37732
8.18938
10.8654
13.3071
15.9559
18.3726
20.4127
22.0782
23.3331
1.77414
1.76827
1.76245
1.7567
1.75103
1.74555
1.74044
1.73619
1.73378
1.73487
1.7417
1.75595
1.77845
1.80318
1.82728
1.86631
1.92477
2.01349
2.1261
2.4368
3.6012
5.87447
8.61708
11.09
13.5448
16.132
18.5245
20.5655
22.2245
23.4679
1.77414
1.76827
1.76246
1.75671
1.75107
1.74565
1.74077
1.73717
1.73652
1.74245
1.76085
1.80564
1.93483
2.13953
2.37898
2.70074
3.08778
3.5432
4.02364
4.35235
5.05334
6.74243
9.21313
11.7459
14.2782
16.7372
18.9815
20.9099
22.4871
23.6767
1.77414
1.76827
1.76246
1.75672
1.75111
1.74579
1.74121
1.73852
1.74084
1.75585
1.80064
1.97649
2.94162
4.26302
5.49419
6.82009
8.20941
9.60263
10.8445
11.6537
11.5811
11.7525
12.6789
14.2445
16.0963
18.0259
19.8733
21.524
22.9194
23.9976
1.77414
1.76828
1.76247
1.75673
1.75115
1.74593
1.74171
1.74021
1.74721
1.77818
1.88339
2.6663
7.42722
12.396
15.7697
18.5714
20.7909
22.4032
23.3716
23.553
22.531
20.454
18.7983
18.2509
18.7437
19.7962
21.058
22.3201
23.4659
24.3935
1.77414
1.76829
1.7625
1.75676
1.75119
1.74606
1.74217
1.74204
1.75444
1.81084
2.00325
4.00471
13.4746
21.8696
27.261
30.4897
32.2854
32.9592
32.7977
31.8604
29.7527
26.4634
23.5503
21.646
21.0899
21.4144
22.162
23.0675
23.9762
24.7563
1.77415
1.76829
1.76251
1.75679
1.75123
1.74616
1.7425
1.7434
1.76042
1.8476
2.16528
3.6916
9.05593
15.3135
21.5854
26.0446
28.988
30.6343
31.2455
30.8706
29.2029
26.233
23.8666
22.4211
22.0086
22.2418
22.8033
23.5209
24.2831
24.9619
1.77415
1.76829
1.76249
1.75678
1.75124
1.74618
1.74256
1.74364
1.76164
1.85816
2.25424
4.93457
10.9201
18.1072
23.4803
26.7628
28.5644
29.2824
29.2372
28.4229
26.4534
23.512
21.735
21.1235
21.4045
22.0283
22.7445
23.4939
24.2465
24.9061
1.77414
1.76828
1.76247
1.75675
1.7512
1.74611
1.74233
1.74264
1.75705
1.82726
2.11902
5.47812
13.0691
18.6372
21.9677
23.6972
24.558
24.8097
24.6207
23.829
21.7059
19.3855
18.2904
18.5775
19.6318
20.829
21.9201
22.8926
23.7857
24.5325
1.77414
1.76828
1.76247
1.75674
1.75117
1.746
1.74192
1.74099
1.74986
1.78954
1.94926
3.07001
5.95526
8.20546
9.37916
10.2763
10.9902
11.565
11.9834
11.9871
11.4469
11.6461
12.8266
14.7539
16.8656
18.786
20.3993
21.7493
22.9303
23.8817
1.77414
1.76827
1.76246
1.75673
1.75113
1.74586
1.74144
1.73926
1.74312
1.76329
1.82843
2.05673
2.59858
3.13637
3.48191
3.76735
4.02897
4.27821
4.5052
4.60553
5.15848
6.71624
8.97829
11.4779
14.1168
16.5326
18.5968
20.3583
21.9074
23.1435
1.77414
1.76827
1.76246
1.75671
1.75109
1.74573
1.74099
1.73781
1.73832
1.74732
1.77417
1.83287
1.92076
1.99871
2.0577
2.11692
2.18015
2.2498
2.31846
2.54082
3.5706
5.55577
7.77483
9.782
12.2321
14.7646
17.075
19.1594
21.0515
22.5722
1.77414
1.76827
1.76246
1.7567
1.75105
1.74561
1.74063
1.73672
1.73513
1.73814
1.74925
1.76944
1.79073
1.8051
1.81277
1.81776
1.82273
1.83076
1.84941
2.06998
3.0818
5.03851
7.22696
9.06932
11.1527
13.6235
16.0494
18.3625
20.5315
22.2861
1.77414
1.76827
1.76245
1.75669
1.75103
1.74553
1.74035
1.73596
1.73309
1.73291
1.73681
1.74443
1.75147
1.75447
1.75392
1.7515
1.74864
1.74616
1.75116
1.91489
2.8025
4.66219
6.83027
8.63172
10.4998
12.8973
15.4286
17.9248
20.3092
22.2351
1.77414
1.76827
1.76245
1.75669
1.75101
1.74547
1.74018
1.73547
1.73183
1.72994
1.73038
1.7327
1.7345
1.73392
1.7312
1.72741
1.72333
1.71937
1.71968
1.83178
2.57471
4.30974
6.45983
8.27509
10.0297
12.3336
15.0044
17.6872
20.2327
22.2692
1.77414
1.76827
1.76245
1.75669
1.751
1.74543
1.74008
1.73519
1.73112
1.72835
1.72715
1.72707
1.72656
1.72442
1.72085
1.71663
1.71223
1.70792
1.70603
1.77734
2.3712
3.94936
6.05729
7.90803
9.61905
11.8035
14.5802
17.463
20.1136
22.2024
1.77414
1.76828
1.76246
1.7567
1.75101
1.74544
1.74006
1.7351
1.73085
1.7277
1.72588
1.72491
1.72353
1.7208
1.71694
1.71259
1.70811
1.70368
1.70067
1.74152
2.19842
3.59427
5.60959
7.46185
9.21393
11.3589
14.1785
17.108
19.7608
21.8554
1.77414
1.76827
1.76245
1.75668
1.75097
1.74535
1.73986
1.73463
1.7298
1.7255
1.72178
1.71837
1.71475
1.71065
1.70647
1.70278
1.69995
1.6988
1.70891
1.84574
2.55355
4.43164
7.75675
11.9275
15.2646
18.087
20.2523
21.8666
23.2209
24.266
1.77414
1.76827
1.76245
1.75668
1.75097
1.74536
1.73988
1.73471
1.72998
1.72591
1.72255
1.71964
1.71661
1.71308
1.70935
1.70594
1.70323
1.70268
1.72683
1.99776
3.06942
5.29628
8.56073
12.2465
15.3224
18.2154
20.5102
22.2152
23.5683
24.6007
1.77414
1.76827
1.76245
1.75668
1.75098
1.74539
1.73996
1.73489
1.73042
1.72686
1.72437
1.72268
1.72103
1.71876
1.71603
1.71336
1.71115
1.71191
1.76062
2.1773
3.5417
5.99539
9.16545
12.3866
15.219
18.1104
20.5097
22.3334
23.7315
24.7517
1.77414
1.76827