/*--------------------------------*- C++ -*----------------------------------*\
| =========                 |                                                 |
| \\      /  F ield         | OpenFOAM: The Open Source CFD Toolbox           |
|  \\    /   O peration     | Version:  2512                                  |
|   \\  /    A nd           | Website:  www.openfoam.com                      |
|    \\/     M anipulation  |                                                 |
\*---------------------------------------------------------------------------*/
FoamFile
{
    version     2.0;
    format      ascii;
    arch        "LSB;label=32;scalar=64";
    class       volScalarField;
    location    "100";
    object      omega;
}
// * * * * * * * * * * * * * * * * * * * * * * * * * * * * * * * * * * * * * //

dimensions      [0 0 -1 0 0 0 0];

internalField   nonuniform List<scalar> 
90398
(
16.087
15.8277
15.5954
15.5013
18.8294
41.278
86.0816
146.232
210.219
259.386
293.311
315.969
331.006
341.216
348.963
356.13
365.063
378.543
399.728
430.738
470.807
515.392
557.956
592.993
617.756
631.882
636.655
633.239
625.935
611.884
16.0871
15.8283
15.6001
15.7039
22.9011
53.2826
104.074
165.123
223.49
269.057
301.269
323.221
338.047
348.213
355.851
362.607
370.498
381.848
399.326
425.024
459.189
499.108
539.558
574.979
601.708
618.43
625.8
624.775
619.277
607.017
16.0873
15.8291
15.6132
16.2982
29.6966
67.9263
122.245
183.137
238.008
280.282
310.331
331.009
345.126
354.885
362.142
368.151
374.482
382.913
395.528
414.35
440.583
473.612
510.258
545.458
574.484
594.632
605.571
607.827
604.994
594.976
16.0875
15.8303
15.6478
17.657
38.174
82.0357
139.6
199.897
250.861
289.632
316.934
335.641
348.443
357.548
364.295
369.46
374.161
379.713
387.654
399.734
417.579
442.259
473.217
506.951
538.111
562.26
577.593
583.907
584.411
577.031
16.0878
15.8322
15.7242
19.9453
46.9402
95.2406
154.616
212.036
259.106
293.995
317.597
333.118
344.251
353.352
359.899
364.48
367.762
370.797
374.769
381.053
391.104
406.92
430.377
460.735
493.351
521.969
542.643
553.949
558.526
554.241
16.0881
15.8353
15.8599
22.8012
54.8426
106.061
165.033
218.739
261.321
290.793
308.855
320.472
330.058
339.559
347.276
351.889
353.909
354.609
355.225
356.927
362.297
372.755
389.798
414.036
443.269
474.684
501.198
518.513
528.032
527.397
16.0883
15.8391
16.048
25.554
60.9589
113.341
169.734
219.021
256.289
278.222
289.139
296.924
306.431
319.343
329.904
334.264
333.779
331.368
329.544
329.412
332.086
338.705
350.812
370.1
396.389
426.376
455.161
478.368
493.511
497.113
16.0885
15.8431
16.2493
27.6556
64.7183
116.544
169.221
213.169
244.143
442.654
407.528
440.264
459.895
483.973
344.047
331.408
319.746
309.504
301.889
297.791
297.804
302.193
311.552
327.396
350.856
380.221
410.561
436.307
455.902
463.832
16.0885
15.8469
16.4081
28.809
65.9994
115.756
163.952
202.048
381.678
365.184
435.594
610.788
558.055
514.408
328.716
301.806
279.666
263.573
253.85
250.262
252.34
258.578
268.908
284.262
306.328
335.235
367.274
396.414
419.279
431.147
16.0885
15.85
16.5032
29.0818
65.0046
111.654
154.764
187.667
347.545
596.325
1049.28
1149.83
836.81
609.327
269.257
252.363
242.428
236.521
232.509
229.197
226.587
227.571
233.513
245.428
264.759
292.302
325.389
357.597
384.129
399.678
16.0884
15.8519
16.5494
28.7675
62.5998
105.47
143.286
172.506
320.798
559.519
1121.23
759.41
648.695
277.162
255.187
242.593
237.469
235.431
233.669
230.575
226.364
223.886
226.019
235.968
256.549
287.129
320.699
350.242
369.033
16.0884
15.8533
16.5756
28.0949
59.1278
97.8143
130.586
156.418
292.502
291.514
700.28
795.094
1018.11
1019.1
256.346
242.337
236.551
238.506
243.177
246.264
245.182
239.89
232.33
226.044
225.139
234.344
256.794
287.888
318.6
339.747
16.0883
15.8553
16.6004
27.3689
55.5228
89.8639
118.635
140.813
157.021
286.998
300.198
334.996
337.924
312.664
216.887
224.133
233.219
246.985
261.042
269.861
269.835
260.96
248.589
235.435
225.691
224.432
236.504
261.303
290.506
312.603
16.0882
15.8583
16.6441
26.8897
52.5388
82.499
107.626
126.39
138.538
147.437
157.689
164.983
177.143
200.165
219.127
226.414
242.164
264.647
284.235
292.071
288.431
275.639
258.533
241.32
226.776
219.267
223.533
241.291
266.879
288.319
16.0882
15.8622
16.7244
26.733
50.4495
76.2947
97.9058
114.121
125.808
136.838
150.343
167.373
191.417
215.725
222.928
229.913
250.823
279.494
296.664
298.678
289.317
271.984
253.955
236.98
222.488
213.626
214.409
226.963
248.111
267.421
16.088
15.867
16.8351
26.8419
49.2139
71.7515
90.9829
105.814
119.3
137.714
160.609
187.394
212.38
224.486
220.398
229.462
254.36
282.56
292.632
287.484
273.176
257.33
241.965
227.514
215.644
208.644
209.113
218.309
234.599
250.289
16.0878
15.8722
16.9591
27.0614
48.5032
68.7397
86.3533
100.946
117.872
147.337
182.031
210.09
225.802
221.366
213.696
225.07
250.828
271.766
272.741
261.935
251.289
240.466
229.348
219.085
211.938
208.742
209.996
216.022
226.601
237.151
16.0876
15.8769
17.06
27.1746
47.6219
66.3002
82.9749
97.9552
119.655
162.546
201.202
223.187
228.212
213.194
204.236
218.472
241.884
250.901
247.646
241.901
237.044
233.249
229.587
226.07
223.234
220.999
219.983
220.085
223.302
228.277
16.0873
15.8778
17.0709
26.8802
46.111
63.6843
79.7664
95.4017
125.825
176.767
213.922
228.858
222.817
204.457
194.971
215.621
233.203
239.371
241.669
242.914
243.898
244.744
245.92
246.067
244.694
242.038
238.421
234
229.62
229.358
16.0878
15.8752
16.9374
25.9698
43.9502
60.6825
76.505
92.9487
131.146
185.86
219.335
228.057
213.252
195.605
188.231
214.242
226.608
233.297
237.749
241.6
245.647
248.939
251.323
252.838
253.492
253.302
252.171
249.507
245.475
245.355
1.93944
2.0634
2.14826
2.33321
3.60344
8.22442
18.0143
33.3113
51.08
65.7938
77.5596
86.7458
94.0194
99.85
104.681
108.892
112.909
117.331
122.823
129.998
138.966
149.096
159.307
168.628
176.483
182.739
187.406
190.616
192.42
192.955
1.93948
2.06231
2.15321
2.46446
4.51709
10.6413
22.4661
38.6141
54.9919
68.9885
80.2665
89.1116
96.1464
101.781
106.434
110.473
114.284
118.412
123.458
130.001
138.259
147.812
157.735
167.021
175.013
181.412
186.213
189.527
191.417
192.023
1.93954
2.05997
2.16698
2.72849
5.90402
13.8617
27.1981
43.5641
59.3238
72.7842
83.6046
92.1067
98.85
104.227
108.645
112.431
115.915
119.528
123.793
129.258
136.271
144.722
153.973
163.091
171.248
177.961
183.113
186.752
188.943
189.784
1.93965
2.05718
2.198
3.15642
7.58303
17.2275
31.7343
48.1649
63.4816
76.411
86.7984
94.9285
101.379
106.5
110.667
114.17
117.269
120.294
123.687
127.948
133.514
140.564
148.816
157.534
165.785
172.905
178.564
182.704
185.371
186.582
1.93984
2.05488
2.25559
3.72082
9.2725
20.3584
35.6854
51.9323
66.7705
79.2372
89.3305
97.2533
103.442
108.342
112.302
115.56
118.279
120.708
123.227
126.299
130.456
136.095
143.225
151.291
159.392
166.779
172.952
177.681
180.941
182.625
1.94012
2.0545
2.34176
4.34491
10.8128
22.9685
38.6225
54.5298
68.8694
81.03
91.4139
99.6872
105.904
110.635
114.5
117.529
119.78
121.481
123.035
124.942
128.438
134.093
141.384
149.022
155.142
161.123
167.063
172.114
175.918
178.1
1.94038
2.05669
2.44504
4.93339
12.093
24.8494
40.3443
55.7649
69.7141
82.1493
97.6388
110.625
116.663
119.502
122.46
124.257
125.031
125.406
125.996
127.037
129.275
133.47
139.815
147.477
154.497
159.594
162.689
166.883
170.74
173.251
1.94067
2.06002
2.55076
5.42888
13.0205
25.8863
40.8955
55.7079
69.5521
96.0184
125.116
155.574
160.213
156.776
152.685
146.844
142.327
138.612
135.422
133.027
132.061
133.286
137.307
143.955
151.616
157.985
161.721
163.979
166.321
168.598
1.94104
2.06348
2.63462
5.75444
13.5123
26.0882
40.3269
54.4395
77.9478
111.676
171.68
317.747
304.917
243.506
198.601
174.943
158.855
147.318
139.261
133.933
130.969
130.312
132.473
137.733
145.332
153.15
158.937
162.256
164.271
166.362
1.94142
2.06718
2.69287
5.88158
13.4287
25.4219
38.7023
52.8399
77.2879
132.329
338.901
2200.28
880.385
614.215
191.965
163.534
146.394
135.359
128.231
123.573
121.004
120.683
122.898
128.01
135.786
144.814
152.898
158.61
162.297
165.236
1.94177
2.07094
2.74256
5.93913
13.1009
24.2824
36.4615
50.6697
74.9134
137.581
1126.62
182.378
150.555
132.465
123.119
117.905
114.494
112.208
111.659
113.369
117.78
125.051
134.486
144.256
152.463
158.66
163.311
1.9421
2.07538
2.79281
5.96815
12.6259
22.8326
33.8629
47.4519
69.3502
117.435
271.373
903.773
664.086
412.512
148.498
128.741
118.954
114.831
112.093
109.529
107.588
107.05
108.399
111.712
117.244
125.266
135.053
144.775
153.296
159.995
1.94247
2.0812
2.84068
5.95792
12.0821
21.2731
31.3912
43.802
58.7958
85.8171
142.488
195.741
193.963
159.435
117.739
115.05
113.988
112.325
109.831
108.187
106.797
105.593
106.785
109.647
113.626
119.323
127.394
137.034
146.939
155.428
1.94289
2.08807
2.89161
5.98797
11.7373
19.918
29.1538
40.0921
51.9857
64.6884
80.0223
90.8381
95.9896
102.652
111.002
115.268
115.656
112.618
110.994
109.977
108.909
107.645
107.875
110.173
113.001
116.481
122.073
130.329
140.446
150.034
1.94317
2.09589
2.95932
6.09388
11.6103
18.8745
27.2228
36.8866
46.8606
56.4448
65.9527
75.2998
86.8774
103.446
116.451
121.89
118.447
113.899
112.342
111.57
110.609
109.447
110.351
112.293
114.01
115.627
118.813
125.049
134.434
144.219
1.94264
2.10478
3.03692
6.24621
11.6406
18.1933
25.8438
34.579
43.4186
51.9361
61.1804
74.2859
92.5226
112.47
125.735
129.291
120.043
114.289
113.224
113.034
112.755
113.973
115.57
116.413
116.262
115.89
116.965
121.118
129.209
138.156
1.94011
2.11286
3.11452
6.40896
11.7577
17.7973
24.9639
33.1655
41.3576
50.5114
64.0473
82.1371
103.24
122.579
137.132
135.064
121.093
114.568
115.07
116.92
120.909
123.099
123.104
121.118
118.168
115.912
115.526
117.928
124.699
131.613
1.9381
2.11949
3.17447
6.52322
11.8028
17.4716
24.3383
32.2384
40.1428
52.6508
70.3889
91.5702
113.636
132.775
147.231
137.235
122.373
116.947
120.295
125.192
127.969
127.445
124.862
121.016
117.201
114.556
113.669
114.889
120.407
124.28
1.93671
2.12081
3.18604
6.50571
11.6637
17.0236
23.708
31.431
40.1822
56.0761
77.2147
100.525
122.691
144.678
152.835
134.913
121.523
117.991
119.227
120.475
120.118
118.582
117.078
115.917
114.783
114.027
113.977
115.109
118.274
118.86
1.9362
2.11307
3.1186
6.2788
11.2546
16.3769
23.0558
30.6692
40.6239
58.7683
81.7793
107.232
129.583
154.738
152.549
127.857
112.653
106.278
104.036
103.409
103.957
105.037
106.094
107.309
108.788
110.675
113.095
116.131
119.458
118.537
1.7802
1.78816
1.84586
3.12415
7.69
13.2249
18.3213
26.2366
35.1349
43.1226
49.7002
55.1813
59.813
63.7889
67.2826
70.4795
73.6038
76.9714
80.8915
85.5567
90.889
96.5512
102.135
107.332
111.993
116.03
119.496
122.343
124.515
125.7
1.78031
1.78958
1.95495
3.98856
9.19589
14.0055
20.0708
28.5587
37.3856
45.0636
51.4738
56.8048
61.3184
65.1599
68.523
71.5821
74.5482
77.7153
81.3774
85.7515
90.8201
96.3057
101.808
106.992
111.636
115.675
119.115
121.942
124.105
125.326
1.78053
1.79363
2.19671
5.15621
10.8661
15.3303
22.5113
31.4124
40.0696
47.4914
53.738
58.9273
63.3063
67.0129
70.2199
73.0894
75.7969
78.6096
81.7873
85.5726
90.0478
95.0613
100.292
105.371
110.011
114.118
117.625
120.533
122.794
124.131
1.78088
1.80414
2.59023
6.48668
12.4164
17.3139
25.1767
34.2198
42.6141
49.8883
56.04
61.1683
65.4575
69.0814
72.167
74.8526
77.2791
79.6644
82.2497
85.2991
88.9933
93.332
98.1231
102.978
107.611
111.795
115.435
118.504
120.951
122.468
1.78147
1.82719
3.11846
7.80614
13.564
19.2069
27.5438
36.4795
44.7042
51.8981
58.1193
63.412
67.874
71.5501
74.6177
77.1636
79.295
81.1983
83.1144
85.3376
88.1504
91.7209
95.9443
100.488
104.99
109.181
112.927
116.162
118.823
120.542
1.78252
1.89204
3.72662
9.00533
14.2913
20.7152
29.3143
38.0509
46.1439
53.4365
60.292
66.5961
71.8112
75.9564
79.1281
81.4481
83.076
84.2418
85.2541
86.4687
88.3439
91.2684
95.0223
99.0772
103.133
107.012
110.613
113.86
116.657
118.534
1.78402
2.00229
4.34432
10.0572
14.9065
21.8443
30.4012
38.8895
46.9604
54.9324
64.4756
75.6405
83.6215
88.5246
91.037
91.8291
91.7343
91.1559
90.5902
90.3718
90.921
92.6392
95.6319
99.4326
103.232
106.44
109.234
112.076
114.754
116.643
1.78576
2.1116
4.92307
10.9731
15.62
22.6136
30.8452
39.0499
47.5772
58.1765
72.2128
102.528
121.012
125.906
125.311
116.668
110.56
105.527
101.229
97.8672
95.7782
95.329
96.7738
99.8407
103.613
106.953
109.432
111.44
113.526
115.17
1.78783
2.21396
5.40658
11.719
16.2375
22.9875
30.7154
38.6285
48.2408
65.9836
96.9241
233.817
291.338
231.193
175.28
148.711
131.326
119.269
110.512
104.116
99.5974
97.1365
96.9751
99.0895
102.771
106.68
109.722
111.79
113.51
114.824
1.79008
2.30861
5.80174
12.2794
16.6323
22.9422
30.0627
37.7136
48.4513
75.1323
167.829
1638.47
881.473
631.609
186.311
152.164
130.941
116.866
107.269
100.708
96.421
94.0179
93.7502
95.7726
99.7236
104.502
108.753
111.757
113.916
115.247
1.79227
2.39947
6.16655
12.7932
16.9402
22.6951
29.1216
36.4861
47.4784
79.9068
478.824
765.699
183.676
142.047
119.651
106.609
98.4333
93.0833
89.6428
87.9884
88.2009
90.514
94.8571
100.484
106.114
110.585
113.872
115.685
1.7946
2.49356
6.52566
13.2975
17.2325
22.3385
28.0277
34.9229
45.0107
72.6952
150.514
595.374
559.401
490.421
139.361
116.534
103.596
95.832
90.7128
87.1931
84.6828
83.5342
83.9
86.0601
90.1972
95.9773
102.454
108.291
112.997
115.651
1.79723
2.59435
6.86836
13.7294
17.5401
21.9674
26.9475
33.2074
42.0568
56.4618
86.5356
130.784
138.415
128.189
106.29
100.272
94.6876
90.3583
87.2719
84.9897
83.2263
82.0967
82.1847
83.9025
87.3347
92.4656
98.8932
105.443
111.354
114.936
1.80028
2.70348
7.1953
14.1314
17.9391
21.7095
26.0504
31.5735
38.6981
47.9507
60.4085
73.0423
83.9575
95.1375
98.7918
95.9497
91.5989
88.2836
86.0728
84.5118
83.323
82.4637
82.4676
83.9027
86.5923
90.6551
96.2626
102.702
109.252
113.543
1.80384
2.82179
7.54888
14.5518
18.3692
21.5904
25.3524
30.1734
36.2566
43.7016
52.962
64.7958
81.8299
96.4757
98.7754
94.8477
90.0954
87.144
85.6063
84.7163
84.1339
83.796
84.3015
85.6908
87.6839
90.5642
94.927
100.565
107.057
111.571
1.80801
2.95245
7.91056
14.9632
18.7795
21.5993
24.9143
29.2141
34.8302
42.3165
52.8117
68.6477
89.7041
99.7866
99.9722
94.393
88.9149
86.5521
86.0137
86.064
86.3976
87.2024
88.3466
89.4133
90.4074
91.9462
94.8853
99.264
105.084
109.134
1.81249
3.07792
8.24399
15.3469
19.1484
21.6847
24.6925
28.71
34.2856
43.209
57.661
78.5963
97.2061
102.325
102.164
94.5303
88.3274
87.1022
88.1945
89.8665
92.2085
93.9363
94.7596
94.611
94.1414
94.3204
95.9012
98.797
103.562
106.334
1.81657
3.17212
8.48796
15.6445
19.4914
21.7984
24.583
28.4401
34.3516
46.4287
65.9423
88.8263
102.088
105.349
103.991
94.8012
88.7466
89.1737
92.4377
96.4288
99.2602
100.334
100.041
98.8131
97.5366
96.9922
97.5115
99.0572
102.602
103.548
1.81806
3.19269
8.54752
15.7614
19.7664
21.8324
24.4256
28.1789
35.002
51.1524
74.6938
96.7205
105.728
108.24
103.949
93.5223
88.8701
90.1266
93.3658
96.2855
97.9746
98.6063
98.5416
98.1369
97.813
97.9168
98.6514
100.178
102.767
101.799
1.81469
3.09756
8.32839
15.5791
19.8247
21.6412
24.1018
27.8054
35.8805
55.1737
80.253
101.029
107.264
109.072
100.827
88.6514
83.3721
82.9221
84.0387
85.4621
86.947
88.2683
89.5504
90.9896
92.7475
94.9189
97.5345
100.496
103.157
100.904
1.77852
1.78796
2.12935
4.92978
11.3132
18.0021
22.9319
28.7835
34.4871
39.6411
44.1504
48.0775
51.5313
54.6196
57.4659
60.2193
63.0703
66.2277
69.8235
73.8513
78.1438
82.4625
86.5993
90.4233
93.8774
96.9661
99.687
102.026
103.932
104.934
1.77872
1.7954
2.46666
6.25288
13.1773
19.4044
24.3954
30.3339
36.0711
41.1875
45.6381
49.4793
52.8571
55.8474
58.5843
61.2075
63.894
66.8448
70.2033
74.0072
78.1323
82.3534
86.442
90.2373
93.6664
96.7126
99.3912
101.704
103.595
104.64
1.77929
1.82217
3.04858
7.9272
15.2727
20.8098
26.2961
32.3745
38.1154
43.1921
47.582
51.3454
54.6358
57.5212
60.1235
62.5592
64.9788
67.5557
70.4528
73.7617
77.4444
81.343
85.2431
88.9541
92.3671
95.4151
98.1214
100.473
102.43
103.584
1.78062
1.92322
3.88751
9.79497
17.3235
22.2993
28.264
34.4433
40.1621
45.2022
49.5708
53.3488
56.6156
59.4622
61.976
64.2381
66.3601
68.4953
70.8156
73.471
76.5253
79.9243
83.5053
87.0689
90.4409
93.5191
96.295
98.7428
100.831
102.135
1.7829
2.08786
4.88136
11.6333
19.0832
24.0164
30.0704
36.1978
41.8588
46.8839
51.3669
55.3653
58.9075
61.9092
64.4659
66.6177
68.4314
70.0678
71.7203
73.6013
75.8849
78.6411
81.7894
85.1186
88.3919
91.4741
94.3004
96.8446
99.073
100.53
1.78724
2.32155
5.91667
13.2782
20.3927
25.4292
31.436
37.4346
43.0043
48.1255
53.1634
58.2149
62.6359
66.2385
69.0215
71.0323
72.3826
73.2637
73.9955
74.8794
76.2027
78.1649
80.7598
83.735
86.8127
89.777
92.5503
95.106
97.412
98.9684
1.79422
2.60248
6.91551
14.6801
21.2979
26.4286
32.2897
38.0779
43.5821
49.1529
56.1679
64.9853
72.3673
77.2719
79.8874
80.8084
80.7133
79.9895
79.049
78.4059
78.3817
79.2395
81.0499
83.5668
86.3361
88.9551
91.4758
93.8615
96.096
97.6351
1.80673
2.9098
7.85249
15.8752
21.9757
27.0911
32.6656
38.1659
43.7672
50.6986
59.6965
82.1083
101.305
108.991
108.292
101.98
96.6647
92.0448
88.0213
84.6961
82.4922
81.6201
82.2134
84.0887
86.6492
89.1993
91.4514
93.4488
95.3727
96.736
1.82917
3.21285
8.69449
16.8801
22.5582
27.484
32.6348
37.7968
43.8499
54.288
70.5729
147.583
225.065
213.062
153.606
130.814
115.552
104.731
96.7115
90.7678
86.4167
83.8323
83.169
84.3349
86.7543
89.5157
91.9361
93.8584
95.5478
96.6021
1.86116
3.50441
9.44748
17.7485
23.1012
27.664
32.2888
37.0662
43.6322
55.8824
92.4035
671.446
733.816
676.772
179.816
142.869
120.835
106.678
97.1447
90.5914
86.0344
83.1895
82.218
83.1841
85.7566
89.0533
92.107
94.41
96.1736
97.027
1.89186
3.79456
10.1494
18.5412
23.6359
27.7415
31.7637
36.1013
42.7636
57.4527
108.597
656.782
634.891
771.071
168.874
132.088
111.317
98.9117
91.0144
85.7475
82.1908
80.0808
79.484
80.646
83.5495
87.5206
91.4963
94.5884
96.8006
97.6469
1.92591
4.09873
10.829
19.2862
24.1836
27.7818
31.1808
35.0863
41.1878
54.5608
86.1755
311.493
436.488
422.414
125.498
108.04
96.8136
89.5931
84.813
81.4335
78.9641
77.3868
76.9791
78.1311
81.0724
85.4258
90.2082
94.2129
97.1271
98.1557
1.96451
4.40745
11.4886
20.0001
24.7365
27.8414
30.6606
34.1098
39.3161
48.4043
65.1946
98.3198
113.951
115.925
100.57
94.4347
88.7519
84.6715
81.7398
79.4649
77.6657
76.347
75.8222
76.7168
79.3412
83.6086
88.7469
93.4289
97.0471
98.3439
2.00856
4.72829
12.1352
20.6688
25.2672
27.9529
30.3032
33.3199
37.7378
44.4997
54.7367
67.6614
81.4962
92.9118
93.7793
89.3362
85.1224
82.192
80.0813
78.4568
77.2111
76.2543
75.8264
76.5925
78.8352
82.6806
87.6639
92.556
96.6106
98.0964
2.05935
5.06219
12.7871
21.3201
25.7682
28.1244
30.1321
32.7867
36.8453
43.3612
53.1027
67.1164
84.7132
93.1423
90.4821
85.6477
82.2756
80.1543
78.8051
77.8853
77.3118
76.9078
76.9287
77.7797
79.6967
82.9586
87.3724
91.916
95.957
97.3735
2.11633
5.40547
13.4255
21.9397
26.2343
28.3372
30.1098
32.5363
36.7805
44.6921
57.3965
75.1003
89.7852
90.6134
86.5583
82.3704
79.8547
78.7193
78.3849
78.3747
78.6396
78.9998
79.6294
80.5519
82.0606
84.5871
88.0947
91.734
95.2579
96.2017
2.17345
5.71942
13.9925
22.498
26.67
28.5804
30.1957
32.5318
37.4938
48.3426
65.8748
83.7137
89.6653
87.3103
83.7599
80.155
78.4741
78.5761
79.5983
80.8687
82.3098
83.5755
84.4869
85.1553
86.0394
87.5991
89.8267
92.0969
94.7064
94.7474
2.21818
5.95232
14.4295
22.962
27.081
28.8429
30.3278
32.6917
38.977
54.1782
75.4095
87.447
87.532
85.314
82.0587
78.7791
78.1512
79.7157
82.3538
85.3507
87.8436
89.4946
90.3736
90.6952
90.9218
91.3444
92.0535
92.9527
94.5386
93.5148
2.23015
6.02422
14.6284
23.2507
27.42
29.0707
30.3929
32.9175
41.2304
61.1692
82.4159
87.2388
85.7915
83.7773
80.3018
77.1977
77.3507
79.8901
83.3213
86.5931
89.1323
90.8819
91.8864
92.3469
92.5642
92.7682
93.1583
93.8811
94.9403
93.0201
2.18826
5.85064
14.4621
23.2182
27.5181
29.07
30.2383
32.9849
43.284
66.1435
84.0454
85.3093
83.8395
81.6451
77.4016
73.9226
73.6177
75.1739
77.3565
79.6078
81.7392
83.5875
85.2298
86.7863
88.3705
90.0491
91.8297
93.5816
94.7016
92.1938
1.78078
1.80973
2.76003
7.28442
15.1386
22.2281
27.2753
32.2058
36.6137
40.5936
44.1291
47.2783
50.124
52.7589
55.2985
57.8881
60.6905
63.8386
67.3363
71.0794
74.8917
78.6001
82.0756
85.241
88.0641
90.5542
92.7443
94.6253
96.1714
96.9139
1.7815
1.86673
3.42124
8.98864
17.2211
23.8535
28.7802
33.6672
38.1005
42.0605
45.5462
48.6272
51.3967
53.9438
56.3781
58.8299
61.4491
64.3751
67.6417
71.1893
74.8666
78.4963
81.927
85.0594
87.8476
90.2962
92.4441
94.2936
95.8301
96.6174
1.78312
1.99534
4.42564
11.1346
19.6703
25.6897
30.7077
35.6013
40.0616
43.9873
47.4092
50.4119
53.0913
55.5292
57.8181
60.0589
62.3725
64.8923
67.6917
70.7777
74.0686
77.4259
80.697
83.7548
86.5206
88.9756
91.1433
93.0344
94.6397
95.5423
1.78703
2.25189
5.74356
13.5018
22.0682
27.4655
32.6518
37.5888
42.0349
45.9141
49.2938
52.274
54.9303
57.3212
59.5074
61.55
63.5325
65.5736
67.7844
70.2481
72.9756
75.9041
78.9075
81.8375
84.5718
87.0557
89.283
91.2688
93.0004
94.0596
1.79733
2.65219
7.22995
15.7992
24.1205
29.1948
34.3871
39.2807
43.6509
47.484
50.9152
54.063
56.921
59.4586
61.6848
63.6118
65.2864
66.8168
68.3548
70.0795
72.1062
74.4729
77.1055
79.8433
82.5142
85.0046
87.2849
89.361
91.2232
92.4341
1.83462
3.17276
8.7568
17.8629
25.7313
30.6862
35.7433
40.4669
44.7007
48.5373
52.2997
56.1554
59.7577
62.8636
65.3592
67.2284
68.5313
69.4177
70.1097
70.9055
72.0573
73.7073
75.8467
78.3061
80.8491
83.2805
85.5509
87.6505
89.5849
90.8875
1.89142
3.75989
10.2288
19.6506
26.9691
31.806
36.6233
41.0708
45.1357
49.1513
54.0103
60.0537
65.7484
70.215
73.0211
74.4464
74.8562
74.5827
73.9851
73.468
73.4539
74.1568
75.6294
77.6937
80.0034
82.2778
84.4316
86.4367
88.3257
89.6081
1.96712
4.36475
11.6018
21.1978
27.9519
32.5878
37.0478
41.1252
45.0457
49.6551
57.5656
70.031
81.1023
87.981
89.2477
87.9535
85.7145
83.0383
80.3421
77.9877
76.3626
75.8023
76.3873
77.9619
80.073
82.2326
84.2027
85.9717
87.6509
88.7623
2.05799
4.95749
12.8366
22.5252
28.766
33.1112
37.1002
40.7324
44.5995
50.454
60.0062
90.1401
118.242
130.456
114.863
106.107
98.4565
91.9729
86.6478
82.4569
79.3766
77.6389
77.3452
78.4237
80.4126
82.633
84.6203
86.2564
87.7107
88.5301
2.16278
5.5517
13.9692
23.6806
29.4879
33.4572
36.8899
40.0263
43.8704
51.3594
66.2562
116.061
158.81
174.967
131.266
115.713
103.681
94.7458
88.2095
83.4791
80.1165
78.0592
77.4262
78.2952
80.3462
82.859
85.1478
86.8786
88.2205
88.7451
2.28212
6.14997
15.0655
24.7624
30.1734
33.7077
36.5428
39.176
42.9393
50.9965
68.9034
114.841
155.25
177.446
124.814
109.657
98.4459
90.6361
85.2374
81.4167
78.7211
77.0402
76.505
77.3834
79.6074
82.5608
85.3895
87.472
88.8857
89.1737
2.41865
6.76222
16.1438
25.7983
30.8478
33.9238
36.1823
38.3978
41.828
48.9543
63.449
99.3579
128.053
135.993
104.749
96.7363
90.2064
85.4283
82.0163
79.4228
77.4265
76.0181
75.4798
76.2765
78.5485
81.8482
85.2511
87.8278
89.4693
89.5975
2.57156
7.39734
17.1963
26.7623
31.4915
34.144
35.9066
37.7843
40.8144
46.5258
56.9572
71.071
82.7673
90.7775
92.2671
89.3777
85.7116
82.6935
80.2766
78.291
76.6976
75.484
74.8906
75.5448
77.7073
81.1314
84.9235
87.9271
89.8283
89.8365
2.73949
8.04354
18.1914
27.6529
32.0922
34.391
35.7969
37.4363
40.2977
45.5028
54.0324
65.6916
78.9441
88.5999
89.6602
86.4635
83.241
80.6869
78.6835
77.1342
76.0155
75.1752
74.7669
75.4337
77.4866
80.8395
84.7164
87.8819
89.9116
89.7592
2.91789
8.67141
19.1424
28.4947
32.6645
34.6759
35.8594
37.4011
40.508
46.7114
56.6799
70.4429
84.6403
89.3573
86.4072
82.7414
80.0676
78.1425
76.8163
75.9556
75.5363
75.2704
75.3212
76.1863
78.182
81.3227
84.9355
87.8464
89.7304
89.2855
3.10354
9.29063
20.0582
29.2811
33.2092
34.9929
36.0467
37.6645
41.5814
50.4516
64.0366
78.8897
86.4948
84.5766
80.8498
78.3402
76.7522
75.8914
75.5991
75.6519
76.0478
76.4718
77.1252
78.2368
80.1351
82.8512
85.7777
87.9365
89.3436
88.4261
3.28145
9.85921
20.8929
30.0023
33.7271
35.3315
36.3274
38.1128
43.5851
56.6025
73.1227
82.6704
82.2066
78.9073
76.3797
74.9902
74.5606
74.965
75.9214
77.0945
78.4176
79.711
80.8816
82.1173
83.6909
85.5409
87.189
88.1729
88.8877
87.3821
3.41462
10.2934
21.5785
30.6257
34.21
35.6774
36.6519
38.7489
46.6066
64.466
79.4653
80.6257
77.5351
74.9162
73.3125
72.8077
73.5012
75.2091
77.5465
80.1072
82.5243
84.5315
86.0732
87.1885
87.9786
88.4196
88.5582
88.5254
88.5969
86.6645
3.45406
10.4894
22.0097
31.091
34.6188
35.9852
36.9293
39.5555
50.5683
71.971
80.7136
77.09
73.8975
71.8569
70.7788
70.8541
72.2925
74.8218
77.9962
81.1776
83.9207
86.0823
87.5611
88.3806
88.6958
88.6903
88.5818
88.5118
88.409
86.2832
3.34647
10.3223
22.0217
31.2124
34.7374
36.0558
36.9318
40.1986
53.9929
75.7274
78.0907
73.7903
70.8974
69.0893
68.0152
67.9946
69.1778
71.2394
73.6642
76.1347
78.4863
80.5081
82.1972
83.6042
84.8038
85.8555
86.7736
87.438
87.4518
85.1686
1.78415
1.90653
3.78012
9.9706
18.8903
26.1678
31.0941
35.5893
39.5365
42.9858
46.0292
48.7646
51.2887
53.705
56.1365
58.7215
61.5796
64.7649
68.2055
71.7686
75.3035
78.6794
81.7938
84.5736
86.9798
89.0215
90.7448
92.1778
93.3247
93.7859
1.7857
2.04837
4.76954
11.9801
21.1764
28.0909
32.8047
37.2237
41.1143
44.4988
47.4674
50.1218
52.5609
54.8828
57.1972
59.6257
62.2811
65.2346
68.4508
71.834
75.2455
78.5463
81.6169
84.3677
86.7475
88.7579
90.4469
91.8547
92.9971
93.505
1.79068
2.35414
6.23504
14.6213
24.0229
30.3496
35.0153
39.3831
43.204
46.4976
49.3595
51.8994
54.2178
56.4012
58.5358
60.7119
63.0204
65.5401
68.285
71.2248
74.2768
77.3276
80.2536
82.9417
85.3121
87.3425
89.0699
90.5375
91.767
92.4085
1.81381
2.8852
8.07986
17.5025
26.8046
32.4603
37.2165
41.5476
45.2876
48.4796
51.2393
53.6923
55.9302
58.0145
59.9968
61.9268
63.8624
65.8792
68.0367
70.3814
72.915
75.5828
78.275
80.8562
83.208
85.2741
87.0759
88.6528
90.0304
90.8517
1.87333
3.61737
10.0901
20.2515
29.1942
34.3572
39.1335
43.3615
46.974
50.053
52.7632
55.2561
57.5771
59.7226
61.6865
63.4662
65.082
66.6017
68.124
69.7867
71.6947
73.8806
76.2652
78.6933
80.9973
83.0759
84.9346
86.6073
88.13
89.1207
1.98201
4.49856
12.1131
22.7092
31.1244
36.0222
40.6279
44.6347
48.047
51.0173
53.8312
56.688
59.4675
62.0093
64.1913
65.9509
67.2859
68.2838
69.1069
69.99
71.1613
72.765
74.7635
76.9828
79.1916
81.23
83.0794
84.7768
86.3746
87.4637
2.14657
5.46006
14.0593
24.85
32.6475
37.3375
41.631
45.299
48.4434
51.3672
54.651
58.5923
62.5793
66.0792
68.7196
70.4467
71.3508
71.627
71.557
71.4923
71.7789
72.6729
74.1832
76.1186
78.1726
80.105
81.8533
83.4625
85.0153
86.0804
2.3565
6.43666
15.8751
26.7148
33.8716
38.3025
42.1654
45.3866
48.2218
51.2601
55.7492
62.1968
68.6438
73.7736
76.7173
77.8821
77.7676
76.8331
75.5494
74.3507
73.6263
73.7013
74.6333
76.2344
78.1194
79.9146
81.4845
82.8789
84.237
85.1168
2.6012
7.40595
17.5265
28.3502
34.9015
38.986
42.3134
45.0006
47.5229
50.9162
57.5574
68.2712
78.4435
85.1967
87.6783
87.1076
84.9815
82.2726
79.6196
77.3951
75.8359
75.2057
75.5858
76.8532
78.6096
80.3531
81.8166
82.9988
84.095
84.6746
2.87449
8.38078
19.0639
29.7805
35.8016
39.4647
42.187
44.2957
46.5256
50.4733
58.9239
72.5406
86.1071
93.9507
95.4255
92.7593
88.7236
84.7832
81.4909
78.9499
77.1772
76.2708
76.3257
77.364
79.0825
80.9204
82.4421
83.517
84.3708
84.5955
3.17481
9.36274
20.5497
31.1092
36.6233
39.8189
41.9161
43.4706
45.4891
49.6391
58.5389
72.3023
85.8908
93.5678
94.5192
91.4364
87.4512
83.9369
81.178
79.084
77.5731
76.6657
76.5594
77.4468
79.1892
81.2468
83.0087
84.1354
84.8294
84.6955
3.50219
10.3548
21.9972
32.3606
37.3977
40.1129
41.6281
42.7651
44.5518
48.4484
56.4553
68.4393
79.3684
86.4422
88.6236
87.2712
84.9029
82.6008
80.6575
79.0139
77.6905
76.7558
76.4648
77.1963
78.9462
81.2478
83.3467
84.6442
85.2656
84.7956
3.8563
11.3669
23.3993
33.498
38.1084
40.3821
41.4203
42.289
43.9716
47.6611
54.6544
64.4969
74.4463
82.3443
85.7964
85.6109
83.9348
81.9869
80.1267
78.546
77.329
76.482
76.1652
76.8455
78.6125
81.102
83.488
84.9529
85.5318
84.7415
4.23384
12.3826
24.712
34.5412
38.7638
40.6554
41.3834
42.1415
44.0385
48.2611
55.4451
65.3369
76.4746
84.5104
86.5443
85.0592
82.7552
80.441
78.517
77.1423
76.3284
75.8711
75.8304
76.6554
78.5016
81.0927
83.5858
85.0663
85.5376
84.4155
4.62363
13.3605
25.9579
35.5009
39.3679
40.9454
41.5107
42.352
44.9621
50.9647
60.3596
72.0789
82.5813
86.0948
84.4166
81.8104
79.3612
77.3598
76.0305
75.3473
75.2675
75.422
75.8822
77.0024
78.9626
81.5122
83.8165
85.0231
85.2405
83.7564
5.01024
14.3029
27.1477
36.3814
39.9287
41.2586
41.7687
42.9109
46.8499
56.1728
68.5619
79.0399
82.8526
81.037
78.4655
76.6003
75.1701
74.2983
74.0725
74.3456
75.094
75.9321
76.9776
78.4227
80.4108
82.6084
84.2732
84.8468
84.6592
82.8157
5.36964
15.1642
28.2354
37.1779
40.4504
41.592
42.1202
43.7335
49.8728
63.4286
75.8467
79.2903
77.1552
74.5891
73.1186
72.383
72.2015
72.6352
73.6349
74.9739
76.5665
78.1757
79.746
81.3771
83.0253
84.2731
84.8009
84.547
83.9173
81.8646
5.64104
15.8603
29.1747
37.8746
40.9237
41.9262
42.5314
44.7807
53.9906
71.0346
78.2333
74.8808
71.6899
69.8565
69.3467
69.5632
70.4818
72.1038
74.2922
76.7461
79.2245
81.4436
83.2809
84.5988
85.2861
85.3075
84.833
84.0504
83.1802
81.1571
5.7514
16.2763
29.8654
38.4085
41.292
42.1953
42.9299
46.0781
58.7947
76.6813
75.9233
70.4508
67.5152
66.3802
66.4793
67.3298
68.939
71.2552
74.1056
77.0608
79.719
81.8673
83.3783
84.1931
84.3964
84.1612
83.6743
83.0561
82.2988
80.3753
5.60666
16.235
30.0744
38.5397
41.3016
42.186
43.0079
47.1723
62.4397
78.0334
72.4075
66.9632
64.4192
63.6179
63.8611
64.7458
66.2497
68.2886
70.6504
73.041
75.3127
77.2505
78.773
79.8991
80.6854
81.1885
81.4466
81.4088
80.869
78.9389
1.78838
2.10785
5.09456
12.7539
22.4353
29.8851
34.6756
39.0092
42.7024
45.8677
48.6444
51.1615
53.5374
55.8902
58.3438
61.0124
63.9621
67.1857
70.5799
74.0213
77.3903
80.5778
83.4809
86.0085
88.1031
89.7669
91.059
92.0438
92.763
92.9268
1.79325
2.39551
6.4203
15.0918
25.0305
32.1845
36.6992
40.8541
44.4183
47.4722
50.1442
52.5602
54.8346
57.0748
59.3884
61.8756
64.6044
67.5916
70.7675
74.0363
77.2845
80.3978
83.262
85.7729
87.8593
89.5124
90.79
91.7638
92.4922
92.7079
1.82024
2.96708
8.41361
18.3026
28.3369
34.8693
39.2617
43.2724
46.6948
49.5998
52.1146
54.3696
56.4777
58.5313
60.6128
62.7951
65.1345
67.6665
70.3724
73.2136
76.1217
79.0019
81.7363
84.1998
86.2948
87.9895
89.3335
90.3969
91.2464
91.6239