/*--------------------------------*- C++ -*----------------------------------*\
| =========                 |                                                 |
| \\      /  F ield         | OpenFOAM: The Open Source CFD Toolbox           |
|  \\    /   O peration     | Version:  2512                                  |
|   \\  /    A nd           | Website:  www.openfoam.com                      |
|    \\/     M anipulation  |                                                 |
\*---------------------------------------------------------------------------*/
FoamFile
{
    version     2.0;
    format      ascii;
    arch        "LSB;label=32;scalar=64";
    class       volScalarField;
    location    "100";
    object      p;
}
// * * * * * * * * * * * * * * * * * * * * * * * * * * * * * * * * * * * * * //

dimensions      [0 2 -2 0 0 0 0];

internalField   nonuniform List<scalar> 
84826
(
74.2988
74.2928
74.2919
74.2871
74.2536
74.1516
73.9134
73.429
72.5482
71.1108
69.0162
66.3481
63.6047
61.6694
61.2363
62.0943
63.4264
64.6567
65.6432
66.3167
66.4891
65.9284
64.4141
61.6694
57.0777
49.6593
38.5
25.4755
12.7113
4.09625
74.3128
74.3098
74.3168
74.3266
74.3163
74.2491
74.0589
73.6317
72.8002
71.3644
69.1646
66.2295
63.1469
61.0274
60.6957
61.7791
63.257
64.5226
65.5023
66.1761
66.3723
65.8528
64.3642
61.5897
56.9814
49.7541
39.006
26.3613
13.6833
4.71568
74.3393
74.342
74.3647
74.4032
74.4392
74.4426
74.3525
74.0492
73.3331
71.9178
69.508
65.9826
62.1443
59.6451
59.5805
61.1761
62.9524
64.2586
65.1917
65.8406
66.061
65.6082
64.1874
61.4153
56.8346
49.8303
39.5501
27.4257
14.8622
5.62078
74.3761
74.3872
74.4324
74.5125
74.6175
74.7296
74.7999
74.7081
74.2098
72.8762
70.1523
65.5741
60.3957
57.2975
57.7792
60.3054
62.621
64.0258
64.881
65.4248
65.568
65.0979
63.7184
60.9887
56.4668
49.6576
39.8854
28.4112
16.0345
6.73532
74.4201
74.4416
74.5147
74.6475
74.8424
75.1023
75.4036
75.6414
75.5292
74.4325
71.3065
64.8745
57.4678
53.6475
55.1758
59.102
62.1378
63.7315
64.5897
65.0281
64.9946
64.3633
62.9087
60.2412
55.8381
49.2348
39.991
29.1984
17.0125
7.85984
74.4671
74.5002
74.6048
74.7981
75.1
75.5453
76.1571
76.8825
77.4213
76.9003
73.3715
63.7429
52.5713
48.1124
51.9085
58.0265
61.7928
63.4737
64.3655
64.7355
64.4792
63.5384
61.7673
58.8972
54.5257
48.1833
39.5878
29.5852
17.6674
8.91959
74.5129
74.5577
74.6943
74.9508
75.3693
76.0292
77.0331
78.4476
80.0557
80.7469
76.9159
61.7915
44.7286
39.5229
47.1816
56.4564
61.1497
63.0168
64.0904
64.4999
64.0445
62.7253
60.5036
57.2417
52.7296
46.6532
38.7547
29.5805
17.9676
9.85872
74.553
74.6084
74.7742
75.0897
75.6219
76.5041
77.9567
80.2695
83.5895
86.9379
82.8223
65.1448
39.2639
30.2536
43.3827
55.8764
61.07
62.9104
63.9884
64.2802
63.5226
61.7591
59.0471
55.3925
50.7853
45.0871
37.9553
29.6126
18.237
10.8702
74.5832
74.6469
74.8355
75.1981
75.8239
76.899
78.7825
82.0944
87.8655
96.3463
96.1541
61.0591
19.1824
9.33306
32.3339
52.1687
60.2031
62.8152
64.0088
64.0942
62.9611
60.7699
57.6441
53.6598
48.9325
43.4846
36.9756
29.4276
18.2449
11.8997
74.6005
74.6689
74.8709
75.2612
75.9435
77.138
79.3038
83.3447
91.287
106.276
119.135
70.8215
-16.4759
-13.4968
25.3443
50.1531
60.8387
63.7137
64.4968
64.1073
62.568
60.0909
56.7694
52.6096
47.731
42.2982
36.0834
29.1128
18.0582
12.8775
74.6032
74.6722
74.876
75.2704
75.9616
77.1767
79.3927
83.5607
91.8859
108.106
129.999
99.4401
-2.19936
29.8036
52.2161
62.4098
64.5216
64.5462
63.5259
61.5167
58.764
55.3414
51.1958
46.4125
41.1907
35.3314
28.9255
17.9967
13.8795
74.5909
74.6566
74.8509
75.2261
75.8785
77.0108
79.0285
82.6712
89.3533
100.301
115.389
92.4277
-4.82394
5.29783
32.9537
56.5683
64.8277
65.6629
64.9922
63.5399
61.1922
58.178
54.6243
50.5174
45.937
41.0494
35.5359
29.5434
18.5779
15.1195
74.5651
74.6237
74.7984
75.1332
75.7049
76.6684
78.2991
81.0162
85.2835
90.6481
96.072
75.2379
25.1978
19.3587
39.47
55.3598
62.4002
64.4125
64.8225
64.01
61.9106
58.9053
55.3329
51.3364
46.9614
42.2816
36.8494
30.9442
19.7128
16.4589
74.5287
74.5775
74.7249
75.0043
75.4683
76.2171
77.4013
79.1848
81.5257
83.5124
81.4408
66.2218
42.5145
36.9824
45.3523
55.1749
60.184
61.7623
62.0359
61.5184
60.1013
57.8627
55.0532
51.8379
48.2017
44.1327
39.1539
33.7119
22.3883
18.822
74.4855
74.5231
74.6393
74.8566
75.2044
75.7338
76.5022
77.5139
78.5511
78.7439
75.9406
65.9799
51.1491
45.6909
49.9976
55.9259
59.4371
60.7532
60.9585
60.4137
59.0911
57.081
54.6335
51.8873
48.7853
45.3452
40.9696
36.2579
24.8036
21.7242
74.4401
74.4663
74.551
74.707
74.944
75.2762
75.7004
76.1409
76.3375
75.6131
72.713
65.8274
56.3107
51.3919
52.9775
56.494
58.8376
59.7845
59.8685
59.2799
58.0436
56.2668
54.1505
51.8362
49.2731
46.534
42.8677
39.0854
27.5075
25.5306
74.3969
74.4128
74.4691
74.5704
74.7119
74.8823
75.0428
75.084
74.7593
73.5842
70.8387
65.7919
59.2715
55.1279
55.2823
57.2909
58.8131
59.4175
59.3298
58.6434
57.4213
55.7896
53.9284
52.0045
49.9223
47.7717
44.6854
41.8417
30.1444
29.8846
74.3601
74.3677
74.4008
74.4582
74.5253
74.5743
74.5474
74.3251
73.6925
72.3058
69.748
65.7464
60.932
57.4934
56.8794
57.8564
58.7475
59.032
58.783
58.0488
56.8713
55.3553
53.6916
52.1083
50.437
48.7533
46.0599
44.1188
32.4184
34.5848
74.3332
74.3355
74.3524
74.3793
74.3957
74.3647
74.2188
73.8386
73.0361
71.5557
69.1425
65.7336
61.8569
58.8796
57.8717
58.2364
58.7483
58.8548
58.5386
57.8105
56.6707
55.2062
53.6512
52.2979
50.8967
49.4833
46.9793
45.5944
33.7292
38.7951
74.3182
74.3182
74.3269
74.3383
74.3292
74.2584
74.0551
73.6011
72.7233
71.2082
68.8738
65.7368
62.2692
59.5077
58.3394
58.4257
58.7566
58.7743
58.42
57.6858
56.5478
55.0904
53.5957
52.3865
51.129
49.8359
47.4103
46.4789
34.4243
42.1936
74.2869
74.2802
74.2772
74.2689
74.2305
74.1228
73.8792
73.3925
72.5168
71.0961
69.0331
66.4174
63.7304
61.8247
61.3909
62.2324
63.5459
64.7657
65.7611
66.4722
66.7081
66.2117
64.6799
61.7536
56.638
47.637
34.754
21.4445
9.52099
2.5147
74.3007
74.2968
74.3017
74.3076
74.2919
74.2179
74.0207
73.589
72.761
71.3438
69.183
66.3137
63.2956
61.2015
60.8652
61.9329
63.3882
64.6329
65.6097
66.3122
66.5681
66.1124
64.5897
61.5716
56.3942
47.725
35.3927
22.3602
10.417
2.78405
74.3268
74.3285
74.3487
74.3824
74.4116
74.4061
74.3055
73.9931
73.2765
71.8824
69.5276
66.1055
62.3535
59.8661
59.7741
61.338
63.083
64.3709
65.306
65.9753
66.2312
65.8125
64.3267
61.255
56.0659
47.7595
36.0772
23.4747
11.4946
3.32342
74.363
74.3729
74.415
74.4893
74.5853
74.6849
74.739
74.6297
74.1229
72.8148
70.1737
65.7649
60.7254
57.6228
58.0273
60.458
62.7031
64.114
65.0317
65.6315
65.7886
65.2909
63.7925
60.734
55.5925
47.6115
36.5968
24.5641
12.6044
4.16355
74.4063
74.4262
74.4956
74.6211
74.8042
75.0463
75.3223
75.5294
75.3952
74.3287
71.3411
65.1774
58.0034
54.1582
55.5296
59.2327
62.083
63.6698
64.6746
65.2676
65.2934
64.6208
63.0383
60.0809
55.0792
47.4065
36.9947
25.5404
13.5822
5.16005
74.4527
74.4837
74.5835
74.7678
75.0545
75.4748
76.0481
76.7219
77.2162
76.7373
73.456
64.2267
53.3815
48.8709
52.4498
58.3249
61.7633
63.2797
64.2351
64.7601
64.6027
63.6647
61.8319
58.8244
54.0424
46.7945
37.0612
26.2551
14.3288
6.24407
74.4978
74.5401
74.671
74.9161
75.3153
75.9418
76.8897
78.2249
79.7493
80.5277
77.1478
62.5287
45.9735
40.2307
47.3843
57.1703
61.8452
63.4693
64.3487
64.6592
64.1343
62.743
60.4644
57.1611
52.4945
45.8151
36.928
26.8685
15.0016
7.47573
74.5372
74.5898
74.749
75.051
75.5584
76.3962
77.7711
79.9731
83.1793
86.6895
83.76
65.5257
41.298
30.5066
41.9977
55.6171
61.2323
63.0747
64.0279
64.1837
63.3238
61.4809
58.7139
55.0285
50.3658
44.3164
36.4736
27.4078
15.7496
8.98232
74.5669
74.6275
74.8089
75.1564
75.753
76.7708
78.5507
81.7052
87.3729
96.6918
98.6546
65.3964
26.8193
8.76367
37.9115
56.6797
62.6973
64.0512
64.5548
64.2113
62.8535
60.5351
57.3111
53.2199
48.2977
42.4031
35.2849
27.2508
15.9546
10.379
74.5839
74.6491
74.8434
75.2176
75.8686
77.0001
79.0409
82.8706
90.7069
108.029
132.644
-5.39061
-41.6341
-40.0797
30.0737
54.8662
63.0121
64.5279
64.7202
64.0135
62.3077
59.72
56.2691
51.8947
46.6486
40.6817
33.9511
26.6692
15.6195
11.4576
74.5864
74.6522
74.8485
75.2266
75.886
77.0365
79.1243
83.0718
91.2652
109.733
147.773
-9.36007
29.7153
53.0888
61.7172
63.2414
63.2036
62.248
60.3247
57.6299
54.174
49.8681
44.794
39.1735
32.9571
26.3505
15.4483
12.5346
74.5742
74.6368
74.8241
75.1838
75.8048
76.8757
78.7812
82.2419
88.7651
100.502
122.431
85.8963
-8.6007
-11.3246
33.6262
56.2842
63.3473
63.8654
63.2132
61.8567
59.6218
56.6802
53.0779
48.7919
43.9279
38.7405
33.1488
27.2859
16.4706
14.1952
74.5488
74.6045
74.7724
75.0928
75.6373
76.551
78.0929
80.6708
84.759
90.1873
97.6218
75.7931
22.7473
16.3484
39.6083
56.2145
62.6299
64.0374
64.1609
63.2965
61.2636
58.3182
54.6994
50.5638
45.9384
40.9969
35.59
29.8969
18.6833
16.2591
74.5128
74.5591
74.7001
74.9671
75.4093
76.1199
77.2366
78.9138
81.1112
83.0745
81.2891
66.3331
42.9072
37.6672
45.6035
55.6255
60.2737
61.5653
61.7574
61.2308
59.85
57.6838
54.9722
51.8253
48.1745
43.9726
38.7569
32.9828
21.1124
18.4483
74.4702
74.5055
74.6164
74.8237
75.1539
75.6534
76.3731
77.311
78.26
78.4203
75.8017
66.1907
51.656
46.3576
50.4636
56.2747
59.5482
60.6909
60.8398
60.2877
58.9938
57.0516
54.6925
51.9033
48.5529
44.7241
39.9019
34.7674
22.6521
20.6425
74.4254
74.4497
74.5301
74.6778
74.9008
75.2107
75.6016
75.9954
76.1417
75.4039
72.6019
65.9463
56.6945
51.8839
53.3357
56.7083
58.9218
59.7641
59.7969
59.1906
57.9487
56.1655
54.0253
51.5944
48.7527
45.6049
41.3988
37.0757
24.6445
23.5044
74.3827
74.3971
74.4498
74.5442
74.6748
74.8291
74.967
74.9796
74.6287
73.4523
70.7617
65.8682
59.5278
55.4686
55.5607
57.4634
58.8921
59.4238
59.3017
58.6076
57.3724
55.7029
53.7743
51.6884
49.2628
46.636
42.9055
39.3572
26.5527
26.5963
74.3465
74.3529
74.3829
74.4346
74.493
74.5301
74.4878
74.2484
73.6033
72.2219
69.7022
65.7976
61.0991
57.7261
57.0865
57.9906
58.8154
59.0544
58.7804
58.0313
56.8256
55.2484
53.5035
51.762
49.7224
47.5084
44.0246
41.0745
27.9541
29.602
74.3199
74.3211
74.3353
74.3574
74.3667
74.3264
74.1694
73.7787
72.9711
71.4988
69.1153
65.7702
61.9729
59.0473
58.0339
58.3513
58.8136
58.883
58.5393
57.7887
56.6167
55.0912
53.4587
51.9424
50.143
48.1614
44.754
42.0274
28.4373
31.5679
74.3051
74.3041
74.3103
74.3172
74.3017
74.2229
74.0104
73.549
72.6692
71.1628
68.8538
65.7675
62.3642
59.6479
58.4821
58.5313
58.8181
58.8019
58.422
57.666
56.4968
54.9844
53.4204
52.029
50.3503
48.4644
45.0231
42.4893
28.6067
33.114
74.2627
74.2541
74.2461
74.2295
74.1799
74.0587
73.801
73.3046
72.4321
71.0375
69.0333
66.5189
63.9464
62.1098
61.6788
62.4874
63.7726
64.9924
66.0318
66.8466
67.254
66.9378
65.4648
62.625
56.9723
45.1782
29.3475
15.7476
5.29843
0.810293
74.2762
74.2702
74.2697
74.2665
74.2384
74.1489
73.9346
73.4889
72.66
71.2678
69.1764
66.4353
63.5506
61.5178
61.1665
62.195
63.6236
64.8702
65.8858
66.6773
67.0834
66.7828
65.2659
62.2167
56.5525
45.493
30.4956
17.0174
6.29261
0.815218
74.3014
74.3008
74.3148
74.338
74.3522
74.3268
74.2022
73.8668
73.1384
71.7683
69.5064
66.2788
62.7209
60.2656
60.0946
61.5796
63.2939
64.6087
65.611
66.3692
66.7361
66.4147
64.8791
61.6684
55.98
45.5536
31.5064
18.3421
7.34951
0.977445
74.3365
74.3436
74.3785
74.4401
74.5171
74.5898
74.6085
74.4591
73.9217
72.6335
70.1217
66.0317
61.301
58.176
58.3921
60.6527
62.8204
64.2913
65.3523
66.0902
66.3395
65.8797
64.2937
60.9787
55.2617
45.3812
32.3229
19.6407
8.4653
1.48183
74.3784
74.3949
74.4557
74.5657
74.7243
74.9295
75.1527
75.2923
75.0956
74.0376
71.2427
65.6555
58.9264
54.9031
55.9607
59.3973
62.065
63.6866
64.8865
65.6902
65.8526
65.2313
63.6215
60.3866
54.6497
45.2301
33.0602
20.8783
9.50869
2.27369
74.4232
74.4503
74.54
74.7054
74.9606
75.3306
75.8251
76.3894
76.7679
76.2654
73.3084
65.1415
54.9561
49.6766
52.9011
58.633
61.8476
63.2915
64.3324
65.0141
64.9997
64.1636
62.4135
59.3466
53.8642
45.0041
33.6739
22.0185
10.4523
3.32472
74.4668
74.5045
74.6236
74.8464
75.2063
75.7656
76.5992
77.7605
79.0701
79.7478
77.0303
64.5377
48.4533
40.3736
47.0065
57.3261
62.1471
63.7723
64.5758
64.8363
64.3055
62.9147
60.641
57.3285
52.2295
44.3488
34.1332
23.1618
11.4304
4.66088
74.5048
74.552
74.6977
74.9737
75.435
76.1877
77.4068
79.3433
82.1509
85.304
82.9554
67.3417
45.5046
31.2929
41.5683
54.977
60.6676
62.714
63.7024
63.8491
63.0098
61.1684
58.3511
54.5178
49.483
42.7
34.0252
24.1826
12.5033
6.31196
74.5335
74.5882
74.7544
75.0722
75.6146
76.5322
78.1133
80.8934
85.8818
94.1822
97.1022
66.3971
33.0267
10.4591
40.3344
56.9622
62.0404
63.3385
63.9505
63.7019
62.475
60.2204
56.9081
52.5206
47.1591
40.8048
33.262
24.6131
13.2048
7.98212
74.5498
74.6088
74.7873
75.1294
75.7196
76.7367
78.5468
81.9152
88.8318
104.092
130.829
-30.3638
-2.56853
-20.2049
34.8998
56.7928
63.0575
64.1978
64.449
63.8519
62.2693
59.723
56.1505
51.4903
45.9395
39.6865
32.6304
24.7476
13.5355
9.508
74.5521
74.6117
74.7918
75.1384
75.7393
76.7739
78.6205
82.0889
89.3172
105.687
145.559
-12.7076
31.5694
54.7169
62.0494
63.4317
63.6279
62.8862
61.1286
58.4687
54.9017
50.3951
45.1584
39.3147
32.667
25.2892
14.0836
11.0823
74.5401
74.5967
74.7687
75.0986
75.6651
76.6295
78.3168
81.3569
87.0812
97.5813
120.577
65.8262
-13.174
5.19219
35.8964
56.9815
63.3144
64.037
63.773
62.669
60.6598
57.8298
54.2744
50.0183
45.2736
40.0715
34.0036
27.089
15.6417
13.0633
74.5153
74.5655
74.7192
75.0123
75.5064
76.3259
77.6908
79.9485
83.5004
88.2475
95.8119
77.2963
20.9832
17.2309
41.3738
57.0506
62.589
63.7367
63.8614
63.0806
61.3018
58.6885
55.4149
51.5859
47.3339
42.6653
36.8907
30.0062
17.8812
15.1979
74.4804
74.5216
74.6499
74.8924
75.2911
75.925
76.9062
78.3593
80.2256
81.8306
80.1231
66.658
44.5244
39.0589
46.1409
55.9655
60.2743
61.4648
61.6896
61.1615
59.8085
57.7428
55.1209
51.9219
48.2382
44.0327
38.5412
31.9558
19.3967
17.0796
74.439
74.4699
74.5696
74.7557
75.05
75.4901
76.1116
76.9007
77.6544
77.6367
75.1222
66.2383
52.6554
47.4789
51.0728
56.6079
59.6126
60.6204
60.766
60.2303
58.9784
57.1081
54.7072
51.6735
48.1623
44.1092
38.7182
32.7168
19.9515
18.7432
74.3954
74.4159
74.4866
74.6165
74.8107
75.0756
75.3981
75.6952
75.7286
74.9114
72.1955
65.9706
57.2981
52.7059
53.8712
56.9785
59.0015
59.7316
59.7397
59.1361
57.8809
56.0627
53.8408
51.1669
47.9608
44.1779
39.0326
33.7353
20.6337
20.5793
74.354
74.3651
74.4094
74.489
74.5966
74.717
74.8075
74.7585
74.344
73.1373
70.518
65.8782
59.912
56.0256
55.9779
57.6836
58.9659
59.4076
59.2603
58.5687
57.3086
55.5668
53.5072
51.0991
48.0617
44.4949
39.583
34.8183
21.2654
22.2777
74.3188
74.3224
74.3451
74.3842
74.424
74.4352
74.3592
74.0812
73.4014
72.0128
69.5536
65.8194
61.3542
58.1108
57.4114
58.1847
58.9042
59.079
58.7764
58.011
56.7564
55.0761
53.1823
51.1117
48.3351
44.9266
40.2491
35.8503
21.9076
23.564
74.293
74.2917
74.2993
74.3104
74.304
74.2428
74.0607
73.6441
72.8181
71.3494
69.0172
65.7926
62.1508
59.3286
58.3001
58.5297
58.9081
58.9203
58.5384
57.7564
56.5275
54.8958
53.1159
51.2567
48.669
45.4313
40.9844
36.9529
23.0861
23.8123
74.2786
74.2752
74.2752
74.2719
74.242
74.1447
73.9109
73.4292
72.5385
71.0409
68.7769
65.7882
62.5108
59.8845
58.7213
58.7007
58.9124
58.8431
58.4248
57.6344
56.4076
54.7963
53.1017
51.3366
48.8714
45.8551
41.6536
38.0885
24.1921
24.2349
74.2277
74.216
74.2002
74.171
74.1046
73.963
73.6838
73.1705
72.2984
70.9377
69.0187
66.6487
64.2426
62.5172
62.0957
62.8563
64.1091
65.3495
66.4688
67.4381
68.0912
67.9867
66.7086
64.2707
57.3329
42.4648
25.0916
11.9734
2.375
-0.382689
74.2405
74.2313
74.2224
74.2057
74.1589
74.0462
73.8057
73.3374
72.5027
71.1421
69.1457
66.5803
63.8982
61.9793
61.6085
62.5669
63.9664
65.251
66.3537
67.2804
67.8869
67.7429
66.3131
63.5812
57.0473
43.4174
26.7477
13.4445
3.55293
-0.34864
74.2645
74.2602
74.2649
74.2725
74.2644
74.2097
74.0495
73.6782
72.9289
71.584
69.4392
66.4668
63.2049
60.871
60.6029
61.9423
63.6
64.974
66.0979
67.001
67.5327
67.3148
65.7736
62.7785
56.4875
43.9261
28.1861
14.934
4.69794
-0.32806
74.2979
74.3007
74.3247
74.3677
74.4169
74.4507
74.4179
74.2095
73.6217
72.3418
69.9792
66.3067
62.0683
59.0673
59.0569
61.0489
63.0785
64.5801
65.7774
66.693
67.1279
66.7898
65.1666
61.8985
55.646
43.9123
29.2827
16.3248
5.8588
-0.0941079
74.3377
74.3494
74.3973
74.4847
74.608
74.7604
74.9078
74.9494
74.652
73.5645
70.9558
66.1248
60.2591
56.2348
56.8138
59.832
62.2988
63.9043
65.1927
66.1611
66.5451
66.1482
64.6193
61.1782
54.7027
43.5849
30.094
17.5523
6.90416
0.409692
74.3803
74.4017
74.4764
74.6145
74.8251
75.1241
75.5083
75.9129
76.0978
75.4742
72.7722
66.1459
57.6273
51.7402
53.8982
58.8591
61.8439
63.3369
64.4693
65.2945
65.5326
65.035
63.5672
60.2213
53.6111
43.1052
30.6784
18.6208
7.82762
1.19946
74.4216
74.4528
74.5548
74.7455
75.0502
75.516
76.1916
77.0962
78.0419
78.3382
76.0339
67.0438
54.1248
43.262
48.2368
57.1804
61.6748
63.4551
64.3874
64.7674
64.4334
63.271
61.226
57.8612
51.8739
42.558
31.2455
19.7107
8.77022
2.29737
74.4576
74.4977
74.6242
74.8638
75.2597
75.8961
76.8998
78.4385
80.5458
82.6488
81.1573
70.605
56.95
30.3688
40.1697
53.405
59.6391
62.2767
63.541
63.8285
63.1196
61.3223
58.4085
54.4822
49.1747
41.5278
31.6797
20.8953
9.86301
3.71784
74.4847
74.5315
74.6769
74.955
75.4234
76.2053
77.5186
79.7418
83.4269
88.782
91.2288
75.6791
63.6037
-5.67252
38.6073
54.3202
60.5544
62.8027
63.7673
63.6854
62.5793
60.3177
56.7979
52.3041
47.053
40.3687
31.8129
21.9319
10.94
5.3211
74.5
74.5506
74.7068
75.0063
75.516
76.3818
77.8932
80.6028
85.6536
94.6206
107.964
53.4709
-21.1532
-2.00189
35.515
54.8282
61.3519
63.2622
63.9547
63.5835
62.2123
59.7784
56.2176
51.6553
46.3002
39.8794
32.0407
22.9044
11.9818
7.0003
74.5019
74.5532
74.7109
75.0139
75.534
76.4161
77.955
80.7419
86.0302
95.8873
116.325
21.0112
13.2002
-4.93378
32.7414
53.8478
61.0063
63.0039
63.6541
63.1661
61.6377
59.1446
55.6932
51.3401
46.232
40.1352
32.7967
24.2093
13.2488
8.79083
74.4904
74.539
74.689
74.9767
75.4669
76.2896
77.6881
80.1103
84.3442
91.2117
106.873
135.042
4.76996
-7.72768
38.0921
56.2643
62.2316
63.6109
63.882
63.1038
61.3714
58.7718
55.3929
51.3271
46.6923
41.2483
34.5041
26.3276
15.0887
10.7956
74.4665
74.5091
74.6422
74.8961
75.3203
76.0123
77.1337
78.9224
81.5676
84.7522
90.4584
76.8564
33.3511
20.7974
43.7642
56.3732
61.0855
62.5663
63.0613
62.5706
61.156
58.9841
56.1199
52.6428
48.5653
43.5679
37.0755
28.9691
17.1228
12.7926
74.433
74.4672
74.577
74.7846
75.1221
75.6498
76.4449
77.5761
78.9324
79.8038
77.7383
66.5782
48.4102
42.6519
48.1137
56.1217
59.7734
61.0147
61.381
60.9314
59.6956
57.7882
55.2099
52.0601
48.5922
44.2377
38.265
30.5221
18.306
14.4854
74.3934
74.4181
74.5012
74.6568
74.9002
75.257
75.7436
76.3217
76.7829
76.4459
73.8751
66.098
54.545
49.5981
52.2452
56.9294
59.509
60.4231
60.5997
60.1034
58.9096
57.1034
54.6799
51.6596
48.2861
43.8081
37.8897
30.7212
18.4371
15.8709
74.3518
74.3668
74.423
74.5269
74.6798
74.8809
75.1074
75.2679
75.1354
74.1808
71.5185
65.9184
58.2962
54.023
54.7686
57.3959
59.0993
59.6872
59.6705
59.0716
57.813
56.0034
53.7767
50.9626
47.6251
43.1392
37.2121
30.6858
18.3006
17.1595
74.3122
74.3185
74.3502
74.4079
74.4821
74.5539
74.5765
74.4405
73.9324
72.6717
70.1355
65.8584
60.4735
56.8724
56.6204
58.0099
59.0676
59.3977
59.2221
58.5299
57.2446
55.4557
53.3392
50.6068
47.2625
42.9071
37.0271
30.8278
18.1874
18.2405
74.2785
74.2778
74.2894
74.3099
74.3223
74.2958
74.1708
73.8362
73.105
71.7015
69.323
65.8256
61.7098
58.6725
57.8879
58.4689
59.0397
59.1315
58.7918
58.0055
56.7058
54.9627
52.9888
50.5116
47.2493
43.0083
37.5953
31.6887
18.663
19.0237
74.2538
74.2486
74.2463
74.2408
74.211
74.119
73.8995
73.4434
72.5887
71.1241
68.8652
65.811
62.4004
59.735
58.6827
58.7863
59.0494
58.9872
58.5581
57.7396
56.4579
54.7626
52.8888
50.6088
47.4734
43.3682
38.5125
33.1841
20.0186
19.4214
74.24
74.2329
74.2235
74.2047
74.1534
74.0287
73.763
73.2495
72.3397
70.8543
68.6594
65.8115
62.7168
60.2258
59.0607
58.9412
59.0529
58.9161
58.4492
57.6171
56.3403
54.6841
52.9046
50.7168
47.7465
43.8527
39.5612
34.8369
21.008
20.2143
74.1834
74.1681
74.1427
74.098
74.011
73.8449
73.5404
73.0092
72.1406
70.8237
69.0083
66.8067
64.5963
63.0105
62.6139
63.333
64.5683
65.8569
67.0908
68.2604
69.1944
69.3402
68.6151
66.5928
57.4688
40.116
21.7398
8.96832
-0.518546
-1.05069
74.1954
74.1824
74.1632
74.1297
74.0602
73.9193
73.6482
73.155
72.3163
70.9969
69.1121
66.746
64.3017
62.5372
62.1663
63.0509
64.4281
65.7778
67.006
68.1119
68.9458
68.9709
67.9403
65.6849
57.5299
41.6726
23.9067
10.8055
1.17065
-0.971517
74.218
74.2093
74.2024
74.1907
74.1555
74.0653
73.8628
73.4505
72.6801
71.3662
69.3513
66.6494
63.7175
61.5792
61.2611
62.4473
64.0375
65.4764
66.7487
67.8403
68.5748
68.4657
67.1441
64.5685
57.1029
42.663
25.8111
12.582
2.61312
-1.0763
74.2492
74.247
74.2575
74.2775
74.2928
74.2795
74.1854
73.9083
73.2642
71.9898
69.78
66.5185
62.7652
60.0257
59.8982
61.6353
63.5158
65.017
66.326
67.4447
68.1296
67.9242
66.3268
63.288
56.1185
42.8304
27.1634
14.0652
3.92332
-1.08936
74.2864
74.2922
74.3242
74.3838
74.4641
74.5531
74.6111
74.5378
74.1186
72.9773
70.5246
66.353
61.2477
57.5549
57.8792
60.5271
62.832
64.3931
65.6912
66.7996
67.4682
67.3151
65.6726
62.0682
54.7563
42.3643
27.9635
15.1987
5.0128
-0.939523
74.3262
74.3407
74.3968
74.5013
74.6577
74.8716
75.1259
75.3412
75.2882
74.4633
71.8392
66.2836
58.9221
53.8386
55.367
59.458
62.2457
63.7958
64.9601
65.9105
66.4759
66.3738
64.8991
60.8693
53.1494
41.4784
28.2709
15.9958
5.89162
-0.590131
74.3648
74.3881
74.4685
74.6194
74.8572
75.2118
75.703
76.3073
76.8051
76.5531
73.9769
66.4434
54.7612
47.2277
51.7953
58.598
62.2395
63.8155
64.694
65.147
65.0867
64.4267
62.84
59.0462
51.6302
40.8238
28.5923
16.746
6.72367
0.0147067
74.3983
74.4296
74.5319
74.7257
75.0418
75.5385
76.2889
77.3738
78.6598
79.4699
77.1703
67.3468
47.9976
35.2161
45.5184
56.4713
61.5219
63.3769
64.1578
64.259
63.5808
62.0193
59.7184
56.1499
49.9263
40.4807
29.2464
17.7713
7.73344
0.931224
74.4233
74.4608
74.5799
74.8071
75.1866
75.8048
76.7968
78.3721
80.624
83.0658
83.3486
72.4826
50.4438
24.0757
40.9185
55.4007
61.5313
63.3996
63.9786
63.7768
62.7194
60.6449
57.7299
53.983
48.4949
40.261
30.0983
19.0742
8.98025
2.13693
74.4374
74.4783
74.607
74.8528
75.2676
75.9572
77.1077
79.0291
82.0497
86.0102
89.5587
66.2881
37.8339
27.846
37.3905
54.5099
61.396
63.2779
63.7461
63.3831
62.2071
60.0982
57.119
53.2517
47.9386
40.466
31.161
20.6167
10.4612
3.57744
74.4389
74.4803
74.6106
74.8597
75.2811
75.9816
77.1545
79.1306
82.3061
86.7136
92.7521
66.1506
38.726
28.1011
38.6738
54.0967
60.5368
62.6225
63.2577
62.9343
61.7748
59.806
56.9511
53.1
48.0445
41.1509
32.5727
22.484
12.2226
5.21936
74.4277
74.4665
74.5896
74.8251
75.2205
75.8688
76.9261
78.6417
81.2326
84.4404
89.8587
74.5551
37.0555
24.2822
44.0684
55.9515
60.8096
62.5489
63.0736
62.6169
61.3648
59.3933
56.6586
53.1304
48.5406
42.3634
34.5213
24.8005
14.2983
7.02672
74.4051
74.4384
74.5461
74.7513
75.0897
75.6293
76.4682
77.7259
79.37
80.7107
78.8149
66.3397
45.9095
39.7223
49.0095
56.9401
60.3158
61.7374
62.2903
61.9627
60.9203
59.2592
56.8605
53.7589
49.6493
44.0449
36.7386
27.2334
16.3216
8.80469
74.3735
74.3992
74.4858
74.65
74.9137
75.3157
75.896
76.6586
77.4332
77.4542
74.9808
66.1033
52.5956
47.5761
51.5721
56.8863
59.5931
60.7476
61.1447
60.7656
59.6977
58.0144
55.6467
52.8587
49.3259
44.3029
37.6885
28.6154
17.5645
10.3542
74.3361
74.3532
74.4158
74.5339
74.7158
74.9736
75.3035
75.6385
75.765
75.0646
72.4146
65.9428
56.8779
52.3622
53.9812
57.5061
59.564
60.3592
60.5152
60.0363
58.9105
57.1902
54.8336
52.0009
48.5347
43.3598
37.1538
28.7306
17.7988
11.6013
74.2968
74.3052
74.3434
74.4156
74.5185
74.6435
74.7579
74.7628
74.4418
73.3389
70.747
65.881
59.535
55.6947
55.9883
58.0035
59.3201
59.7547
59.69
59.0801
57.8268
56.0522
53.813
50.9232
47.453
42.1499
36.0192
28.3591
17.6035
12.7021
74.2595
74.2599
74.2761
74.307
74.3407
74.3542
74.2967
74.0619
73.4518
72.1397
69.7085
65.8598
61.1729
57.9322
57.4573
58.4555
59.2451
59.4556
59.2367
58.5233
57.2046
55.4051
53.2617
50.2787
46.7614
41.5569
35.2992
28.0971
17.3227
13.6016
74.2277
74.2218
74.2199
74.2174
74.1964
74.1245
73.9417
73.5431
72.7582
71.3477
69.0709
65.85
62.1555
59.3719
58.4923
58.8389
59.2329
59.2319
58.8446
58.0225
56.6723
54.8969
52.8969
50.0284
46.4636
41.5024
35.7846
28.7984
17.5375
14.3075
74.2044
74.1945
74.1799
74.1541
74.0957
73.9667
73.7032
73.2031
72.3198
70.8687
68.7029
65.8502
62.7182
60.2389
59.1562
59.108
59.2363
59.0905
58.6062
57.7413
56.4058
54.6738
52.7734
50.1153
46.5966
41.954
37.1214
30.3054
17.8731
14.7949
74.1913
74.1798
74.1588
74.1209
74.0434
73.8858
73.5825
73.0341
72.1063
70.6429
68.5359
65.8563
62.9792
60.6471
59.4744
59.2381
59.2352
59.0218
58.4983
57.6174
56.2946
54.6184
52.8065
50.319
46.9165
42.6055
38.4874
31.5412
17.9366
15.2672
74.1322
74.1128
74.0764
74.0142
73.9042
73.711
73.3791
72.8291
71.9651
70.697
68.9954
66.9762
64.9803
63.5578
63.2034
63.8856
65.1089
66.4652
67.8495
69.2688
70.5225
71.1052
71.3657
69.443
58.0458
38.7028
18.9685
6.58263
-3.08277
-0.711356
74.1433
74.1258
74.095
74.0427
73.9477
73.7759
73.4718
72.9524
72.1108
70.8374
69.0741
66.9188
64.7322
63.1603
62.8154
63.6231
64.9664
66.3854
67.7683
69.1094
70.2136
70.568
70.3911
68.4539
58.4581
40.747
21.6221
8.65264
-1.08766
-0.822327
74.1641
74.1506
74.1305
74.0973
74.0319
73.903
73.6555
73.2008
72.41
71.132
69.2522
66.8238
64.2476
62.3708
62.0481
63.0752
64.5767
66.0662
67.4922
68.8119
69.7901
69.9027
69.2232
67.059
58.24
42.1272
23.9398
10.6295
0.595471
-1.22936
74.1929
74.1851
74.1804
74.1747
74.1527
74.0884
73.9294
73.5813
72.8834
71.6187
69.565
66.6909
63.475
61.1329
60.9411
62.377
64.0752
65.5636
66.9858
68.3264
69.2653
69.1946
67.9674
65.3056
57.1137
42.3724
25.4886
12.164
2.04615
-1.68417
74.2272
74.2263
74.2406
74.2693
74.3027
74.3236
74.2874
74.0973
73.5595
72.3678
70.0884
66.5151
62.2717
59.2339
59.3656
61.4935
63.5262
65.0095
66.3257
67.5895
68.5227
68.4702
66.8588
63.4616
55.3059
41.777
26.319
13.2145
3.19414
-2.07536
74.2637
74.2706
74.3059
74.3733
74.4711
74.5947
74.7144
74.7409
74.4593
73.4558
70.968
66.3783
60.5323
56.5691
57.4325
60.5165
62.9314
64.4309
65.6227
66.7272
67.6249
67.738
65.9843
61.6193
53.1069
40.5686
26.5063
13.8456
4.10018
-2.31064
74.2991
74.3138
74.3702
74.4775
74.6434
74.8811
75.1852
75.4938
75.5792
74.9007
72.3
66.3569
57.9405
52.7302
55.24
59.9216
62.761
64.1708
65.1161
65.8728
66.4672
66.5339
64.8735
60.0362
51.3433
39.5726
26.5695
14.2872
4.88882
-2.35126
74.3297
74.3513
74.4268
74.5708
74.8014
75.1527
75.6526
76.2969
76.8776
76.7326
74.1369
66.6284
54.4799
46.9362
51.3199
58.5821
62.327
63.7785
64.5155
64.8469
64.8181
64.4193
62.8947
58.4688
50.3604
39.3111
27.1035
15.0306
5.83359
-2.11054
74.3525
74.3794
74.4694
74.6417
74.925
75.3722
76.0484
77.0209
78.1667
78.8132
76.723
66.8081
51.7976
43.1224
47.6236
57.2708
62.0697
63.6512
64.199
64.197
63.6923
62.7776
61.0594
57.0842
49.8633
39.6152
28.1383
16.2448
7.12489
-1.52972
74.3651
74.3949
74.4931
74.6812
74.9943
75.4995
76.2892
77.4861
79.0513
80.36
78.3501
64.7867
48.4673
42.6632
46.5644
56.4769
61.57
63.2465
63.7676
63.6749
63.0845
62.0304
60.1482
56.3143
49.7319
40.3623
29.6155
17.9187
8.79479
-0.61205
74.3661
74.3963
74.4956
74.6863
75.0035
75.5164
76.3225
77.5546
79.2055
80.7225
78.9204
64.7368
47.8775
43.0799
46.6415
55.7899
60.7832
62.6362
63.22
63.1077
62.4989
61.3438
59.3249
55.7012
49.8108
41.3723
31.4504
19.9846
10.7945
0.593046
74.3555
74.3833
74.4761
74.6546
74.9493
75.4182
76.1398
77.2029
78.5435
79.5233
77.5182
65.8737
49.2118
43.6101
48.0413
56.1023
60.471
62.2538
62.8179
62.6081
61.8644
60.5582
58.5229
55.2677
50.0197
42.6046
33.5841
22.3978
13.0428
1.99807
74.3343
74.3573
74.4366
74.5888
74.836
75.218
75.7786
76.5328
77.3303
77.4127
75.004
66.0407
52.6566
47.8326
51.8215
57.1013
60.0602
61.4532
61.9874
61.8115
61.1113
59.8824
57.9671
55.0212
50.2351
43.6922
35.4929
24.6312
15.1462
3.44155
74.3047
74.321
74.3818
74.4987
74.6833
74.9543
75.3189
75.7275
75.978
75.4071
72.7973
65.9226
56.3334
51.9202
53.8297
57.3278
59.55
60.6494
61.037
60.7416
59.8794
58.4652
56.3434
53.6485
49.3862
43.6074
36.3448
25.9409
16.5243
4.74525
74.2699
74.2786
74.3182
74.3952
74.5108
74.6642
74.8337
74.9316
74.7478
73.7691
71.1755
65.9251
58.9526
54.9889
55.6396
58.0369
59.6462
60.3347
60.4546
59.9982
58.9484
57.3419
55.0376
52.3555
48.2324
42.3887
35.869
26.1796
17.079
5.84967
74.2333
74.2342
74.2525
74.2895
74.3379
74.3818
74.3796
74.2302
73.7322
72.5116
70.0488
65.8907
60.7094
57.3423
57.1774
58.5314
59.5025
59.8232
59.7128
59.0918
57.8637
56.1532
53.8
50.9929
47.0113
40.7533
34.6547
25.8014
17.1173
6.82591
74.1985
74.1925
74.1912
74.1922
74.1814
74.1321
73.9908
73.6562
72.9501
71.6002
69.2991
65.8872
61.8867
59.0038
58.3155
58.9125
59.448
59.5498
59.2756
58.5248
57.188
55.4265
53.1551
50.1159
46.1201
39.5451
33.4218
25.429
17.0276
7.61457
74.1689
74.1573
74.14
74.1117
74.0539
73.9328
73.6891
73.2245
72.3887
70.9801
68.8202
65.8944
62.6258
60.1028
59.1344
59.2358
59.4485
59.3551
58.9129
58.0454
56.6604
54.9043
52.8124
49.6638
45.6221
39.3981
33.3989
25.6942
17.179
8.18746
74.1471
74.132
74.1036
74.0548
73.9646
73.7951
73.4844
72.9385
72.028
70.598
68.5382
65.9036
63.0621
60.781
59.6688
59.4612
59.4505
59.2205
58.6774
57.7615
56.3852
54.6583
52.6976
49.7007
45.714
40.3293
35.0479
26.5836
17.4783
8.51827
74.1349
74.1184
74.0843
74.025
73.9183
73.7243
73.3806
72.7956
71.8508
70.4151
68.4082
65.9123
63.2696
61.1056
59.926
59.5685
59.4467
59.1535
58.5702
57.6398
56.283
54.6107
52.7276
49.954
46.041
41.4228
36.6435
27.2585
18.1492
8.58554
74.0763
74.0526
74.0046
73.9239
73.7898
73.5685
73.209
72.6413
71.7849
70.5705
68.988
67.1559
65.3803
64.1317
63.833
64.4869
65.7076
67.1546
68.7362
70.4605
72.1089
73.4372
74.9063
72.7077
59.406
38.2349
16.9942
5.00239
-4.96476
0.539964
74.0865
74.0644
74.0212
73.949
73.8275
73.6239
73.2868
72.7426
71.9018
70.6796
69.0442
67.1028
65.1789
63.8134
63.5124
64.2511
65.5583
67.0538
68.6292
70.261
71.7061
72.683
73.6603
71.7348
60.0953
40.7349
20.0346
7.10478
-2.89262
0.196072
74.1054
74.0867
74.0529
73.9969
73.9003
73.732
73.4401
72.9453
72.1398
70.9057
69.1678
67.0089
64.7859
63.1842
62.883
63.7706
65.1879
66.7283
68.3215
69.8984
71.157
71.7429
72.0823