/*--------------------------------*- C++ -*----------------------------------*\
| =========                 |                                                 |
| \\      /  F ield         | OpenFOAM: The Open Source CFD Toolbox           |
|  \\    /   O peration     | Version:  2512                                  |
|   \\  /    A nd           | Website:  www.openfoam.com                      |
|    \\/     M anipulation  |                                                 |
\*---------------------------------------------------------------------------*/
FoamFile
{
    version     2.0;
    format      ascii;
    arch        "LSB;label=32;scalar=64";
    class       volScalarField;
    location    "100";
    object      p;
}
// * * * * * * * * * * * * * * * * * * * * * * * * * * * * * * * * * * * * * //

dimensions      [0 2 -2 0 0 0 0];

internalField   nonuniform List<scalar> 
90398
(
233.778
232.2
228.243
222.353
215.671
209.11
202.833
195.502
184.196
162.477
128.21
86.0709
42.6002
4.42507
-26.3107
-51.3838
-71.5435
-85.0012
-89.9022
-85.6013
-72.428
-51.5407
-25.1158
3.15764
29.8002
50.4781
67.83
71.6344
82.3134
28.6368
233.641
232.045
228.046
222.137
215.55
209.237
203.311
196.161
183.939
161.038
126.043
83.1576
38.8674
0.617503
-29.8824
-55.6758
-77.874
-94.3946
-103.249
-103.759
-96.1019
-81.0281
-59.7015
-34.2359
-7.07892
17.1589
39.884
50.1566
67.2225
23.9054
233.376
231.738
227.643
221.66
215.146
209.144
203.466
195.945
182.116
157.68
121.394
76.6242
30.4614
-7.6128
-36.9412
-63.4445
-88.749
-109.995
-124.845
-132.524
-132.871
-126.142
-112.609
-92.5348
-66.5064
-38.58
-8.40451
11.76
40.4711
13.1896
232.984
231.276
227.023
220.869
214.319
208.416
202.633
194.151
178.626
152.91
114.965
66.5797
16.7361
-20.3991
-46.6845
-73.2725
-102.327
-129.291
-151.169
-167.021
-175.933
-177.576
-171.989
-158.319
-135.131
-104.847
-67.4332
-36.2641
6.4845
-1.92314
232.469
230.662
226.175
219.719
212.907
206.759
200.408
190.523
173.926
148.234
109.016
54.1168
-3.13223
-37.9152
-58.442
-83.9835
-116.949
-149.845
-178.731
-202.481
-219.338
-228.046
-228.186
-219.666
-200.47
-170.111
-127.562
-86.5862
-29.9638
-19.5194
231.846
229.91
225.1
218.18
210.827
204.02
196.597
185.672
170.177
148.225
108.3
42.146
-29.6408
-58.292
-68.4133
-91.0908
-128.359
-167.448
-203.268
-234.506
-258.637
-273.492
-278.027
-272.511
-255.316
-225.83
-180.956
-132.87
-64.3951
-37.4624
231.137
229.043
223.831
216.268
208.071
200.251
191.581
180.969
170.822
163.298
123.47
31.4036
-66.4991
-83.4906
-77.7036
-93.7108
-134.428
-179.332
-222.438
-261.979
-293.777
-314.398
-322.171
-317.009
-298.945
-269.035
-222.957
-170.709
-93.5336
-53.8936
230.374
228.096
222.416
214.07
204.777
195.697
186.174
178.256
181.864
187.97
156.286
51.638
-95.3153
-104.61
-72.5798
-85.991
-132.944
-184.872
-236.432
-285.526
-325.728
-352.225
-362.984
-357.295
-335.815
-302.032
-253.561
-198.229
-115.084
-66.7185
229.598
227.118
220.923
211.703
201.168
190.754
180.961
177.679
192.125
249.7
190.59
16.7093
-165.148
-142.117
-49.0494
-57.8344
-117.034
-182.39
-245.312
-303.939
-351.942
-384.789
-399.725
-395.028
-370.513
-330.966
-277.294
-217.782
-129.775
-75.4879
228.852
226.165
219.441
209.301
197.518
185.866
176.443
177.504
207.633
324.155
208.721
91.5396
-201.667
-178.632
-48.4455
-55.5071
-120.146
-192.933
-264.201
-330.19
-382.527
-416.967
-432.462
-427.661
-401.487
-357.63
-298.527
-233.897
-141.048
-81.5043
228.178
225.291
218.062
207.046
194.104
181.416
172.311
174.423
207.969
351.097
166.911
-227.768
-193.999
-64.7231
-75.6299
-145.413
-225.827
-305.618
-378.154
-434.118
-468.139
-479.207
-467.606
-434.471
-384.123
-318.965
-248.617
-151.104
-85.1483
227.61
224.54
216.859
205.064
191.132
177.739
168.752
170.182
193.702
265.574
188.599
61.1785
-109.798
-163.029
-92.4992
-111.504
-182.021
-265.399
-349.032
-423.394
-479.839
-513.825
-523.899
-509.077
-470.451
-413.181
-340.766
-263.288
-160.822
-86.3906
227.174
223.946
215.882
203.446
188.84
175.311
166.978
168.527
185.726
212.052
176.328
35.5973
-103.18
-127.567
-80.6413
-126.413
-205.619
-294.304
-380.616
-454.664
-509.964
-542.737
-551.794
-536.846
-497.964
-438.636
-361.957
-277.866
-170.475
-85.3451
226.88
223.52
215.156
202.271
187.376
174.286
167.38
169.926
182.578
192.828
166.07
82.8845
-4.90911
-47.4692
-71.8272
-131.401
-215.763
-310.478
-399.302
-472.772
-526.642
-557.951
-565.726
-550.961
-513.793
-455.663
-378.102
-289.702
-178.824
-81.8351
226.722
223.257
214.694
201.565
186.744
174.736
170.155
175.388
187.785
192.909
169.166
107.514
39.971
-14.4814
-62.1191
-123.693
-214.462
-317.086
-408.785
-481.835
-534.118
-563.631
-570.109
-555.516
-520.218
-463.919
-386.708
-295.706
-183.258
-75.0597
226.68
223.143
214.462
201.232
186.788
176.362
174.75
183.551
197.524
199.487
173.249
120.98
60.7304
-1.31577
-49.2343
-109.453
-210.49
-321.351
-414.919
-486.305
-536.018
-563.629
-569.112
-554.58
-520.39
-464.777
-386.921
-293.383
-180.533
-63.7474
226.723
223.137
214.398
201.181
187.301
178.69
180.32
193.171
209.784
209.732
179.339
127.974
66.9814
8.17671
-29.75
-91.3789
-205.483
-324.043
-418.035
-486.956
-534.358
-560.731
-565.657
-550.782
-515.958
-458.54
-377.848
-280.926
-167.085
-46.169
226.809
223.189
214.43
201.288
188.016
181.197
186.01
202.894
222.71
221.54
185.558
129.653
66.965
20.1076
-0.306812
-63.2239
-190.428
-316.169
-411.687
-479.33
-525.719
-552.897
-559.523
-545.236
-508.629
-447.128
-361.556
-259.436
-141.878
-20.5586
226.894
223.261
214.497
201.428
188.671
183.368
190.917
211.36
234.479
231.73
188.583
127.09
65.8476
37.3431
38.0519
-24.4059
-161.022
-294.367
-396.27
-469.086
-518.372
-546.062
-551.287
-533.859
-492.819
-425.932
-335.786
-230.89
-108.857
11.3082
226.934
223.307
214.55
201.508
189.009
184.598
193.882
216.817
242.412
237.589
188.384
123.295
64.6332
51.424
66.2828
4.97928
-137.283
-276.612
-384.3
-461.461
-512.418
-539.395
-543.043
-523.573
-479.495
-408.375
-315.047
-209.156
-81.324
36.3181
234.428
232.828
228.73
222.524
215.073
206.717
197.109
184.607
166.243
139.236
102.193
59.8057
18.1848
-17.1378
-45.1058
-68.0932
-87.4328
-102.401
-112.37
-117.676
-119.014
-116.737
-110.367
-99.4958
-83.5406
-65.2089
-41.4984
-27.5385
6.03231
-38.6235
234.303
232.677
228.519
222.247
214.761
206.437
196.807
183.934
164.833
136.947
99.1592
55.918
13.1985
-22.5573
-50.6918
-74.6445
-95.8705
-113.177
-125.534
-133.099
-136.531
-136.321
-132.036
-122.758
-107.147
-87.7042
-61.7698
-43.7643
-6.90744
-40.6739
234.053
232.375
228.091
221.651
214.022
205.605
195.836
182.309
161.827
132.57
93.7308
48.7873
4.20126
-31.6542
-59.0062
-83.8923
-107.959
-129.069
-145.673
-157.545
-164.859
-168.064
-166.992
-160.395
-145.901
-125.169
-95.4813
-71.2704
-26.4804
-46.8311
233.68
231.921
227.438
220.712
212.765
204.037
193.684
178.901
157.234
127.159
87.3673
39.7178
-8.08036
-43.2325
-68.132
-93.5482
-121.174
-147.189
-169.374
-187.169
-199.916
-207.27
-209.263
-205.064
-191.679
-169.566
-135.658
-104.061
-49.5686
-54.6627
233.189
231.32
226.554
219.397
210.909
201.542
190.202
174.247
152.057
122.759
82.8125
30.6271
-23.5131
-56.7443
-76.7555
-102.008
-133.59
-164.99
-193.296
-217.63
-236.314
-247.85
-252.17
-248.987
-235.987
-212.922
-175.67
-137.331
-73.3428
-63.5406
232.593
230.581
225.445
217.698
208.428
198.102
185.463
169.079
148.311
123.144
84.7111
25.3996
-41.9074
-70.6165
-81.53
-105.514
-141.601
-178.801
-213.687
-245.03
-269.946
-285.918
-291.909
-288.149
-274.371
-249.958
-210.193
-166.682
-94.8187
-72.3637
231.914
229.732
224.142
215.649
205.349
193.864
180.253
164.634
148.353
136.649
104.261
27.5471
-68.1273
-87.7184
-83.4117
-102.785
-143.496
-186.775
-228.648
-267.332
-298.966
-319.874
-327.768
-322.807
-306.068
-278.955
-236.98
-189.627
-112.062
-80.1567
231.185
228.815
222.708
213.326
201.81
189.115
175.214
161.909
154.482
160.761
146.03
69.1031
-88.9674
-112.914
-81.6849
-93.7075
-138.36
-187.587
-237.385
-285.104
-324.696
-351.454
-362.241
-355.757
-334
-301.823
-256.584
-206.281
-124.97
-86.6352
230.445
227.874
221.226
210.877
198.049
184.218
170.639
159.862
167.829
214.399
195.708
54.051
-191.378
-171.465
-48.2837
-59.1361
-117.477
-181.446
-243.913
-301.895
-349.247
-381.72
-395.986
-389.559
-362.983
-323.171
-271.94
-217.705
-133.436
-90.8119
229.739
226.96
219.782
208.519
194.438
179.672
167.214
161.234
185.15
261.57
208.384
123.721
-230.215
-243.708
-48.0976
-60.5245
-126.139
-198.378
-269.351
-334.46
-385.851
-419.105
-432.129
-423.481
-392.92
-345.986
-286.778
-226.228
-138.285
-91.6683
229.106
226.129
218.433
206.288
191.161
175.774
164.479
161.907
190.624
291.009
-215.992
-67.6792
-82.248
-153.634
-234.213
-313.293
-384.48
-439.378
-472.844
-482.126
-466.503
-427.977
-372.569
-304.428
-235.618
-142.308
-89.947
228.581
225.424
217.248
204.249
188.228
172.592
162.52
162.183
185.765
251.027
179.164
100.087
-218.051
-196.945
-77.9896
-113.578
-189.549
-273.963
-357.126
-431.085
-487.425
-521.094
-529.076
-510.249
-466.172
-403.259
-326.268
-247.966
-147.867
-86.5368
228.189
224.871
216.281
202.653
186.156
170.776
162.246
164.799
183.975
210.459
182.434
35.2171
-93.9488
-101.877
-66.8778
-129.887
-214.642
-303.718
-390.814
-465.868
-521.186
-553.045
-559.926
-540.901
-496.185
-430.74
-348.753
-262.304
-155.369
-81.6729
227.937
224.484
215.596
201.522
184.803
170.173
163.701
168.514
184.241
197.047
173.613
96.0566
14.1855
-32.1478
-64.9056
-137.461
-225.721
-321.145
-412.189
-487.196
-540.332
-569.173
-573.812
-555.032
-512.93
-449.562
-366.646
-274.964
-163.056
-74.8732
227.821
224.27
215.16
200.763
184.173
170.977
167.406
175.565
191.403
198.008
174.405
115.359
54.721
-2.49588
-60.0533
-130.96
-224.356
-329.224
-423.333
-496.365
-546.298
-572.228
-575.119
-557.184
-518.355
-458.263
-376.666
-282.164
-167.626
-64.8883
227.822
224.199
214.932
200.366
184.166
172.881
172.71
184.781
202.045
204.038
175.345
125.395
71.0471
7.23465
-48.8749
-115.806
-219.322
-332.044
-426.314
-496.243
-542.813
-566.873
-569.489
-553.111
-517.242
-459.262
-378.073
-281.193
-165.47
-50.0284
227.904
224.23
214.87
200.247
184.607
175.436
178.807
195.008
214.355
212.781
179.431
130.254
74.1219
13.1058
-30.1465
-97.1868
-212.478
-329.544
-422.149
-489.258
-534.647
-559.269
-563.24
-548.374
-513.357
-454.379
-370.747
-270.162
-152.807
-28.5948
228.023
224.316
214.907
200.289
185.269
178.126
184.848
205.024
227.075
223.357
183.832
129.962
71.0155
20.816
-5.19755
-75.2544
-199.368
-317.498
-409.719
-477.554
-525.388
-553.652
-560.701
-546.115
-507.876
-443.648
-354.327
-248.043
-128.212
-0.28337
228.13
224.412
214.985
200.398
185.928
180.507
190.059
213.819
238.932
232.584
185.324
126.334
67.0713
32.9973
23.1336
-50.2665
-179.652
-300.87
-398.341
-471.502
-521.635
-549.019
-553.728
-535.716
-492.954
-423.274
-328.399
-218.936
-96.9541
31.2858
228.179
224.472
215.054
200.481
186.326
181.979
193.323
219.724
247.347
237.983
184.035
121.828
63.5087
42.8774
44.4837
-30.7949
-164.278
-289.128
-389.85
-464.912
-515.429
-542.17
-545.354
-524.956
-479.22
-405.538
-306.99
-197.041
-73.3189
55.0014
235.82
234.178
229.879
223.28
215.203
205.721
193.078
173.84
144.812
109.904
70.3173
29.9045
-7.57025
-38.4999
-63.0188
-84.2387
-104.052
-122.852
-141.339
-160.19
-178.994
-195.109
-204.416
-203.656
-190.547
-168.527
-133.167
-107.87
-46.9401
-93.7221
235.709
234.036
229.665
222.965
214.796
205.12
191.853
171.256
141.71
106.988
67.2603
26.052
-12.9099
-44.7302
-69.8314
-92.2285
-113.625
-133.827
-152.876
-171.215
-188.795
-203.942
-213.445
-214.024
-202.857
-182.246
-148.081
-120.661
-59.8252
-92.9949
235.491
233.758
229.233
222.3
213.852
203.588
189.1
166.606
136.739
101.766
61.8878
19.4186
-21.5079
-53.8538
-78.7196
-102.233
-125.989
-148.671
-169.593
-188.793
-206.173
-220.828
-230.564
-232.646
-223.401
-203.839
-169.586
-139.121
-74.0934
-94.8621
235.164
233.341
228.577
221.269
212.291
201.014
184.558
160.378
130.537
96.0149
56.5474
12.3125
-31.5004
-63.6882
-86.9616
-111.338
-138.109
-164.437
-188.891
-210.979
-229.987
-244.973
-254.55
-256.947
-248.337
-228.788
-193.351
-158.762
-88.5381
-96.2134
234.73
232.788
227.688
219.846
210.05
197.28
178.572
153.831
124.451
91.8837
53.7872
7.01592
-42.28
-73.5452
-93.2946
-118.11
-148.256
-178.775
-207.693
-234.014
-256.108
-272.181
-281.225
-282.393
-272.891
-252.561
-215.785
-177.252
-102.159
-97.5592
234.199
232.109
226.589
218.039
207.132
192.51
171.985
147.516
120.167
91.8836
57.0795
6.66005
-54.164
-83.4469
-95.5935
-120.02
-153.776
-188.805
-223.032
-254.936
-281.628
-300.321
-309.127
-307.5
-294.981
-272.355
-233.889
-192.065
-113.286
-98.6331
233.592
231.325
225.299
215.875
203.608
187.083
165.822
142.601
119.273
101.205
74.3551
14.0874
-75.7865
-100
-96.6254
-116.151
-153.29
-193.266
-233.767
-272.429
-305.33
-328.072
-337.565
-333.185
-315.805
-288.553
-247.153
-202.189
-121.031
-99.0016
232.939
230.471
223.859
213.413
199.643
181.448
160.453
139.412
121.03
120.393
102.054
61.6194
-89.2255
-128.819
-95.9168
-105.079
-145.334
-191.653
-240.267
-287.751
-328.042
-356.225
-368.008
-361.234
-337.904
-303.706
-257.33
-208.647
-125.853
-98.582
232.282
229.608
222.384
210.809
195.502
176.161
156.12
136.24
129.287
143.912
143.247
155.447
-185.833
-208.396
-68.0031
-74.0541
-126.125
-186.129
-247.076
-304.942
-353.17
-386.674
-400.841
-392.925
-363.777
-320.987
-267.193
-213.225
-128.491
-97.155
231.663
228.782
220.978
208.361
191.652
171.678
153.6
138.405
144.8
163.153
169.244
358.482
-316.502
-333.115
-58.1644
-70.9829
-132.923
-202.373
-272.835
-338.455
-391.037
-425.825
-438.995
-427.983
-393.264
-342.043
-279.408
-218.162
-130.329
-94.3469
231.118
228.034
219.648
205.99
188.17
168.173
152.276
142.373
157.023
196.614
167.602
-250.311
-71.5848
-87.8944
-157.271
-236.811
-316.462
-388.363
-444.318
-478.759
-488.365
-471.005
-428.342
-367.896
-295.738
-225.727
-133.251
-90.4368
230.681
227.4
218.456
203.757
184.943
165.326
151.985
147.219
165.728
217.34
171.042
-35.3211
-195.115
-154.122
-68.4549
-112.916
-191.505
-278.068
-363.015
-438.158
-495.153
-528.812
-535.716
-514.135
-465.365
-397.158
-316.022
-236.532
-138.211
-85.4776
230.377
226.926
217.5
202.001
182.719
164.03
153.36
154.194
172.141
193.113
167.305
54.5385
-52.8148
-74.729
-52.4631
-128.124
-219.051
-312.447
-401.677
-477.342
-532.231
-562.79
-567.692
-545.49
-495.427
-423.61
-336.633
-248.928
-144.732
-79.0081
230.216
226.629
216.84
200.743
181.196
163.748
156.113
161.307
178.607
191.925
170.421
102.571
37.573
-7.32513
-51.5988
-138.686
-235.946
-334.966
-426.36
-500.936
-553.216
-580.451
-582.418
-559.697
-512.066
-441.907
-353.206
-259.636
-150.873
-70.0661
230.19
226.5
216.377
199.779
180.372
164.772
160.892
171.182
190.98
199.2
176.378
126.791
77.7151
15.678
-54.7414
-139.649
-240.774
-345.665
-437.972
-509.805
-558.663
-583.042
-583.333
-561.158
-516.391
-449.458
-362.041
-265.128
-153.689
-57.2045
230.278
226.502
216.101
199.192
180.17
166.915
167.415
182.981
205.205
209.276
183.245
141.752
91.1879
22.8195
-47.4873
-130.57
-237.896
-346.727
-438.184
-507.151
-553.135
-575.771
-575.514
-554.611
-512.561
-448.005
-361.643
-262.595
-149.826
-38.7234
230.44
226.607
216.015
198.922
180.439
169.74
174.582
195.109
220.368
222.669
192.59
148.284
93.9986
28.5775
-31.3352
-115.369
-229.05
-339.993
-430.345
-497.285
-542.037
-564.535
-564.993
-545.445
-504.402
-439.546
-352.032
-249.949
-135.732
-13.2902
230.629
226.756
216.035
198.836
180.969
172.719
181.401
206.779
236.783
237.611
199.637
149.021
91.6671
35.3606
-11.8044
-96.7198
-214.442
-325.577
-415.415
-482.668
-529.034
-554.056
-556.727
-537.371
-494.251
-425.925
-334.09
-227.008
-111.009
18.2919
230.791
226.907
216.115
198.864
181.574
175.41
187.387
217.698
252.54
249.726
203.496
147.038
87.9022
43.2008
7.21586
-77.5045
-195.799
-307.926
-400.619
-471.039
-519.005
-544.263
-546.478
-525.448
-479.456
-406.878
-309.085
-198.316
-81.5764
50.7032
230.868
227
216.198
198.913
182.002
177.186
191.326
225.298
263.522
257.203
205.009
144.374
84.9373
48.6311
20.976
-62.6694
-181.232
-295.064
-390.109
-462.259
-510.987
-536.303
-537.682
-514.822
-466.421
-390.389
-288.415
-176.86
-60.7945
74.8364
237.95
236.267
231.767
224.759
216.077
205.235
188.764
163.273
130.147
92.5622
52.2764
13.8078
-20.6973
-48.887
-71.7075
-92.8897
-114.971
-139.068
-165.932
-194.567
-222.702
-245.951
-259.55
-260.423
-246.165
-221.179
-179.147
-148.054
-67.9004
-125.292
237.874
236.155
231.57
224.413
215.549
204.281
186.763
160.189
126.826
89.2273
49.1038
9.87104
-26.0257
-55.2109
-78.9233
-101.342
-124.623
-149.249
-175.543
-202.778
-229.328
-251.728
-265.866
-268.573
-257.083
-234.471
-194.563
-161.57
-83.2946
-123.346
237.717
235.935
231.17
223.708
214.406
202.103
182.662
154.692
121.312
83.6891
43.6817
3.493
-34.2212
-64.032
-87.8422
-111.391
-136.419
-162.376
-188.996
-215.682
-241.179
-262.823
-277.236
-281.472
-272.104
-251.189
-212.515
-177.695
-97.1233
-123.358
237.476
235.603
230.55
222.644
212.601
198.611
176.875
148.193
114.499
77.4213
37.8079
-3.51397
-43.4113
-73.2298
-95.8822
-120.285
-147.606
-176.032
-204.514
-232.355
-258.127
-279.462
-293.609
-297.827
-289.137
-268.707
-230.12
-192.535
-109.305
-121.753
237.147
235.15
229.701
221.17
210.017
193.837
170.024
140.859
107.483
72.001
33.4291
-9.19095
-52.8183
-82.0714
-101.862
-126.662
-156.529
-187.958
-219.372
-249.729
-277.007
-298.606
-311.942
-314.947
-305.374
-284.333
-245.311
-204.885
-119.567
-119.541
236.732
234.583
228.643
219.274
206.657
188.122
162.947
133.467
101.708
69.2449
33.1488
-11.3494
-62.2305
-90.1353
-103.816
-128.376
-160.896
-195.759
-231.258
-265.699
-296.036
-319.115
-331.693
-332.307
-320.148
-296.672
-256.33
-213.223
-126.855
-116.854
236.251
233.915
227.396
216.974
202.609
181.869
155.948
127.201
98.4025
71.5888
40.3017
-8.27498
-76.7594
-101.782
-102.439
-123.655
-159.251
-198.26
-239.253
-279.439
-314.674
-340.499
-353.112
-351.175
-334.569
-306.581
-263.527
-217.486
-130.932
-113.569
235.729
233.181
225.999
214.319
198.112
175.59
149.585
122.641
97.8781
77.4912
47.3619
26.2175
-80.9669
-125.269
-98.7692
-111.287
-150.452
-195.659
-244.355
-292.629
-334.511
-364.797
-378.467
-373.438
-351.163
-316.664
-268.92
-219.164
-132.679
-109.814
235.207
232.446
224.57
211.538
193.46
169.782
144.389
119.745
106.304
93.4848
72.9138
98.1153
-110.94
-163.524
-75.8172
-85.979
-134.368
-191.536
-251.668
-310.182
-360.092
-394.824
-409.151
-401.251
-372.254
-329.505
-274.878
-219.962
-132.909
-105.484
234.724
231.751
223.187
208.879
189.198
164.959
141.156
120.778
115.834
109.467
109.435
184.857
-113.663
-113.458
-57.2743
-78.1169
-138.194
-206.172
-276.978
-343.889
-398.349
-434.752
-447.804
-435.206
-398.836
-346.689
-283.396
-221.519
-132.727
-100.075
234.319
231.132
221.865
206.199
185.157
161.089
139.655
124.77
129.901
140.935
124.458
-199.639
-76.6258
-60.3659
-61.0861
-88.6061
-158.764
-238.818
-320.065
-393.653
-451.63
-487.199
-496.418
-477.047
-431.474
-368.915
-295.81
-225.472
-133.509
-93.6323
234.02
230.623
220.671
203.654
181.39
157.911
139.764
130.873
143.107
159.442
114.406
-62.7777
-101.669
-92.1301
-54.2302
-107.297
-190.137
-279.927
-367.256
-444.054
-502.59
-536.821
-542.904
-518.745
-466.126
-394.37
-311.639
-232.123
-135.883
-86.0642
233.855
230.278
219.684
201.478
178.545
156.302
141.685
138.675
150.754
163.145
137.083
74.1712
-7.88337
-35.0635
-38.6238
-123.404
-220.439
-317.512
-408.231
-484.898
-540.861
-571.628
-575.103
-549.467
-494.414
-417.652
-328.047
-240.202
-139.412
-76.8988
233.833
230.114
218.976
199.857
176.441
155.793
144.966
147.805
164.798
177.489
162.039
109.853
60.9436
16.4112
-42.749
-140.236
-242.535
-342.707
-434.114
-509.037
-561.983
-589.75
-590.768
-564.235
-510.134
-433.359
-341.035
-247.054
-142.575
-65.2814
233.947
230.116
218.464
198.552
175.041
156.433
149.979
160.046
183.058
193.649
174.491
136.495
93.5565
25.4197
-57.8883
-150.027
-251.854
-354.35
-445.53
-517.851
-567.644
-592.566
-591.917
-565.623
-513.488
-438.88
-347.063
-249.43
-142.88
-49.9297
234.169
230.241
218.129
197.633
174.381
158.293
157.227
174.75
203.333
213.42
192.424
154.628
100.871
22.6294
-58.1178
-146.748
-250.689
-354.643
-444.803
-514.796
-562.296
-585.523
-583.773
-557.923
-507.794
-435.201
-344.352
-244.72
-137.251
-29.3855
234.459
230.464
217.993
197.06
174.262
161.043
165.473
190.242
226.113
237.184
207.698
160.253
99.6777
25.9741
-45.9762
-134.938
-241.482
-346.563
-436.114
-504.922
-551.075
-573.213
-570.808
-545.248
-495.998
-423.709
-332.516
-230.903
-122.745
-2.80575
234.761
230.723
217.986
196.714
174.397
164.093
173.363
206.089
251.175
258.652
216.815
161.462
97.9436
33.5848
-30.4247
-119.108
-227.049
-332.161
-421.039
-489.285
-535.265
-557.634
-555.718
-530.373
-481.05
-407.911
-313.826
-208.208
-99.3594
28.8737
235.005
230.961
218.071
196.555
174.703
167.021
180.654
221.851
273.757
274.209
223.243
161.024
97.0953
41.068
-15.7598
-102.808
-209.977
-314.714
-403.808
-472.263
-518.339
-541.257
-540.064
-514.784
-464.751
-389.479
-290.49
-181.416
-73.1033
59.7875
235.119
231.116
218.202
196.523
175.019
169.2
185.747
232.883
288.504
284.03
227.73
160.305
96.8248
46.234
-5.15935
-90.0758
-195.886
-300.799
-391.096
-460.581
-507.201
-530.566
-529.42
-503.362
-451.952
-374.35
-271.786
-162.038
-55.9479
82.2122
240.832
239.123
234.466
227.14
217.801
204.382
182.205
152.957
121.95
85.029
45.9932
9.09628
-23.4476
-50.1418
-72.611
-94.8952
-119.798
-148.335
-180.695
-214.458
-246.62
-272.356
-287.018
-287.915
-272.741
-246.051
-200.379
-167.203
-75.1548
-140.921
240.804
239.061
234.308
226.738
216.906
202.602
179.812
151.116
119.335
81.921
42.7303
5.13997
-28.5724
-56.3719
-79.8363
-103.24
-128.942
-157.495
-188.932
-221.3
-252.195
-277.526
-293.14
-296.27
-284.285
-260.507
-217.776
-182.262
-92.851
-138.311
240.745
238.945
233.985
226.069
215.476
199.625
175.687
147.204
114.063
76.2369
36.9671
-1.43373
-36.5405
-65.0306
-88.8188
-113.226
-140.119
-169.334
-200.59
-232.269
-262.376
-287.426
-303.697
-308.479
-298.892
-277.287
-236.432
-198.986
-108.182
-137.653
240.641
238.756
233.472
225.078
213.372
195.498
170.621
141.433
106.849
69.0726
30.0526
-9.09548
-45.7419
-74.2121
-97.2685
-122.411
-150.919
-181.813
-214.154
-246.459
-276.689
-301.661
-317.982
-323.125
-314.504
-293.595
-253.229
-213.296
-121.27
-134.985
240.478
238.467
232.752
223.64
210.363
190.31
164.424
133.6
98.5164
61.6725
23.4061
-16.6019
-55.2755
-83.0631
-103.958
-129.294
-159.582
-192.616
-226.902
-260.959
-292.242
-317.499
-333.454
-337.964
-328.513
-307.061
-266.758
-224.29
-131.718
-131.416
240.25
238.072
231.82
221.707
206.455
184.356
157.076
124.875
90.4185
55.6128
18.6461
-22.3541
-64.3371
-90.4284
-106.897
-131.649
-163.73
-199.347
-236.776
-274.06
-307.769
-334.11
-349.634
-352.304
-340.465
-316.731
-275.548
-230.69
-138.548
-127.175
239.966
237.588
230.685
219.265
201.802
177.735
148.861
116.452
84.0374
52.8479
18.3513
-24.746
-73.6981
-97.0065
-104.542
-127.175
-161.645
-200.788
-243.082
-285.463
-323.383
-352.06
-367.52
-367.533
-351.779
-324.11
-280.438
-232.777
-141.751
-122.234
239.649
237.054
229.403
216.392
196.657
170.781
140.779
109.416
79.9985
53.0332
21.7732
-29.2326
-87.4775
-103.344
-95.8504
-114.287
-152.685
-197.657
-247.401
-297.372
-341.432
-373.81
-389.575
-386.334
-365.311
-331.459
-283.355
-232.135
-142.319
-116.76
239.333
236.519
228.067
213.291
191.251
163.907
133.753
104.493
81.171
59.1532
19.4711
-4.14303
-88.4484
-116.73
-77.0953
-92.5736
-138.831
-194.655
-255.417
-315.35
-367.056
-403.337
-418.851
-411.778
-383.517
-341.321
-286.623
-230.415
-141.138
-110.678
239.054
236.014
226.735
210.256
186.212
157.686
128.537
103.172
87.2651
76.913
40.0959
-18.3787
-64.1039
-78.8831
-53.341
-80.9816
-139.758
-207.638
-279.836
-348.827
-405.677
-443.598
-457.322
-444.317
-407.544
-355.264
-292.007
-229.146
-139.315
-103.463
238.852
235.594
225.426
207.127
181.296
152.402
125.37
105.398
98.4184
95.0932
60.7126
-26.5909
-31.7387
-47.9091
-48.7241
-86.571
-157.464
-238.628
-322.252
-398.529
-458.428
-495.076
-504.39
-484.242
-437.39
-373.778
-300.596
-229.712
-138.055
-95.1099
238.755
235.297
224.206
204.032
176.525
148.147
124.416
110.859
113.143
116.325
83.2337
22.7145
-9.05235
-26.9802
-40.2864
-99.5452
-185.688
-278.604
-368.951
-447.99
-507.946
-542.763
-548.596
-523.176
-468.508
-394.826
-311.885
-232.316
-137.859
-85.475
238.789
235.154
223.13
201.281
172.774
145.395
125.69
119.238
128.183
137.485
133.909
82.9642
38.8729
14.6296
-28.6824
-115.669
-215.966
-316.525
-409.688
-488.435
-546.197
-577.843
-580.553
-552.213
-493.406
-413.664
-323.589
-236.062
-138.42
-74.1524
238.963
235.179
222.327
199.035
169.72
143.983
128.884
129.549
147.027
162.344
154.282
116.766
79.1138
33.188
-38.0837
-136.44
-240.299
-342.358
-435.687
-512.474
-567.162
-595.866
-596.36
-566.647
-507.026
-425.556
-332.099
-238.661
-138.527
-60.4724
239.273
235.39
221.763
197.102
167.388
143.843
133.629
142.917
170.269
187.167
172.978
140.841
98.7375
28.6102
-59.413
-152.206
-252.963
-355.101
-447.422
-521.354
-572.912
-599.094
-597.892
-567.676
-508.971
-428.399
-334.429
-237.457
-136.078
-43.4336
239.692
235.735
221.389
195.511
165.799
144.877
140.525
159.97
198.045
216.7
196.959
157.804
99.3253
17.008
-66.0557
-154.281
-254.801
-356.445
-446.709
-518.335
-567.801
-592.304
-589.546
-558.899
-501.196
-422.036
-328.988
-230.438
-128.544
-22.0162
240.171
236.161
221.196
194.258
164.78
146.893
149.228
179.767
230.286
248.063
214.375
161.654
93.6863
16.737
-58.5191
-146.123
-247.138
-348.549
-437.679
-508.288
-556.216
-578.703
-573.855
-542.513
-486.201
-408.847
-316.202
-216.059
-113.927
4.17483
240.634
236.596
221.173
193.296
164.07
149.415
158.08
201.486
263.553
273.342
225.471
162.242
91.1573
22.2572
-46.8463
-133.177
-233.764
-334.543
-422.35
-491.208
-537.269
-558.121
-552.654
-522.295
-468.446
-392.888
-298.335
-194.612
-92.715
34.3759
241.002
236.982
221.313
192.63
163.616
152.222
166.844
223.086
291.545
291.79
234.241
161.545
90.6845
27.5524
-35.652
-119.477
-218.433
-317.733
-404.08
-471.041
-515.426
-536.372
-532.507
-503.99
-451.358
-375.1
-276.66
-170.691
-70.4241
62.5776
241.181
237.255
221.538
192.154
163.211
154.644
173.455
237.885
309.133
304.236
239.87
160.96
90.355
31.5259
-27.1737
-108.41
-205.239
-303.482
-390.181
-457.78
-502.5
-523.994
-520.825
-492.445
-439.02
-360.986
-260.071
-154.315
-56.9654
82.6368
244.436
242.74
238.045
230.567
220.167
203.263
178.037
150.66
120.258
83.5998
45.9186
10.851
-19.7692
-45.3494
-68.0053
-91.7802
-119.36
-151.373
-187.406
-224.014
-258.024
-284.645
-299.643
-300.709
-285.575
-258.963
-211.904
-177.264
-78.453
-146.833
244.487
242.768
237.949
230.144
219.087
201.434
176.655
148.934
117.239
80.2317
42.4315
6.81934
-24.7875
-51.3954
-74.9817
-99.6209
-127.583
-159.222
-194.189
-229.527
-262.592
-289.187
-305.498
-309.176
-297.726
-274.399
-230.671
-193.778
-98.1942
-143.872
244.575
242.813
237.795
229.723
217.737
198.633
173.448
144.875
111.268
73.8329
35.9864
-0.183998
-32.8131
-60.0928
-84.0995
-109.547
-138.289
-170.25
-204.955
-239.842
-272.553
-299.318
-316.602
-322.103
-313.251
-292.366
-250.975
-212.257
-115.645
-142.903
244.675
242.835
237.529
228.991
215.597
194.687
168.53
138.016
102.804
65.2865
27.6926
-8.87142
-42.4204
-69.7329
-93.307
-119.333
-149.242
-182.398
-217.863
-253.333
-286.383
-313.431
-331.099
-337.184
-329.378
-309.473
-269.197
-228.078
-130.684
-139.878
244.758
242.79
237.092
227.718
212.364
189.439
161.543
128.644
92.5715
55.6339
18.767
-18.0898
-52.61
-79.2123
-101.165
-127.195
-158.263
-193.027
-229.851
-266.849
-300.972
-328.579
-346.253
-351.906
-343.666
-323.548
-283.614
-239.812
-142.53
-135.905
244.801
242.659
236.436
225.804
208.047
182.854
152.505
117.781
81.8254
46.3581
10.7526
-26.3589
-61.9549
-86.7539
-105.385
-130.618
-162.749
-199.432
-238.86
-278.689
-315.07
-343.869
-361.407
-365.647
-355.384
-333.172
-292.542
-246.356
-150.183
-131.128
244.804
242.46
235.543
223.234
202.753
175.048
142.195
106.645
72.0008
39.2398
5.73333
-31.8804
-69.0707
-90.7029
-103.535
-127.088
-160.773
-200.549
-244.4
-288.976
-329.364
-360.38
-378.039
-379.9
-366.138
-339.851
-296.841
-247.898
-153.592
-125.494
244.784
242.228
234.467
220.079
196.696
166.429
131.646
96.4247
64.5202
35.5862
5.30532
-34.4865
-74.0309
-90.3928
-94.0855
-115.401
-152.402
-197.51
-248.573
-300.524
-346.787
-381.176
-398.927
-397.748
-378.343
-345.832
-298.772
-246.192
-153.727
-119.128
244.767
242.003
233.294
216.56
190.146
157.507
121.86
88.4151
61.4066
38.008
13.0891
-29.1954
-65.1312
-74.1625
-74.5605
-96.4016
-140.601
-195.777
-257.55
-319.175
-372.623
-410.539
-427.807
-422.099
-394.961
-353.841
-300.216
-242.719
-151.542
-111.956
244.789
241.807
232.041
213.004
183.731
148.985
113.758
83.9269
63.6635
49.3667
28.6641
-18.9172
-43.6096
-48.8169
-51.308
-82.9362
-139.494
-207.511
-281.18
-352.156
-411.372
-450.736
-465.395
-453.39
-417.233
-365.315
-302.925
-239.094
-148.234
-103.501
244.88
241.7
230.759
209.143
177.194
141.269
107.906
83.4822
71.9814
66.6766
50.6992
5.5936
-11.4656
-22.8936
-38.9944
-82.8731
-153.426
-235.948
-321.67
-400.249
-461.949
-499.53
-509.363
-490.378
-444.144
-380.299
-307.982
-236.593
-144.989
-93.7939
245.071
241.721
229.496
205.132
170.696
134.722
104.677
87.4175
86.1167
88.4806
79.3919
40.2547
16.7314
1.74541
-28.4258
-91.0477
-177.87
-273.318
-366.333
-447.261
-508.745
-544.727
-551.016
-525.869
-470.84
-396.685
-314.967
-235.587
-142.429
-82.7352
245.392
241.894
228.302
201.415
165.148
129.748
104.329
95.5977
104.509
115.646
115.512
83.1836
53.8583
26.8853
-22.8889
-106.56
-206.32
-308.685
-404.446
-485.594
-545.459
-578.636
-581.496
-551.815
-490.952
-410.186
-321.621
-235.224
-140.284
-70.0079
245.852
242.233
227.333
198.039
160.264
126.428
106.725
107.088
127.043
146.583
143.741
115.358
83.1639
36.7047
-35.466
-127.892
-229.452
-332.709
-429.524
-509.328
-566.422
-596.865
-597.475
-565.189
-501.464
-417.616
-325.501
-233.754
-137.485
-55.1282
246.45
242.772
226.622
194.954
156.181
124.794
111.138
121.315
154.789
179.929
169.475
138.117
95.7384
27.8693
-55.6969
-145.807
-245.389
-347.74
-442.528
-518.808
-572.584
-600.488
-599.296
-565.825
-501.618