/*--------------------------------*- C++ -*----------------------------------*\
| =========                 |                                                 |
| \\      /  F ield         | OpenFOAM: The Open Source CFD Toolbox           |
|  \\    /   O peration     | Version:  2512                                  |
|   \\  /    A nd           | Website:  www.openfoam.com                      |
|    \\/     M anipulation  |                                                 |
\*---------------------------------------------------------------------------*/
FoamFile
{
    version     2.0;
    format      ascii;
    arch        "LSB;label=32;scalar=64";
    class       surfaceScalarField;
    location    "100";
    object      phi;
}
// * * * * * * * * * * * * * * * * * * * * * * * * * * * * * * * * * * * * * //

dimensions      [0 3 -1 0 0 0 0];

oriented        oriented;

internalField   nonuniform List<scalar> 
278528
(
1.60311
0.000794236
-0.00403577
1.61479
0.00247197
-0.0142824
1.63419
0.00460729
-0.0241369
1.65867
0.00731458
-0.0319796
1.68377
0.011118
-0.0364956
1.71044
0.0133315
-0.0402898
1.75396
0.0126463
-0.0562549
1.85218
0.00683414
-0.104985
2.02777
0.0103619
-0.185651
2.2678
0.0115583
-0.251245
2.51546
0.0255812
-0.27292
2.7338
0.042682
-0.260822
2.94468
0.023857
-0.234656
3.1061
0.0447857
-0.206345
3.23619
0.0487985
-0.179372
3.33966
0.0541797
-0.158215
3.4162
0.0703748
-0.147478
3.47053
0.0978166
-0.15268
3.50216
0.15001
-0.182151
3.52162
0.224067
-0.243986
3.54613
0.317721
-0.342612
3.59454
0.419579
-0.468265
3.67646
0.512891
-0.594961
3.7861
0.582417
-0.692067
3.90611
0.620375
-0.740252
4.01366
0.628152
-0.735383
4.09246
0.613889
-0.69209
4.12452
0.583399
-0.614597
4.14618
0.550308
-0.571227
0.465176
-0.458581
1.60361
0.0010765
-0.00405418
1.61582
0.00450579
-0.0143951
1.63551
0.00899623
-0.024219
1.65956
0.01493
-0.0318635
1.68437
0.0230992
-0.0370637
1.71246
0.0291378
-0.0441557
1.75916
0.0336237
-0.0677967
1.85985
0.0312563
-0.125009
2.03081
0.0426776
-0.203015
2.25843
0.0465739
-0.262275
2.4961
0.0713904
-0.283177
2.7075
0.10719
-0.275697
2.91238
0.0742378
-0.255206
3.06959
0.119163
-0.231747
3.19851
0.126582
-0.207142
3.30448
0.13294
-0.185271
3.38894
0.155525
-0.170169
3.45231
0.199313
-0.165403
3.49663
0.282072
-0.176889
3.52719
0.40358
-0.210512
3.55517
0.562001
-0.272629
3.59611
0.741505
-0.363133
3.66241
0.915433
-0.468981
3.75521
1.05537
-0.565763
3.86355
1.14267
-0.630481
3.96776
1.17499
-0.650688
4.05145
1.16345
-0.632589
4.09508
1.11906
-0.578357
4.13116
1.06289
-0.547827
0.915343
-0.454628
1.60374
0.00135433
-0.0041727
1.61636
0.00644063
-0.0147038
1.63632
0.0134165
-0.0245118
1.66037
0.0226144
-0.0319266
1.6849
0.0360549
-0.0377361
1.71426
0.0492972
-0.0497676
1.76916
0.0629266
-0.0842992
1.8775
0.0746569
-0.151657
2.0496
0.0963382
-0.225505
2.27211
0.0994253
-0.275005
2.503
0.13046
-0.289659
2.70875
0.183357
-0.28173
2.90695
0.140499
-0.264417
3.05762
0.213711
-0.245354
3.18372
0.224009
-0.223915
3.29141
0.227006
-0.202239
3.3815
0.248498
-0.183579
3.45449
0.296028
-0.170209
3.51007
0.391157
-0.165127
3.54999
0.535191
-0.171951
3.57966
0.729024
-0.197026
3.60957
0.958855
-0.247509
3.6528
1.19621
-0.324135
3.71771
1.40343
-0.412952
3.80189
1.54871
-0.490048
3.89142
1.62022
-0.534372
3.97052
1.62743
-0.542377
4.01814
1.58448
-0.512056
4.05998
1.5189
-0.496951
1.33075
-0.420866
1.60398
0.00155528
-0.00433039
1.6171
0.00831745
-0.0151366
1.63779
0.0176081
-0.0249923
1.66218
0.0302749
-0.0322238
1.68766
0.0495878
-0.0392363
1.72041
0.0730493
-0.0567162
1.78362
0.101048
-0.101397
1.90245
0.129801
-0.173861
2.07502
0.161363
-0.237273
2.29269
0.155257
-0.273116
2.51953
0.180036
-0.276146
2.72259
0.244539
-0.264073
2.91229
0.198799
-0.247938
3.05362
0.307256
-0.235024
3.17522
0.320913
-0.218842
3.28417
0.316829
-0.199209
3.38035
0.331055
-0.179205
3.46334
0.372943
-0.160376
3.53091
0.46665
-0.143499
3.58157
0.614026
-0.129863
3.61544
0.818493
-0.123654
3.63692
1.07148
-0.134329
3.65612
1.35153
-0.174652
3.68631
1.61898
-0.245727
3.73513
1.82888
-0.328809
3.7977
1.95308
-0.395016
3.86104
1.99421
-0.429375
3.9031
1.96718
-0.423683
3.94166
1.90603
-0.424708
1.69861
-0.364909
1.60425
0.00168535
-0.00452927
1.61812
0.0100065
-0.0156723
1.63999
0.0213107
-0.0256637
1.6656
0.03737
-0.0328552
1.69427
0.0620687
-0.0413417
1.73281
0.0987634
-0.0644042
1.80695
0.143156
-0.116242
1.92966
0.189095
-0.181769
2.09991
0.221071
-0.229527
2.30898
0.190573
-0.244187
2.53516
0.179406
-0.225391
2.77583
0.21043
-0.206415
2.92108
0.248888
-0.195359
3.04922
0.370533
-0.191618
3.16327
0.392414
-0.185934
3.27149
0.379426
-0.171252
3.3722
0.381799
-0.151922
3.46407
0.411416
-0.130794
3.54357
0.494375
-0.107641
3.60738
0.631805
-0.081941
3.65048
0.828829
-0.0537254
3.67044
1.08169
-0.0303995
3.67289
1.37892
-0.0299787
3.67043
1.69255
-0.07112
3.67714
1.9735
-0.151155
3.70094
2.16638
-0.236686
3.73647
2.25816
-0.298692
3.76269
2.26168
-0.319559
3.78932
2.218
-0.337507
2.01227
-0.29367
1.60457
0.00174637
-0.00476043
1.61961
0.0111657
-0.0162998
1.64289
0.0244844
-0.0265152
1.67041
0.0435339
-0.0338046
1.70253
0.0734871
-0.0436895
1.7526
0.120082
-0.0714663
1.83538
0.183366
-0.12282
1.95711
0.240568
-0.17283
2.11319
0.260581
-0.195455
2.29185
0.185865
-0.173672
2.54147
0.0464679
-0.116623
2.77371
0.0643281
-0.0859005
2.9253
0.190427
-0.0931381
3.03583
0.373468
-0.11369
3.13704
0.415427
-0.124728
3.24115
0.390092
-0.115267
3.34398
0.374356
-0.0958631
3.44225
0.386904
-0.0741919
3.5331
0.452694
-0.0495396
3.60778
0.57607
-0.0192639
3.65497
0.762223
0.0191399
3.66921
1.00549
0.0617492
3.65795
1.29585
0.0941825
3.63871
1.62277
0.0889864
3.62132
1.96056
0.0304678
3.60977
2.24142
-0.0630691
3.60949
2.41245
-0.153196
3.60983
2.46639
-0.203796
3.61541
2.45394
-0.240322
2.26906
-0.212343
1.605
0.00163546
-0.00500808
1.62125
0.0118478
-0.017003
1.64696
0.026392
-0.0276552
1.67764
0.0479073
-0.0351492
1.71398
0.0826711
-0.045631
1.77254
0.136241
-0.0746752
1.86331
0.210554
-0.117646
1.97158
0.276116
-0.143564
2.08996
0.2697
-0.126948
2.25045
0.0265487
-0.0393252
-0.013505
0.0426812
0.00910253
2.51292
-0.0682702
0.082692
-0.0996109
-0.0532666
-0.0778014
2.77503
-0.108858
0.112994
-0.0860384
-0.0695182
-0.0461316
2.89387
-0.025883
0.0532177
-0.000707373
0.0139163
0.0311563
2.97995
0.0481903
-0.0184495
0.0678599
0.0870597
0.102435
3.05653
0.391883
-0.0536462
3.14453
0.345846
-0.0442858
3.25108
0.284684
-0.0173595
3.35222
0.275744
0.00958997
3.44764
0.322172
0.0347497
3.53018
0.433357
0.0598762
3.59051
0.610633
0.0910018
3.61578
0.847771
0.132214
3.60176
1.13147
0.178222
3.56572
1.45184
0.206901
3.53198
1.80789
0.186531
3.50587
2.16143
0.10648
3.48225
2.43543
0.00147264
3.45417
2.57466
-0.0788695
3.43111
2.61495
-0.136643
2.46935
-0.125149
1.60528
0.00154698
-0.00528455
1.62318
0.0116937
-0.0177864
1.65208
0.0268405
-0.0293588
1.68752
0.0497156
-0.0373299
1.72881
0.0877979
-0.0464778
1.79136
0.146008
-0.0721707
1.88113
0.222122
-0.100979
1.96335
0.287547
-0.0930859
0.485029
0.0561604
-0.0176711
0.47651
0.530204
0.520562
0.0448844
0.0759407
0.0614919
0.485768
-0.000239017
0.0261496
0.524875
-0.133342
0.0478563
-0.507794
-0.546578
0.594283
-0.22243
0.0660743
-0.622492
0.651059
-0.0725709
0.0183532
-0.660192
0.668138
0.036559
0.0036744
2.76362
0.369557
-0.0328583
-0.672293
-0.641402
-0.721882
-0.673653
2.84884
0.239763
0.0202413
2.94457
0.120818
0.06764
3.05052
0.0673475
0.102057
3.16133
0.0865051
0.124573
3.26961
0.185674
0.139172
3.36548
0.360504
0.154039
3.43365
0.60002
0.179351
3.45683
0.888408
0.219671
3.43584
1.20837
0.264347
3.39846
1.56316
0.282167
3.36599
1.95388
0.240377
3.33577
2.32062
0.145855
3.29382
2.56895
0.0490271
3.24435
2.69228
-0.0264527
2.60782
-0.0311325
1.60565
0.00139772
-0.00557832
1.6248
0.011144
-0.0186024
1.65661
0.0257424
-0.0307067
1.69745
0.0485358
-0.0397117
1.74626
0.0865877
-0.0476405
1.81111
0.146057
-0.0647247
1.89252
0.215542
-0.0743547
0.467197
0.272505
-0.0300616
0.466365
0.503337
0.501247
0.450956
0.0513933
0.0211646
0.41344
-0.0788065
0.0672302
0.031769
-0.433251
0.278836
0.131918
-0.379774
0.19062
-0.052379
-0.0607462
-0.0564715
-0.0521933
0.48478
-0.317078
0.3073
-0.0504805
-0.09251
-0.0846321
-0.0694737
-0.0475312
-0.0325699
-0.0345838
-0.063412
-0.535656
0.547297
0.0723605
-0.00882359
-0.0248107
-0.00795139
-0.0198661
0.00388899
-0.015385
-0.00671664
-0.0041983
-0.532292
0.511832
-0.0457136
-0.000759312
0.00642678
0.0102002
-0.000733466
0.00782466
0.0181231
0.0177887
0.00702763
1.85769
0.103399
0.151882
-0.490153
-0.356012
-0.519843
-0.378499
2.02202
-0.0846817
0.159434
2.21242
-0.25427
0.184218
2.4306
-0.347522
0.196372
2.64618
-0.331939
0.202676
2.83194
-0.207239
0.207013
2.98033
-0.000191946
0.212154
3.09255
0.26432
0.223277
3.16303
0.571718
0.245991
3.1872
0.903048
0.280999
3.18098
1.25503
0.314356
3.16839
1.65477
0.31202
3.14976
2.0884
0.251664
3.10904
2.44755
0.163526
3.04374
2.67595
0.0831043
2.67489
0.0673541
1.60606
0.00116642
-0.0058824
1.62658
0.0100695
-0.0194139
1.66044
0.0235729
-0.0316529
1.70565
0.0448244
-0.0415587
1.76126
0.0796709
-0.0487477
1.82963
0.13339
-0.0555223
1.89564
0.196377
-0.0463154
0.459808
0.243455
0.026645
0.457447
0.492505
0.488971
0.42269
0.0522504
0.035478
-0.0504216
0.0131298
-0.0869918
0.0741413
-0.0163606
0.0162497
0.05446
-0.0181961
0.00513587
-0.00668319
-0.00672795
-0.0115593
-0.00886804
-0.00745523
0.0755577
-0.0683145
0.118395
-0.0561782
-0.0145483
-0.0223417
-0.0111
-0.0217337
-0.121193
0.041824
0.111313
-0.042886
0.0021087
0.00330176
0.00249106
0.00299743
-0.104768
0.0301579
-0.0382935
0.0161983
0.0966463
0.949216
-0.600772
0.173443
-0.168799
-0.0765588
-0.132141
-0.0421556
1.55483
-0.792178
0.101262
2.10023
-0.910396
0.110384
2.5301
-0.912802
0.135218
2.82792
-0.792351
0.162525
3.01
-0.573257
0.183934
3.09737
-0.291178
0.203582
3.11155
0.0207925
0.229233
3.07695
0.3458
0.260323
3.01408
0.674114
0.291641
2.95215
0.997349
0.319568
2.92192
1.3523
0.332971
2.91476
1.78951
0.306857
2.88909
2.23074
0.243915
2.82182
2.5697
0.175042
2.66912
0.158185
1.60648
0.00086228
-0.00619931
1.62844
0.0084977
-0.02033
1.66499
0.0202656
-0.033192
1.7144
0.0389511
-0.0436074
1.77423
0.0687892
-0.0490413
1.84063
0.114409
-0.0472773
1.89578
0.16406
-0.0222457
0.45392
0.19544
0.066809
0.454649
0.483693
0.485558
-0.0554722
0.41265
0.056182
0.040863
-0.0180767
-0.0843105
0.0538801
0.0291899
0.019345
-0.00207434
-0.0484123
0.10322
0.0180702
-0.0163194
-0.0191314
-0.0164242
-0.0191531
0.0452335
-0.131871
0.114325
-0.0606988
0.0330493
-0.0332471
0.0454124
-0.0606621
0.0249863
0.023507
1.55605
-1.18927
-0.160132
-0.146955
-0.230635
-0.157169
-0.273378
2.17566
-1.33243
-0.0797182
2.61737
-1.35043
-0.00189469
2.88995
-1.24969
0.0642233
3.04
-1.04698
0.104627
3.11388
-0.768101
0.121089
3.14547
-0.455982
0.133316
3.13809
-0.132674
0.160859
3.08261
0.193864
0.207305
2.97211
0.524904
0.259561
2.82716
0.842378
0.299846
2.71198
1.1457
0.322001
2.66475
1.51873
0.31879
2.641
1.9709
0.285043
2.57895
2.39512
0.238207
2.59949
0.231363
1.60689
0.000507668
-0.00652756
1.6303
0.00649818
-0.021316
1.67007
0.0158671
-0.0353144
1.72318
0.0312643
-0.0455106
1.78333
0.0557735
-0.0472984
1.8494
0.087333
-0.0389227
1.90114
0.115851
-0.00297264
0.45557
0.123641
0.0916659
0.456347
0.484744
0.48541
-0.0531215
0.428501
0.0436901
0.0368007
-0.0320361
0.133821
0.086921
-0.0415883
-0.0395939
-0.0589943
0.0820173
0.0797631
0.0887445
0.0908698
-0.390139
-0.0779899
-0.0701504
0.0497371
0.0128639
0.0855287
-0.0787444
-0.0410369
0.0657026
-0.0282966
0.0824574
0.00590864
-0.0292315
0.014806
-0.0256196
0.0346591
0.0130461
-0.0423395
-0.0290517
0.0516819
0.00675415
2.24744
-1.51593
-0.161061
-0.354821
-0.445443
-0.434256
-0.525589
2.57409
-1.56917
-0.0900889
2.73165
-1.5085
0.000374165
2.7861
-1.36525
0.0610906
2.79242
-1.12013
0.0670235
2.79675
-0.820036
0.0478918
2.8044
-0.508933
0.0455916
2.80522
-0.21015
0.0768426
2.79115
0.0736088
0.134325
2.74689
0.368942
0.200122
2.64505
0.689902
0.254214
2.5095
0.995694
0.285728
2.41459
1.31706
0.297306
2.37158
1.72537
0.289982
2.31295
2.18501
0.27032
2.47779
0.282746
1.60729
0.000102826
-0.00685163
1.63207
0.0041163
-0.0222677
1.67353
0.0113254
-0.0368423
1.72793
0.0230822
-0.046347
1.78934
0.0405436
-0.0464251
1.85146
0.0585325
-0.0333745
1.89488
0.0617114
0.0111382
1.87498
0.04154
0.102898
0.435233
0.0205395
0.222605
-0.0336092
-0.043481
-0.0400223
-0.0527549
0.439635
0.461953
0.465543
-0.0888623
0.421504
0.0514406
0.0510313
-0.245509
0.461304
0.142381
0.08086
-0.439041
-0.21922
-0.475233
0.495093
0.115886
0.0839166
-0.0556592
-0.492533
0.504646
-0.0626573
0.106086
0.16353
-0.521773
0.548644
-0.251952
0.0612447
2.50371
-1.47297
-0.0869275
-0.578483
-0.598436
-0.633887
-0.649008
2.51658
-1.52613
-0.0559084
2.48334
-1.50785
0.032498
2.42913
-1.35318
0.0422125
2.39146
-1.06589
-0.0162209
2.38617
-0.748651
-0.0655957
2.40105
-0.457161
-0.0661654
2.40703
-0.199459
-0.016292
2.38963
0.0268384
0.0643429
2.3625
0.248177
0.147866
2.31554
0.524353
0.212415
2.22792
0.837283
0.246125
2.13462
1.15147
0.259516
2.07969
1.51459
0.26708
2.02341
1.96984
0.273032
2.31939
0.310152
1.60773
-0.000390602
-0.00717606
1.63311
0.00209081
-0.0231846
1.67568
0.00681647
-0.0379744
1.73094
0.0151249
-0.0474727
1.79204
0.0258635
-0.0467752
1.84959
0.0287226
-0.0279953
1.87757
0.00935173
0.0245728
1.85298
-0.0415366
0.108337
1.80823
-0.125924
0.191779
1.84664
-0.193585
0.257353
-0.0146891
-0.035259
-0.015241
-0.0371808
2.05152
-0.253057
0.301185
-0.0559311
-0.0525656
-0.0695342
-0.0757807
2.25336
-0.52877
0.294188
-0.000662197
0.0402982
-0.0248175
0.0165415
2.32952
-0.907612
0.156443
0.140337
0.191091
0.137485
0.204963
2.31681
-1.19731
-0.0878745
0.279198
0.313472
0.326746
0.378302
2.28837
-1.28235
-0.161883
2.21558
-1.42331
-0.0298562
2.13193
-1.47627
0.052011
2.04545
-1.24615
-0.0204091
2.00908
-0.905031
-0.123971
2.01647
-0.59183
-0.163489
2.03534
-0.341574
-0.13372
2.03518
-0.139299
-0.0593589
1.99827
0.0293183
0.0348186
1.94206
0.180057
0.12442
1.89577
0.381205
0.189322
1.84638
0.668432
0.218209
1.78667
0.988593
0.223025
1.74673
1.32571
0.230079
1.70386
1.76187
0.252403
2.13685
0.312917
1.60794
-0.000723331
-0.00750142
1.63408
0.000289984
-0.0241398
1.67724
0.00322126
-0.039468
1.73277
0.00819639
-0.048829
1.79207
0.0120937
-0.0460409
1.83868
0.00326314
-0.0216808
1.84459
-0.0316078
0.0349206
1.80671
-0.108272
0.105126
1.76579
-0.239602
0.155201
1.79284
-0.395126
0.174423
1.94782
-0.57811
0.169328
2.09466
-0.784021
0.107272
2.15691
-0.894968
-0.0757537
2.12805
-0.952632
-0.215827
2.05351
-1.08726
-0.119911
1.93033
-1.36
0.060124
1.78125
-1.38581
0.0584566
1.68166
-1.05918
-0.0872091
1.65822
-0.697949
-0.182872
1.67261
-0.424695
-0.180475
1.68305
-0.233858
-0.117111
1.66256
-0.0888834
-0.0290266
1.60001
0.0302808
0.062164
1.50847
0.132361
0.13942
1.42872
0.272783
0.18802
1.38202
0.513093
0.201871
1.35799
0.820997
0.191935
1.35442
1.14177
0.188752
1.34444
1.55712
0.216381
1.93511
0.291653
1.6082
-0.00095211
-0.00780994
1.63462
-0.00083942
-0.025053
1.67857
0.000376264
-0.0410043
1.73387
0.00275305
-0.0501672
1.7889
0.00126829
-0.0449224
1.81903
-0.0121083
-0.0156301
1.80506
-0.0583219
0.0402275
1.74592
-0.145665
0.0969105
1.69918
-0.31054
0.118322
1.74287
-0.525633
0.0868012
1.86266
-0.717355
0.0185725
1.98424
-0.816268
-0.0907623
1.99788
-0.686057
-0.223694
1.93885
-0.682462
-0.210845
1.80937
-0.947673
-0.00900158
1.5989
-1.30093
0.151793
1.38922
-1.23358
0.0571364
1.29084
-0.852231
-0.108391
1.27962
-0.526913
-0.15877
1.28884
-0.320271
-0.112146
1.27932
-0.19181
-0.0309962
1.23265
-0.0919942
0.0511452
1.14225
0.000806577
0.120838
1.01774
0.0867166
0.170546
0.900773
0.197588
0.191959
0.839501
0.390873
0.183103
0.840946
0.663031
0.156716
0.887247
0.954221
0.142671
0.937457
1.33869
0.17017
1.70951
0.246702
1.60838
-0.00102272
-0.00807819
1.63516
-0.00139888
-0.0258902
1.6793
-0.00118547
-0.0424927
1.73355
-0.000495264
-0.0514591
1.78181
-0.00424115
-0.0437508
1.79928
-0.0195787
-0.0112706
1.76393
-0.0667633
0.0429905
1.68218
-0.153902
0.0903738
1.62508
-0.331991
0.0793604
1.67583
-0.552771
-0.0236776
1.78413
-0.677089
-0.149753
1.85221
-0.65222
-0.234007
1.86556
-0.448856
-0.25184
1.77236
-0.461885
-0.126767
1.5438
-0.849045
0.131373
1.18016
-1.19056
0.253497
0.885501
-1.02642
0.0869559
0.776497
-0.679325
-0.063625
0.750891
-0.434272
-0.0652654
0.722841
-0.295351
0.00559678
0.669937
-0.214391
0.0778321
0.594827
-0.14412
0.129162
0.493439
-0.0594759
0.162974
0.36212
0.039401
0.179075
0.241249
0.150128
0.16795
0.193235
0.300708
0.137643
0.237134
0.516354
0.103208
0.344403
0.765881
0.0831567
0.482896
1.09118
0.111714
1.44326
0.173608
1.60851
-0.000907908
-0.00830774
1.63552
-0.00144654
-0.0266299
1.67974
-0.00151398
-0.043859
1.73281
-0.00164432
-0.0525302
1.7751
-0.00527633
-0.0425107
1.78082
-0.0187616
-0.00812618
1.72628
-0.0582303
0.0451245
1.61864
-0.130664
0.0847071
1.55343
-0.292755
0.0267406
1.61413
-0.462862
-0.150856
1.722
-0.505608
-0.280889
1.77628
-0.419987
-0.288923
1.76959
-0.234235
-0.209638
1.61683
-0.293451
-0.0143126
1.19619
-0.712585
0.286288
0.592285
-0.957816
0.371851
0.171804
-0.774898
0.168259
-0.0159363
-0.534013
0.0428574
-0.136676
-0.36412
0.0528023
-0.292373
-0.246242
0.109426
-0.48244
-0.168888
0.147041
-0.655927
-0.114734
0.145912
-0.769051
-0.0639378
0.118669
-0.806994
-0.00447323
0.082139
-0.773658
0.0712623
0.0452691
-0.670848
0.181011
0.016605
-0.500048
0.344747
0.00147393
-0.281422
0.548536
0.00123192
-0.0093702
0.782219
0.0403113
1.07877
0.0687539
1.60861
-0.000682946
-0.00847104
1.63568
-0.00094676
-0.0271431
1.68006
-0.000999106
-0.0448473
1.73194
-0.0010279
-0.0531964
1.76945
-0.0030753
-0.0411249
1.76551
-0.0110283
-0.00549838
1.69115
-0.0326484
0.0476946
1.56169
-0.0777924
0.0769627
1.49002
-0.181305
-0.0390784
1.5626
-0.268941
-0.266936
1.67284
-0.263814
-0.353979
1.72335
-0.190379
-0.282875
1.70141
-0.0767416
-0.13658
1.45088
-0.146247
0.105364
0.751752
-0.443742
0.433522
-0.117264
-0.55519
0.467477
-0.740032
-0.412956
0.26045
-1.12244
-0.285891
0.134591
-1.3882
-0.194552
0.0975022
-1.58341
-0.134712
0.0853519
-1.71443
-0.0995228
0.0631505
-1.77591
-0.0775628
0.0254113
-1.77017
-0.053073
-0.0160007
-1.70637
-0.0191119
-0.0490788
-1.58852
0.0253668
-0.0722563
-1.41139
0.0882085
-0.084555
-1.15934
0.180731
-0.0873503
-0.829788
0.293866
-0.0725115
-0.41476
0.401684
-0.0311259
0.582035
-0.0477162
1.60821
-0.00860642
1.63491
-0.0274059
1.67913
-0.0452809
1.73066
-0.0530704
1.76503
-0.0383166
1.753
5.96673e-05
1.66436
0.0555432
1.51615
0.0705981
1.43977
-0.104685
1.52503
-0.354656
1.63785
-0.37787
1.68913
-0.243105
1.66012
-0.0482013
1.30416
0.211194
0.35203
0.5103
-0.687079
0.484407
-1.38096
0.280761
-1.80401
0.13737
-2.06281
0.0649215
-2.21643
0.0197226
-2.29745
-0.0177828
-2.3229
-0.0516105
-2.29372
-0.0819998
-2.20725
-0.105584
-2.06046
-0.121556
-1.84087
-0.131405
-1.52124
-0.138376
-1.09859
-0.127418
-0.602649
-0.0925661
-0.15798
1.60341
0.000719352
-0.00838302
1.61545
0.00236313
-0.0288871
1.63584
0.00455607
-0.0492579
1.66336
0.00779292
-0.0674674
1.70105
0.0128229
-0.0872043
1.76445
0.0207092
-0.124558
1.88751
0.0259686
-0.205377
2.08945
0.0240175
-0.330949
2.33658
0.022942
-0.455663
2.58244
0.0197884
-0.516795
2.81138
0.0118443
-0.513603
2.99024
0.0294387
-0.469052
3.16
0.0040712
-0.408447
3.29229
0.0142907
-0.352982
3.39103
0.0274788
-0.30577
3.46914
0.0382468
-0.274808
3.53496
0.0580758
-0.271603
3.59016
0.0941542
-0.302265
3.64913
0.149527
-0.390879
3.72782
0.212785
-0.535697
3.83358
0.278305
-0.726919
3.96047
0.338213
-0.933595
4.09297
0.386849
-1.11451
4.2131
0.422174
-1.23452
4.30885
0.44586
-1.28194
4.3542
0.456636
-1.23733
4.34552
0.461493
-1.14468
4.28483
0.457619
-1.01115
4.17168
0.448256
-0.905966
0.397421
-0.729649
1.60385
0.00103131
-0.00840761
1.61644
0.00437518
-0.0291614
1.63734
0.00887041
-0.049579
1.6657
0.0159435
-0.0685291
1.70504
0.0272934
-0.0910543
1.77134
0.0426331
-0.132547
1.89228
0.0539194
-0.216781
2.08069
0.0532238
-0.342638
2.31124
0.0530476
-0.463622
2.54426
0.0487743
-0.524182
2.76174
0.0395515
-0.528265
2.93871
0.0710545
-0.494215
3.10617
0.0230865
-0.441653
3.24122
0.0408597
-0.393423
3.34551
0.0655037
-0.349652
3.43301
0.0809077
-0.315673
3.51028
0.112343
-0.301962
3.57374
0.174715
-0.309678
3.64001
0.266269
-0.360163
3.71768
0.377889
-0.45355
3.81302
0.499058
-0.58899
3.92466
0.614163
-0.750973
4.04319
0.711134
-0.912012
4.15606
0.786838
-1.04346
4.25098
0.833304
-1.11292
4.30686
0.862571
-1.11245
4.31748
0.877139
-1.05861
4.28
0.876225
-0.959032
4.1946
0.860987
-0.874721
0.778594
-0.722454
1.60395
0.00135222
-0.00862238
1.61705
0.00627744
-0.0298578
1.6387
0.0131952
-0.050607
1.66891
0.0244751
-0.0708019
1.71251
0.0429866
-0.0971972
1.78607
0.0668725
-0.147705
1.91501
0.0846328
-0.244047
2.09786
0.0920353
-0.373331
2.31343
0.093154
-0.481123
2.53117
0.0864028
-0.530286
2.72856
0.0817745
-0.529185
2.91551
0.102391
-0.499951
3.08144
0.0486292
-0.455864
3.21114
0.0807486
-0.41501
3.31584
0.111746
-0.37503
3.40778
0.125835
-0.339323
3.49163
0.159794
-0.315126
3.56531
0.234317
-0.303744
3.63729
0.346543
-0.317631
3.71199
0.491052
-0.36006
3.79423
0.655837
-0.436293
3.88532
0.819822
-0.544476
3.98023
0.967302
-0.675406
4.07833
1.07581
-0.800157
4.15707
1.15428
-0.889805
4.21102
1.20401
-0.929682
4.2285
1.23276
-0.915199
4.20394
1.24073
-0.851505
4.13326
1.22771
-0.792525
1.12871
-0.666824
1.60419
0.00159603
-0.00893931
1.61788
0.00815383
-0.0308424
1.64099
0.0172751
-0.0522795
1.67399
0.0331647
-0.0740391
1.72365
0.0594182
-0.105462
1.80714
0.0934008
-0.166862
1.94294
0.12068
-0.273323
2.12314
0.135104
-0.397113
2.32533
0.138941
-0.485188
2.53076
0.12447
-0.516509
2.72966
0.111244
-0.504437
2.90877
0.133443
-0.47417
3.06696
0.0724698
-0.429973
3.19104
0.121995
-0.400427
3.29281
0.15906
-0.368103
3.38638
0.166499
-0.333661
3.47504
0.194268
-0.30259
3.55676
0.268507
-0.276529
3.63432
0.386603
-0.261373
3.70819
0.548133
-0.261047
3.77968
0.743431
-0.282954
3.85009
0.949353
-0.334478
3.92174
1.14358
-0.422735
3.9871
1.29242
-0.527806
4.0436
1.40264
-0.633707
4.08357
1.47555
-0.706408
4.09635
1.52187
-0.730938
4.07422
1.54396
-0.704252
4.00919
1.54112
-0.672549
1.43996
-0.575141
1.60446
0.0017762
-0.00933562
1.61909
0.00980669
-0.032077
1.6442
0.0209234
-0.0545067
1.68154
0.0409766
-0.0781048
1.7356
0.0794062
-0.115504
1.83298
0.115933
-0.184423
1.97436
0.157841
-0.294814
2.14783
0.179523
-0.399614
2.33781
0.181043
-0.461497
2.53425
0.149154
-0.465186
2.73368
0.112954
-0.426463
2.94766
0.10135
-0.388276
3.06164
0.115428
-0.352328
3.17193
0.162055
-0.342085
3.26449
0.202701
-0.322352
3.35488
0.196543
-0.291937
3.445
0.208974
-0.256999
3.53328
0.270503
-0.22133
3.61813
0.381236
-0.187358
3.69647
0.545145
-0.157516
3.76508
0.758089
-0.137203
3.81712
1.0041
-0.137363
3.86586
1.23706
-0.172355
3.89993
1.43703
-0.249887
3.92578
1.58166
-0.35602
3.94108
1.67919
-0.455495
3.93813
1.74475
-0.518258
3.90852
1.78443
-0.529823
3.84083
1.79829
-0.526389
1.70822
-0.458073
1.60489
0.00178376
-0.00981408
1.62072
0.0110921
-0.033516
1.64817
0.0240506
-0.0571538
1.69
0.0478193
-0.0825642
1.76001
0.0909344
-0.125317
1.86144
0.140596
-0.197624
2.00502
0.189409
-0.297934
2.16875
0.218213
-0.375147
2.34159
0.212668
-0.399727
2.52658
0.148089
-0.357525
2.74808
0.0465046
-0.271783
2.93593
0.0548039
-0.227201
3.08494
0.0944314
-0.221228
3.1446
0.237459
-0.248955
3.21512
0.251718
-0.244573
3.29463
0.21653
-0.215058
3.38184
0.200165
-0.174558
3.4757
0.234544
-0.13237
3.57137
0.325747
-0.0899678
3.66351
0.480263
-0.0467334
3.74048
0.702561
-0.00249907
3.80255
0.967704
0.0359128
3.83079
1.25378
0.0490876
3.83211
1.51168
0.0129346
3.81815
1.70312
-0.0770104
3.7984
1.82765
-0.191617
3.76938
1.90975
-0.288765
3.72242
1.96723
-0.338963
3.64369
2.00169
-0.364307
1.93317
-0.324768
1.60513
0.00181351
-0.0103119
1.62291
0.011485
-0.0352511
1.65342
0.026213
-0.0603576
1.70083
0.0527095
-0.0875134
1.7771
0.0999583
-0.130997
1.88735
0.158666
-0.203004
2.02706
0.211155
-0.279005
2.17865
0.243522
-0.320262
2.334
0.223785
-0.293475
2.4857
0.0379545
-0.177494
0.0224014
0.03961
0.0344138
2.72108
-0.0241224
-0.00615342
-0.0419214
-0.00597208
-0.0281061
2.94916
-0.0341704
0.0190475
-0.0194515
-0.0169093
-0.00881214
3.046
0.0270254
-0.0747054
0.0370523
0.0304238
0.0308581
3.07105
0.0917459
-0.167625
0.0950018
0.088706
0.0858831
3.09718
0.339469
-0.167967
3.15641
0.231011
-0.118366
3.245
0.154407
-0.0605272
3.35307
0.14635
-0.0105645
3.47131
0.209662
0.0323572
3.58472
0.352871
0.0736594
3.68919
0.568772
0.120141
3.76322
0.852413
0.17332
3.7954
1.17885
0.220852
3.78231
1.50064
0.230972
3.73485
1.76112
0.176004
3.67149
1.93227
0.0653997
3.60379
2.03526
-0.0558852
3.5293
2.10532
-0.141709
3.43128
2.159
-0.195164
2.11817
-0.183278
1.60554
0.0016926
-0.0108297
1.62477
0.0115511
-0.0371311
1.6588
0.0262865
-0.063468
1.71196
0.0544768
-0.092311
1.7963
0.104441
-0.13534
1.91367
0.16578
-0.19662
2.0454
0.220171
-0.241553
2.18291
0.249763
-0.236759
0.569633
0.063901
-0.142988
0.56414
0.586242
0.581994
0.0549499
0.0594606
0.0517732
-0.0200046
0.58418
0.0291162
0.0142948
-0.0739762
0.634817
-0.0460925
0.0730622
-0.612069
-0.0725293
-0.670141
0.720819
-0.076683
0.0644516
-0.00465592
-0.748849
0.759626
0.0362571
-0.0153167
0.0163625
-0.752548
0.742291
0.128558
-0.0429862
2.7683
0.427019
-0.1115
-0.721039
-0.674717
-0.714762
-0.667307
2.8415
0.176575
0.00103687
2.96214
0.018134
0.082917
3.11104
-0.0386539
0.137864
3.26892
0.00439686
0.171731
3.42033
0.143334
0.197121
3.55247
0.365785
0.224734
3.65489
0.659489
0.269705
3.71166
1.01175
0.329865
3.70991
1.38896
0.377702
3.65351
1.72939
0.370327
3.5614
1.977
0.287941
3.45363
2.12685
0.162513
3.34133
2.2164
0.0510601
3.21519
2.28598
-0.0264487
2.27334
-0.0396929
1.60592
0.00148899
-0.0114007
1.62676
0.0109208
-0.0388282
1.66417
0.0253006
-0.0671144
1.72173
0.0531516
-0.0959898
1.81387
0.101017
-0.136375
1.93276
0.162143
-0.17991
2.05789
0.213232
-0.192348
0.537728
0.236606
-0.134479
0.535035
0.553044
0.549851
-0.0119136
0.544042
0.0646653
0.00486864
0.5525
0.024315
0.0933727
-0.0981169
-0.0224252
-0.549643
0.180565
-0.177397
-0.567727
0.0559342
0.140769
0.138993
0.130877
0.146669
-0.00733643
-0.0147515
-0.0145548
-0.0122665
0.0406004
-0.140542
0.0415727
0.155414
-0.0617304
-0.0353017
-0.157123
0.0300654
-0.0104903
0.154667
0.0186506
-0.0357817
-0.151745
-0.00238015
-0.0423428
0.0495374
-0.00369467
0.150611
2.03256
0.287161
0.142073
-0.532889
-0.411265
-0.525656
-0.413909
2.2401
-0.0915784
0.219511
2.48559
-0.312125
0.268611
2.73913
-0.38717
0.291072
2.97519
-0.325444
0.296273
3.17783
-0.149545
0.297116
3.34211
0.108778
0.304756
3.46713
0.425644
0.331977
3.54714
0.791893
0.385714
3.56992
1.19684
0.450265
3.52992
1.59942
0.484333
3.43708
1.93471
0.447344
3.30923
2.16319
0.343682
3.16497
2.29959
0.225472
3.00676
2.39434
0.133884
2.40901
0.101037
1.60633
0.00120587
-0.0120126
1.6286
0.00971708
-0.0404554
1.6698
0.0230099
-0.0705296
1.73441
0.0483536
-0.101412
1.82963
0.0918465
-0.134821
1.94802
0.146179
-0.157852
2.06285
0.190921
-0.138604
0.5307
0.207546
-0.0318753
0.527755
0.545964
0.54633
0.527513
0.0647996
0.0448552
-0.0425958
-0.0639144
-0.0413056
-0.010544
-0.128767
0.125968
0.0123071
0.042357
-0.00475202
0.00245809
-0.0254883
0.0228695
-0.00194993
0.00685884
0.00449461
0.00643714
0.0016145
-0.00240516
-0.00436331
-0.00148391
-0.0013602
-0.00143128
-0.00151706
-0.00113497
-0.00238814
-5.62716e-05
0.000365759
0.00130053
0.00046037
0.000497802
0.000491898
0.000463718
-0.00430075
-0.00304965
-0.00370019
0.0037739
0.00325709
0.00401823
1.30638
-0.511318
0.299745
-0.193269
-0.0992399
-0.212137
-0.130454
1.88358
-0.807919
0.239888
2.34521
-0.914188
0.250496
2.69827
-0.870004
0.264778
2.9602
-0.695683
0.270731
3.14949
-0.42705
0.272104
3.2812
-0.103724
0.284319
3.36727
0.248573
0.320148
3.41224
0.62226
0.384877
3.41287
1.02244
0.465337
3.36587
1.43742
0.528567
3.27479
1.8241
0.534854
3.14427
2.13152
0.469579
2.98492
2.3375
0.3663
2.80135
2.47808
0.275871
2.524
0.232458
1.60676
0.000842255
-0.012649
1.63055
0.00801386
-0.0423648
1.67473
0.0195744
-0.0738881
1.74235
0.0420537
-0.104967
1.83848
0.0780888
-0.131457
1.95162
0.12057
-0.134714
2.05073
0.154818
-0.0849873
0.52006
0.160665
0.0561873
0.518592
0.537201
0.532832
-0.0632489
0.513769
0.0584187
0.0687081
-0.0574923
-0.0255626
-0.0511479
-0.121504
0.114768
0.0302236
0.0532331
-0.000936047
-0.000470739
-0.000219743
0.000977872
0.000512752
0.000135491
1.77807
-1.37916
-0.0345693
-0.188177
-0.317124
-0.203563
-0.327586
2.26101
-1.43374
0.0627978
2.56831
-1.359
0.135377
2.78071
-1.17881
0.160487
2.93831
-0.899179
0.150522
3.05795
-0.560666
0.135114
3.1503
-0.206974
0.144254
3.21763
0.148135
0.193967
3.25463
0.507853
0.284649
3.24704
0.890222
0.399307
3.18647
1.2961
0.501744
3.08381
1.69597
0.552987
2.94929
2.0515
0.533891
2.78569
2.32476
0.46237
2.5873
2.52631
0.389433
2.61099
0.346998
1.60719
0.000406067
-0.0133064
1.63254
0.00592453
-0.0444966
1.67848
0.0155563
-0.077177
1.74881
0.0330945
-0.106928
1.84806
0.0597121
-0.128235
1.9514
0.0917109
-0.113336
2.03113
0.108098
-0.0357224
0.511135
0.0944748
0.120229
0.509491
0.525116
0.523594
-0.0541443
-0.0577059
0.505903
0.0399591
0.077323
-0.0309143
0.110163
0.186893
-0.156518
-0.0414951
-0.0308291
-0.0423844
0.121406
0.126591
0.126213
0.121105
-0.490292
-0.0172259
-0.0350078
-0.125342
0.114305
0.0395208
0.070325
-0.0142358
-0.0174788
-0.0148812
-0.00220892
0.00307254
0.000151
-0.000907557
-0.00276943
0.00265925
-9.89356e-05
0.0020947
0.00697868
-0.0018355
-0.00690534
-0.000234416
0.00219092
-0.00348425
0.0195281
0.0169082
-0.0120427
-0.0189923
0.00214284
0.00234798
0.0022917
-0.00352129
-0.00366282
-0.00371033
2.34218
-1.64947
-0.063324
-0.490202
-0.575594
-0.513479
-0.590629
2.42258
-1.64596
0.0415165
2.48328
-1.51373
0.0942161
2.56037
-1.26208
0.0671919
2.63957
-0.913806
0.00252634
2.72219
-0.555533
-0.0397104
2.79941
-0.211986
-0.0264736
2.86929
0.111659
0.0435235
2.92733
0.427894
0.156242
2.9565
0.768464
0.292682
2.92911
1.15496
0.422747
2.84098
1.55877
0.511248
2.71058
1.94162
0.538133
2.55128
2.26628
0.508759
2.35029
2.53146
0.467261
2.66045
0.438215
1.6076