/*--------------------------------*- C++ -*----------------------------------*\
| =========                 |                                                 |
| \\      /  F ield         | OpenFOAM: The Open Source CFD Toolbox           |
|  \\    /   O peration     | Version:  2512                                  |
|   \\  /    A nd           | Website:  www.openfoam.com                      |
|    \\/     M anipulation  |                                                 |
\*---------------------------------------------------------------------------*/
FoamFile
{
    version     2.0;
    format      ascii;
    arch        "LSB;label=32;scalar=64";
    class       surfaceScalarField;
    location    "100";
    object      phi;
}
// * * * * * * * * * * * * * * * * * * * * * * * * * * * * * * * * * * * * * //

dimensions      [0 3 -1 0 0 0 0];

oriented        oriented;

internalField   nonuniform List<scalar> 
260615
(
1.59996
-7.11753e-05
0.000140544
1.5999
-0.000234891
0.000320439
1.59985
-0.000460589
0.000533062
1.59989
-0.000809887
0.000798472
1.60016
-0.00136577
0.00113405
1.60084
-0.00219172
0.0015348
1.60187
-0.00298015
0.00198361
1.60563
-0.00625461
0.00253361
1.61045
-0.00820821
0.00342919
1.6177
-0.0112558
0.00403366
1.62738
-0.0139778
0.00433459
1.63028
-0.00677908
0.00394694
1.64707
-0.0195243
0.0028274
1.65154
-0.00525788
0.000904943
1.65113
0.00176595
-0.00125564
1.64785
0.00669673
-0.00331076
1.64283
0.0101425
-0.0050108
1.63952
0.0104692
-0.00704502
1.63667
0.0123963
-0.00944648
1.6355
0.0137628
-0.0125403
1.6369
0.0151986
-0.0166401
1.64208
0.0168341
-0.022103
1.65239
0.0185859
-0.0289575
1.6683
0.0198443
-0.0358062
1.69377
0.0206814
-0.0462385
1.74131
0.0240419
-0.0716234
1.80864
0.0279325
-0.095181
1.87621
0.0248408
-0.0922711
1.92966
0.0169477
-0.0702421
-0.000203769
-0.0300329
1.59995
-0.000134713
0.000143728
1.59986
-0.000447635
0.000326532
1.59977
-0.000881364
0.00054384
1.59973
-0.00155699
0.000817834
1.59987
-0.0026415
0.00116916
1.60043
-0.00432233
0.00160063
1.60187
-0.00649004
0.00209988
1.60475
-0.0117834
0.00268704
1.60947
-0.0166187
0.00372008
1.61695
-0.0231677
0.00445025
1.62743
-0.0292747
0.00484613
1.63148
-0.0151956
0.00444046
1.64918
-0.0401228
0.00299628
1.65369
-0.0104658
0.000806396
1.65276
0.00437898
-0.00156664
1.64895
0.0143539
-0.00374596
1.64426
0.0203997
-0.00546636
1.64011
0.0222738
-0.00753626
1.63712
0.0253854
-0.00990214
1.63594
0.0279048
-0.0129234
1.63739
0.0306607
-0.0169592
1.64259
0.033933
-0.0223983
1.6528
0.0375617
-0.0292452
1.66889
0.0405151
-0.0368161
1.69469
0.0423659
-0.0475508
1.73995
0.0476886
-0.068917
1.80229
0.0546501
-0.0889727
1.86574
0.0516989
-0.090147
1.91814
0.0419485
-0.0772387
0.0150301
-0.0476382
1.59993
-0.00018745
0.00014949
1.5998
-0.000623245
0.000339395
1.59961
-0.00123197
0.000564573
1.59942
-0.00218975
0.000857639
1.59931
-0.00374787
0.00124636
1.5995
-0.00623101
0.00175026
1.60037
-0.00971904
0.00239331
1.60289
-0.0172859
0.00301728
1.60735
-0.0254252
0.00436769
1.61525
-0.0364444
0.00538283
1.6275
-0.0474847
0.00597669
1.63402
-0.0271636
0.00547657
1.65374
-0.0629267
0.00318291
1.65822
-0.0151471
0.00033333
1.65607
0.00916434
-0.0025164
1.65116
0.0242674
-0.00490598
1.64571
0.0325563
-0.00660421
1.64136
0.0355215
-0.00878055
1.63828
0.0396104
-0.0110467
1.63715
0.0430389
-0.0139631
1.6387
0.0469283
-0.0178594
1.64392
0.0517658
-0.0231438
1.65399
0.0575298
-0.0301031
1.67009
0.0624993
-0.0381328
1.69613
0.0659273
-0.0496443
1.74017
0.0731396
-0.0694973
1.79915
0.0818441
-0.0860967
1.86005
0.0799125
-0.0889683
1.9134
0.0713385
-0.0826003
0.0406365
-0.0629208
1.59991
-0.000224355
0.000153183
1.59971
-0.000745335
0.000356065
1.59939
-0.00148002
0.000596569
1.59897
-0.00265127
0.000913975
1.59849
-0.00459137
0.00135611
1.59811
-0.0077743
0.00195724
1.59818
-0.0125291
0.00277534
1.59984
-0.0225283
0.00361224
1.60368
-0.0346709
0.00541397
1.61213
-0.051812
0.00689895
1.62751
-0.0707173
0.00780419
1.63872
-0.0451165
0.00675921
1.66144
-0.0890293
0.00348758
1.66559
-0.0183302
-0.000875886
1.66115
0.0181408
-0.00442211
1.6543
0.038369
-0.00716135
1.64768
0.0482178
-0.00895666
1.64283
0.0516641
-0.0111892
1.63968
0.0562568
-0.0134132
1.63878
0.0602542
-0.0162734
1.64066
0.0651106
-0.0200893
1.64608
0.0714524
-0.0251791
1.65605
0.0796007
-0.0321049
1.6721
0.0873544
-0.0409535
1.69803
0.0933227
-0.0533646
1.74041
0.102163
-0.0714128
1.79616
0.111468
-0.0852966
1.85497
0.110308
-0.0890901
1.91015
0.103765
-0.0874996
0.0721302
-0.0757858
1.59989
-0.00024152
0.000160545
1.5996
-0.000800708
0.000369441
1.59911
-0.00159801
0.000634826
1.5984
-0.00288913
0.000986665
1.59742
-0.00507456
0.00149083
1.59624
-0.00878093
0.00222645
1.59509
-0.0146127
0.00327307
1.59528
-0.0271638
0.00447384
1.59778
-0.0440865
0.00692133
1.60673
-0.0699648
0.00914492
1.62764
-0.102192
0.0105064
1.6671
-0.0934468
0.00882673
1.67352
-0.0982073
0.00271501
1.67657
-0.0175836
-0.00369853
1.66855
0.0342002
-0.00796899
1.65892
0.0591185
-0.0110241
1.6505
0.0695258
-0.0127864
1.64475
0.0722825
-0.0147655
1.6414
0.0762736
-0.0165758
1.64079
0.0798199
-0.0189119
1.6432
0.084855
-0.0221703
1.64911
0.0921601
-0.0266681
1.65902
0.102442
-0.0328043
1.67476
0.114511
-0.042941
1.70001
0.124969
-0.0569291
1.73984
0.135469
-0.0731409
1.79189
0.143999
-0.0845241
1.84853
0.142431
-0.0886771
1.90567
0.137372
-0.0906735
0.105732
-0.0855879
1.59986
-0.000236748
0.000168299
1.59948
-0.000781454
0.000387627
1.5988
-0.00156667
0.000673485
1.59774
-0.00286026
0.00106706
1.59616
-0.00510351
0.00164484
1.59394
-0.00905226
0.00253334
1.59127
-0.0157863
0.00388308
1.58882
-0.0303144
0.00563107
1.58851
-0.0527641
0.00898521
1.59747
-0.0912257
0.0122537
1.62802
-0.147302
0.0143873
1.66627
-0.143764
0.0118341
1.69165
-0.123305
-0.000317775
1.69084
-0.0073059
-0.00948924
1.67673
0.063257
-0.0148408
1.66313
0.092523
-0.0197186
1.65285
0.10189
-0.0219825
1.64626
0.102401
-0.0234257
1.64315
0.103925
-0.0244536
1.64318
0.105766
-0.0259271
1.64639
0.109973
-0.028337
1.65322
0.117394
-0.0321005
1.66392
0.128671
-0.0369654
1.67949
0.143715
-0.0448024
1.70295
0.159271
-0.0577865
1.73824
0.171888
-0.0717022
1.7849
0.178798
-0.0814171
1.83825
0.175095
-0.0859508
1.89658
0.169957
-0.0908815
0.137541
-0.0916435
1.59983
-0.00020976
0.000172959
1.59935
-0.000686099
0.000408546
1.59849
-0.00138025
0.000712784
1.59706
-0.00254106
0.00114501
1.59479
-0.00460751
0.00180767
1.59134
-0.00841982
0.00285567
1.5866
-0.0155708
0.00456944
1.5779
-0.0287818
0.00721259
1.57428
-0.0605411
0.0113988
1.58143
-0.114947
0.0164822
1.62732
-0.0421863
0.0189896
-0.05284
-0.0525361
-0.064884
1.68864
-0.0495709
0.0148468
-0.0509821
-0.0566971
-0.0628281
1.71968
-0.0334902
-0.0109321
-0.0255702
-0.0444922
-0.0397747
1.71275
0.00205244
-0.0214969
0.0156915
-0.00523689
0.00858129
1.68988
0.109687
-0.0234998
1.66602
0.150618
-0.0341239
1.65398
0.155373
-0.0413332
1.64551
0.155984
-0.0449888
1.64248
0.153835
-0.0467817
1.64343
0.152493
-0.0476184
1.64796
0.153566
-0.0481091
1.65627
0.157846
-0.0487806
1.66839
0.165965
-0.0494398
1.68448
0.178244
-0.0506343
1.70577
0.19304
-0.0550705
1.73474
0.205098
-0.0621741
1.77359
0.209617
-0.0696278
1.82152
0.202685
-0.0754961
1.87935
0.196547
-0.0844158
0.162857
-0.092514
1.5998
-0.000162672
0.000177158
1.59924
-0.000521534
0.000427594
1.59819
-0.0010498
0.000748084
1.59641
-0.00194351
0.00121835
1.59346
-0.00357158
0.00195876
1.58858
-0.00666182
0.00316391
1.58074
-0.012939
0.00525937
1.56893
-0.0258433
0.00891759
1.55335
-0.0589676
0.0140139
0.390648
-0.130755
0.0215353
0.387113
0.386677
0.383074
0.395326
-0.0474413
0.000459466
-0.4057
0.422181
-0.0668219
0.000695012
-0.433178
0.444446
-0.0417293
-0.00290862
-0.445418
0.445655
0.00708179
-0.00522271
1.71878
0.219506
-0.0635579
-0.439455
-0.444891
-0.437082
-0.443598
1.68677
0.255698
-0.0729739
1.66746
0.249866
-0.0750697
1.65675
0.239203
-0.0723829
1.65165
0.227609
-0.0685722
1.65086
0.21767
-0.0643129
1.65423
0.210331
-0.0600996
1.662
0.20599
-0.0558892
1.67395
0.205174
-0.0511581
1.68954
0.208617
-0.0459627
1.70815
0.216323
-0.0418817
1.72977
0.224223
-0.0407249
1.758
0.226422
-0.0449958
1.79658
0.217199
-0.0530959
1.84997
0.211168
-0.068051
0.175958
-0.0867662
1.59979
-9.99829e-05
0.000180468
1.59915
-0.000303251
0.000443298
1.59796
-0.00060503
0.000775742
1.5959
-0.00112085
0.00127884
1.59236
-0.0020779
0.00208465
1.58624
-0.00392681
0.00342873
1.57534
-0.00785982
0.00587842
1.55594
-0.0166894
0.0102986
1.52022
-0.039848
0.0166001
0.376867
-0.113071
0.022667
0.371235
0.369898
0.361778
0.383589
-0.0581921
-0.00088511
0.0522186
0.423874
-0.404389
0.0836128
-0.0279374
-0.0229672
-0.0286922
-0.0230132
-6.18587e-05
-0.000422223
0.00063721
-0.000722165
-0.445334
0.460981
0.0541386
-0.0205985
-0.0173845
-0.0219061
-0.014831
0.0025233
0.000648558
-0.000537125
0.00224938
-0.469672
0.465237
-0.01023
-0.00165549
-0.00731375
-0.00281015
0.00295245
-0.000170503
0.010641
0.0135357
-0.000803612
1.68277
0.228571
0.0613786
-0.452025
-0.441089
-0.45471
-0.405412
1.65373
0.291147
-0.00629077
1.63964
0.301361
-0.0373071
1.63247
0.296965
-0.0504767
1.6275
0.287937
-0.0552589
1.62385
0.276621
-0.0552201
1.6224
0.265066
-0.0532238
1.62438
0.254407
-0.050367
1.6304
0.245615
-0.0464408
1.6402
0.240108
-0.0412684
1.65259
0.238733
-0.0347766
1.66619
0.238294
-0.0276399
1.68593
0.233701
-0.0270081
1.7193
0.219088
-0.0352994
1.77551
0.21069
-0.0558061
0.171964
-0.0835378
1.59976
-2.816e-05
0.000197518
1.59907
-5.41327e-05
0.000466212
1.59778
-9.36399e-05
0.000810745
1.59553
-0.000163872
0.00133158
1.59162
-0.00030358
0.0021745
1.58472
-0.000590289
0.00361525
1.57183
-0.00121309
0.00630177
1.54651
-0.00268556
0.0113621
1.49486
-0.00658002
0.018372
0.352215
-0.0186853
0.0167337
0.347627
0.342154
0.341717
-0.0378294
-0.0144539
0.0536674
0.0849709
0.0903612
0.0862598
0.0891762
0.0264409
-0.100644
0.102653
-0.0245654
-0.00133178
-0.00125114
-0.00094286
-0.000374529
-0.114758
0.0395795
0.113807
-0.0130754
-0.0116823
-0.0150889
-0.012416
0.00456862
0.00240752
0.00451366
0.00220712
-0.0755535
0.0190345
-0.0223068
0.0160504
0.0627491
0.745641
0.0865928
-0.159763
-0.125573
-0.0410001
-0.182176
-0.0950283
0.976101
0.223199
-0.162312
1.1434
0.263352
-0.129205
1.25471
0.290176
-0.104447
1.3267
0.305489
-0.0894463
1.37282
0.310079
-0.0794973
1.40367
0.307499
-0.0732147
1.42697
0.300841
-0.0696792
1.44783
0.292367
-0.0675714
1.46914
0.283781
-0.0649612
1.49123
0.275145
-0.0584726
1.51349
0.2626
-0.0465484
1.54317
0.243255
-0.0392277
1.5897
0.215043
-0.0425505
1.66526
0.197551
-0.0625175
0.151445
-0.090697
1.59974
4.47268e-05
0.000213229
1.59904
0.000198199
0.000483549
1.59772
0.000424784
0.00082745
1.59543
0.000806727
0.00135696
1.59145
0.00150621
0.00220788
1.58448
0.00284968
0.00357826
1.57128
0.0056847
0.00636495
1.54512
0.0119892
0.0115241
1.4905
0.0292919
0.0187633
0.344282
0.0879284
0.0172896
0.34773
0.337663
0.336924
0.00946839
0.0206557
-0.0207603
0.0811762
0.086279
0.0811833
0.0862859
0.00692745
-0.0965278
0.0845445
0.000895743
0.00148315
0.00051877
0.00155222
0.000558572
0.0085078
0.0261163
-0.0152025
-0.0160303
-0.00367021
-0.0353745
0.129147
-0.134579
0.0346029
-0.00766748
0.0292603
0.0716289
0.292481
0.0615724
-0.166065
0.556287
0.103458
-0.103865
0.761118
0.15736
-0.0719302
0.915748
0.209733
-0.058767
1.02978
0.250121
-0.053981
1.1135
0.277896
-0.0540375
1.17716
0.294661
-0.0574284
1.2293
0.302844
-0.0625856
1.2754
0.303717
-0.0660167
1.31735
0.296232
-0.0630002
1.35667
0.276142
-0.0528361
1.40378
0.243211
-0.0470914
1.46993
0.199405
-0.0506077
1.5684
0.169774
-0.0708199
0.113304
-0.0976691
1.59975
0.000111041
0.000212637
1.5991
0.000427523
0.000447705
1.59787
0.000893631
0.000790513
1.59571
0.00167947
0.00133196
1.59198
0.00311429
0.00215847
1.58557
0.00583784
0.00346845
1.57378
0.0114242
0.00610022
1.55202
0.0229831
0.0108142
1.5094
0.0542526
0.0176752
0.364289
0.124931
0.0244413
0.369426
0.353438
0.360837
-0.0427021
0.0531921
-0.00461016
0.0908205
0.0872254
0.0884255
0.0919788
-0.0206875
-0.0961065
0.0994033
-0.00586932
0.0233188
-0.00492595
-0.112855
0.118726
0.00157546
0.0177263
-0.00493227
-0.00649308
-0.00872426
-0.02452
-0.117548
0.00724459
0.111903
0.0228635
1.01808
0.0207966
0.228945
-0.310317
-0.404343
-0.113167
-0.310726
0.902402
0.00998052
0.16731
0.823169
0.0321283
0.15057
0.792906
0.0569759
0.130702
0.811691
0.0847978
0.106241
0.862676
0.11586
0.0833622
0.927436
0.148703
0.0644977
0.993835
0.179707
0.0486024
1.05664
0.205226
0.0348463
1.11627
0.219765
0.0243631
1.1711
0.221211
0.0202176
1.2227
0.204992
0.0195496
1.28601
0.17211
0.00773579
1.37438
0.126234
-0.0153224
1.49983
0.0942352
-0.0500518
0.0377681
-0.087736
1.59978
0.000163856
0.00019873
1.59921
0.000607583
0.000422088
1.59812
0.00125738
0.000755606
1.59621
0.00234728
0.00127736
1.59301
0.00430263
0.00205112
1.58762
0.00793547
0.0033369
1.57861
0.0148687
0.00561067
1.564
0.0279541
0.0096814
1.54202
0.0607373
0.0155174
0.381287
0.119514
0.0248967
0.385374
0.375853
0.380037
-0.0522702
0.381651
0.0505488
0.00135339
-0.101174
-0.393352
0.411184
0.0859515
-0.00229005
-0.0830404
-0.434843
0.453807
0.0760321
-0.0120176
-0.0244205
-0.455907
0.455151
0.0207792
0.00432915
1.68423
-0.00798776
0.10232
-0.445444
-0.443
-0.428015
-0.441272
1.6332
-0.0286663
0.0896711
1.58483
-0.00942763
0.0899358
1.52835
0.0130824
0.100415
1.46243
0.0374824
0.113294
1.39433
0.0610103
0.123014
1.33427
0.082058
0.126759
1.2901
0.0996991
0.124222
1.2654
0.112385
0.11757
1.25904
0.117117
0.109034
1.26761
0.111328
0.101345
1.29167
0.0913023
0.0896195
1.34291
0.0593877
0.0614222
1.43079
0.0176893
0.0205289
1.56131
-0.00920622
-0.0272265
-0.0548537
-0.0774291
1.59981
0.000197602
0.000180911
1.59931
0.000721066
0.000425329
1.59838
0.00148125
0.000737056
1.5968
0.00274217
0.00121224
1.59427
0.00495356
0.00191938
1.59028
0.00890044
0.00306597
1.58442
0.0157863
0.00498189
1.57339
0.0309694
0.00805693
1.56538
0.0556757
0.0130786
1.56472
0.100213
0.0199776
1.60745
0.172528
0.0258485
-0.0469334
-0.0616868
-0.0577306
-0.0747482
1.68759
0.204657
0.0299395
-0.0678176
-0.0773895
-0.076953
-0.092495
1.72375
0.19111
0.0250682
-0.0610869
-0.0478584
-0.0768563
-0.0665426
1.72047
0.0720648
0.0158014
-0.0220564
-0.00898607
-0.0339304
-0.0196418
1.69428
0.00410384
0.014072
1.67182
-0.017347
0.0111372
1.66297
-0.0130124
0.0124461
1.65873
0.000848114
0.0165104
1.65763
0.0159202
0.0227174
1.65484
0.032882
0.0309741
1.64763
0.0488173
0.0404933
1.63631
0.0613492
0.0497193
1.6235
0.0684966
0.0567356
1.61302
0.0677877
0.05984
1.61056
0.0571421
0.0566638
1.62226
0.0345386
0.0450537
1.65398
0.0051978
0.0224107
1.70749
-0.0300105
-0.0059299
1.78648
-0.0486554
-0.0396614
-0.10162
-0.0871495
1.59984
0.00020973
0.000174201
1.59943
0.000758497
0.000407806
1.59868
0.00154792
0.000710447
1.59747
0.00283897
0.00114169
1.59564
0.00505538
0.00177155
1.59293
0.00888122
0.00276415
1.58936
0.0150772
0.00431387
1.58527
0.0286086
0.00648509
1.58245
0.0479506
0.0105535
1.58805
0.0792435
0.0153813
1.61853
0.12234
0.019742
1.66794
0.133319
0.0219373
1.69644
0.143461
0.0191067
1.6959
0.0601939
0.0123647
1.68171
0.0111231
0.00713755
1.66841
-0.00756393
0.00351775
1.66039
-0.00798845
0.00301405
1.65719
0.000503291
0.0035845
1.65854
0.00935416
0.00527312
1.66421
0.0201966
0.00706575
1.6732
0.0310124
0.00887194
1.68391
0.0401927
0.010489
1.6952
0.0463989
0.010854
1.70678
0.0464383
0.00980538
1.71928
0.0369273
0.00773249
1.73476
0.0172225
0.00181432
1.75949
-0.00645813
-0.0131423
1.80064
-0.038056
-0.0332187
1.86677
-0.0548752
-0.060021
-0.123645
-0.109545
1.59987
0.00019991
0.0001673
1.59955
0.00071928
0.000392302
1.59899
0.0014585
0.000679652
1.59814
0.00265108
0.00106586
1.59694
0.00465851
0.00162786
1.59537
0.00801916
0.00246677
1.59357
0.013211
0.00369775
1.59273
0.0242143
0.00525979
1.59389
0.0384985
0.00830081
1.60163
0.0598848
0.0116289
1.62346
0.0859568
0.0145777
1.66989
0.0712884
0.0156275
1.67999
0.11954
0.0138099
1.68379
0.0476188
0.00874403
1.67708
0.0134511
0.00437858
1.6693
-0.00153757
0.00176613
1.66416
-0.00392282
0.00110167
1.66268
0.00136372
0.00066366
1.6639
0.00701093
0.00117147
1.66785
0.014422
0.00187919
1.67429
0.0219594
0.00266338
1.68261
0.0284428
0.00347833
1.69211
0.0330319
0.00392284
1.70266
0.0325271
0.00339504
1.71514
0.0240372
0.000407376
1.73218
0.00744305
-0.00729547
1.76028
-0.0114689
-0.0231776
1.80554
-0.0401715
-0.0432778
1.87821
-0.0557072
-0.0719464
-0.135848
-0.135119
1.5999
0.000170046
0.00016053
1.59965
0.000610016
0.000380878
1.59927
0.00122963
0.000644831
1.59873
0.0022175
0.000998086
1.59807
0.00385285
0.00149829
1.59741
0.00651754
0.0021978
1.59705
0.0104117
0.00318185
1.59813
0.0188358
0.00431514
1.6014
0.0286405
0.00659466
1.60974
0.0426853
0.00887559
1.62643
0.0583763
0.0109153
1.64213
0.0442212
0.0113959
1.66837
0.0832014
0.0101098
1.67414
0.0352186
0.00663857
1.67172
0.0126398
0.00324079
1.66756
0.00162513
0.00102715
1.66452
-0.00116214
0.00030437
1.66415
0.00215145
-0.000365779
1.66601
0.00545007
-0.000241579
1.67009
0.0102996
9.30466e-05
1.67618
0.0153818
0.000541623
1.68352
0.0197857
0.00136543
1.69102
0.0228343
0.00275215
1.69907
0.021612
0.0028914
1.70968
0.0139409
-0.000535268
1.72575
9.20433e-05
-0.0087844
1.75365
-0.0143112
-0.0251779
1.79967
-0.0382997
-0.0480572
1.87715
-0.0498159
-0.0834504
-0.133144
-0.168669
1.59992
0.000123984
0.000157179
1.59974
0.000443452
0.000365377
1.5995
0.000888583
0.000614835
1.59921
0.00159178
0.00094425
1.59896
0.0027412
0.0013902
1.59895
0.00456604
0.00198668
1.59957
0.00703883
0.00277932
1.60182
0.0129454
0.00364953
1.60618
0.0189044
0.00538375
1.61452
0.0273749
0.0069816
1.62828
0.0362645
0.00838341
1.63812
0.0255618
0.00885542
1.66108
0.0525992
0.00766436
1.66772
0.0231704
0.00543032
1.66799
0.00954428
0.00285337
1.6663
0.00233844
0.00100993
1.66495
-7.05079e-05
0.000306262
1.6655
0.00213626
-0.000493768
1.66786
0.0038696
-0.00071888
1.67206
0.0068636
-0.000712192
1.67795
0.0100441
-0.000504449
1.68472
0.0127148
0.00035363
1.69079
0.0143404
0.00246815
1.69676
0.0126899
0.00297035
1.70536
0.00639787
-0.00109967
1.71956
-0.00410742
-0.0100915
1.74547
-0.0143024
-0.0260856
1.78968
-0.0316755
-0.0509623
1.86985
-0.0371092
-0.0929695
-0.112789
-0.207104
1.59993
6.90972e-05
0.000151894
1.59981
0.000237783
0.000353496
1.59966
0.000470781
0.000595704
1.59953
0.000836676
0.000906344
1.59956
0.00142959
0.00131412
1.59999
0.0023347
0.00183393
1.60129
0.00328565
0.00247081
1.6041
0.00687709
0.00327296
1.609
0.00939442
0.00462303
1.6172
0.0133734
0.00581777
1.62928
0.0173958
0.0068202
1.63607
0.0116987
0.00710668
1.65681
0.0254954
0.00639075
1.66381
0.0114645
0.0047187
1.66561
0.0050664
0.00270328
1.66536
0.00151411
0.00110727
1.6651
-0.000134409
0.000361098
1.66606
0.00156666
-0.000361572
1.66864
0.00204576
-0.000709599
1.67286
0.00343631
-0.000741561
1.67856
0.00492382
-0.000532492
1.68485
0.00612142
0.000367683
1.68987
0.00662788
0.0027533
1.69443
0.00507277
0.00308966
1.70168
0.0011523
-0.0020211
1.71441
-0.00489285
-0.0120342
1.7388
-0.0102927
-0.0284996
1.78009
-0.0202019
-0.0529002
1.86109
-0.021678
-0.0963996
-0.0727142
-0.248062
1.59994
0.000148512
1.59984
0.000347508
1.59974
0.000585563
1.59971
0.000888121
1.59988
0.00128015
1.60046
0.0017678
1.60141
0.00234848
1.6052
0.00309947
1.61032
0.00428143
1.61841
0.00529406
1.62971
0.00611066
1.63513
0.00629766
1.65486
0.00577512
1.662
0.00434163
1.6645
0.00258024
1.66494
0.00110341
1.66447
0.000358006
1.66639
-0.00033235
1.66919
-0.000723678
1.67347
-0.00081483
1.67911
-0.000686103
1.6851
0.000164253
1.68947
0.00229597
1.6933
0.00124716
1.69996
-0.00553327
1.71206
-0.0170464
1.73612
-0.0344198
1.77527
-0.0593987
1.86086
-0.107275
-0.299039
1.60007
-7.05167e-05
0.000157143
1.60014
-0.000232155
0.000513187
1.60022
-0.000454126
0.000927998
1.6004
-0.000796778
0.00144542
1.6008
-0.00134093
0.00210416
1.60153
-0.00196037
0.00278924
1.60243
-0.00188799
0.00300817
1.60326
-0.00447164
0.00620662
1.60807
-0.00828366
0.00693769
1.61555
-0.0112887
0.00787554
1.62203
-0.0105173
0.00840104
1.62673
-0.00819852
0.00750641
1.64153
-0.0179946
0.0061093
1.64915
-0.00883889
0.00221233
1.64859
0.00144145
-0.00202708
1.64542
0.00622125
-0.00626901
1.64347
0.00764669
-0.0106188
1.64032
0.00869905
-0.0125003
1.63748
0.0115924
-0.0181271
1.63622
0.013254
-0.0245289
1.63745
0.014687
-0.0326252
1.643
0.0165739
-0.0443245
1.6539
0.0182877
-0.0582014
1.67302
0.0197584
-0.0747152
1.71793
0.0283054
-0.119491
1.78924
0.0413223
-0.18425
1.85612
0.0416772
-0.203666
1.90041
0.0303643
-0.166822
1.91751
0.0143018
-0.101544
-0.00605232
-0.0261201
1.60007
-0.000134606
0.000158979
1.60011
-0.000443354
0.000521064
1.60015
-0.000870159
0.000945422
1.60026
-0.00153337
0.00147995
1.60054
-0.0025954
0.00216968
1.60147
-0.00418442
0.00292696
1.60413
-0.00572888
0.0033038
1.60495
-0.00919522
0.00662772
1.60924
-0.0162144
0.00739061
1.61618
-0.0224643
0.00870912
1.62202
-0.0208713
0.00938729
1.62829
-0.0180365
0.00806082
1.6435
-0.0371222
0.00701236
1.65258
-0.0191811
0.00218535
1.65221
0.00283984
-0.00249326
1.64895
0.0126758
-0.0068357
1.64646
0.0162212
-0.0114592
1.64109
0.0200159
-0.0133759
1.63778
0.0239585
-0.0188791
1.63648
0.0267805
-0.0251286
1.63771
0.0296165
-0.0331672
1.64313
0.0333049
-0.0446427
1.65439
0.0369011
-0.0591671
1.67482
0.0402585
-0.0777801
1.71625
0.0529303
-0.113639
1.77919
0.074238
-0.164772
1.84117
0.0800398
-0.189256
1.88611
0.0657455
-0.170376
1.90636
0.0417741
-0.12486
0.00511967
-0.0628544
1.60006
-0.000187132
0.000163927
1.60006
-0.000617617
0.000540098
1.60001
-0.00121604
0.000984957
1.59996
-0.00215555
0.00155572
1.60001
-0.00368021
0.00231676
1.60039
-0.00607713
0.00329034
1.60195
-0.00909247
0.00422943
1.60288
-0.0140015
0.00692462
1.60701
-0.0244859
0.00853441
1.6143
-0.0348932
0.010525
1.623
-0.0352422
0.011658
1.63098
-0.0303842
0.00988899
1.64886
-0.0597643
0.00804592
1.65678
-0.0281763
0.00152011
1.65527
0.00598806
-0.00402974
1.65083
0.0209759
-0.00866962
1.64714
0.0264139
-0.0130199
1.64215
0.032187
-0.0158758
1.63898
0.0370891
-0.0209278
1.63774
0.0410106
-0.0269275
1.63906
0.0452009
-0.0347999
1.64451
0.0508256
-0.046186
1.65633
0.0566385
-0.0617081
1.67854
0.0607847
-0.0808913
1.7187
0.0753289
-0.112222
1.77711
0.10107
-0.154748
1.83646
0.113631
-0.178992
1.88266
0.102255
-0.171591
1.90716
0.077352
-0.142606
0.0298942
-0.0955119
1.60003
-0.000223849
0.000177034
1.59998
-0.000738283
0.000560796
1.5998
-0.00146009
0.00104094
1.59954
-0.00260802
0.00166411
1.59923
-0.00450366
0.00252107
1.59904
-0.00760497
0.00370424
1.5995
-0.0119499
0.00520706
1.59985
-0.0185484
0.00783292
1.6034
-0.0331317
0.0105248
1.61114
-0.0491898
0.013449
1.62243
-0.0539646
0.0152154
1.63643
-0.0497873
0.012162
1.65576
-0.0857862
0.0102311
1.66382
-0.0370796
9.79441e-05
1.66013
0.0124409
-0.00708033
1.65377
0.0326714
-0.0124192
1.6487
0.0392881
-0.0166792
1.6436
0.0462231
-0.0200426
1.64042
0.0515316
-0.0246022
1.63942
0.0560938
-0.0303262
1.64107
0.0614139
-0.0379782
1.64672
0.0688884
-0.0489474
1.65922
0.0769997
-0.0649958
1.68154
0.0817957
-0.0842958
1.72042
0.0960987
-0.113031
1.77587
0.123697
-0.149482
1.83421
0.14212
-0.172094
1.88292
0.13669
-0.172161
1.91362
0.115563
-0.156351
0.0620159
-0.121904
1.59999
-0.000240721
0.00020685
1.59986
-0.000790926
0.000576377
1.59954
-0.00157734
0.00110478
1.59899
-0.00283941
0.00179858
1.5982
-0.00497132
0.00277933
1.59722
-0.008573
0.00420962
1.59627
-0.0139697
0.00628234
1.5955
-0.0226568
0.00937368
1.59768
-0.0417934
0.0134149
1.60592
-0.0660908
0.0177802
1.62361
-0.0824883
0.0212628
1.66555
-0.0994319
0.0164191
1.6686
-0.0971884
0.0110366
1.67456
-0.0430424
-0.00364496
1.66725
0.0243606
-0.0124803
1.65833
0.0493787
-0.0187402
1.65127
0.0563719
-0.0227552
1.64561
0.0630546
-0.0258642
1.64229
0.0677785
-0.0294414
1.64158
0.0720718
-0.034142
1.64375
0.077869
-0.0408095
1.64956
0.087007
-0.0506238
1.66182
0.0977099
-0.065794
1.68326
0.105792
-0.088377
1.71977
0.11844
-0.115785
1.77211
0.144222
-0.146005
1.82987
0.166012
-0.166148
1.88203
0.167182
-0.171275
1.92064
0.152356
-0.166029
0.0960745
-0.141795
1.59995
-0.000235635
0.000237566
1.59973
-0.000771343
0.000606887
1.59924
-0.00154028
0.00116309
1.59836
-0.00281347
0.00194944
1.59699
-0.00499295
0.00307556
1.59501
-0.00881935
0.0047895
1.59259
-0.0150941
0.00746791
1.5902
-0.0261518
0.0115473
1.58938
-0.0493986
0.0174253
1.59768
-0.0865049
0.0243212
1.6387
-0.140451
0.031208
1.6673
-0.139653
0.0233585
1.70154
-0.140544
0.00878254
1.6894
-0.027787
-0.0125748
1.67563
0.0477008
-0.0243674
1.66368
0.0752806
-0.0336244
1.65424
0.0818283
-0.0379417
1.64795
0.0863393
-0.0403465
1.64489
0.0892983
-0.0428376
1.64474
0.0926331
-0.0462976
1.64746
0.0988318
-0.0520116
1.65475
0.1077
-0.0601017
1.6659
0.121589
-0.0719978
1.68408
0.134873
-0.0920687
1.71498
0.146295
-0.116538
1.76201
0.165287
-0.139794
1.81861
0.185921
-0.157896
1.87494
0.192044
-0.167109
1.9231
0.184182
-0.170846
0.127264
-0.15503
1.59991
-0.00020831
0.0002562
1.59958
-0.000676297
0.000671299
1.59892
-0.00135577
0.00121949
1.59769
-0.00248621
0.00207642
1.59566
-0.00451236
0.00338969
1.59251
-0.00818588
0.00541808
1.58825
-0.015023
0.00879693
1.5823
-0.0271743
0.0142316
1.57578
-0.0542056
0.0227422
1.5776
-0.106117
0.0342334
1.61764
-0.0458932
0.0453478
-0.0603939
-0.0423184
-0.0583259
1.67189
-0.049425
0.0323367
-0.0588051
-0.0452049
-0.0581539
1.71001
-0.0431504
-0.0120282
-0.0428544
-0.0442806
-0.047401
1.70831
-0.00635103
-0.0404304
0.00540056
-0.00755022
0.00127658
1.68746
0.0967004
-0.0516247
1.66867
0.127124
-0.0671466
1.65474
0.129408
-0.0749324
1.64592
0.129037
-0.0787982
1.64196
0.127535
-0.0809906
1.64129
0.128319
-0.0825858
1.64505
0.13074
-0.0837676
1.6517
0.137266
-0.0849922
1.66249
0.148668
-0.0873118
1.67681
0.163072
-0.0931483
1.69855
0.175083
-0.105592
1.73646
0.187081
-0.121862
1.79126
0.202121
-0.140605
1.85393
0.209574
-0.155678
1.9149
0.207769
-0.168967
0.151302
-0.161495
1.59988
-0.000160938
0.000273871
1.59943
-0.000512996
0.0007388
1.59857
-0.00102911
0.00130805
1.59706
-0.00189828
0.00217686
1.59435
-0.0034737
0.00366152
1.58983
-0.00644508
0.0059893
1.58243
-0.0124903
0.0101785
1.57162
-0.0245632
0.0171688
1.55538
-0.0531341
0.0292032
0.387949
-0.1234
0.0488736
0.384064
0.388495
0.3848
-0.00605154
0.391358
-0.0534229
0.0100674
-0.00453127
-0.401397
0.414017
-0.0652888
0.0076929
0.00526294
-0.424345
0.436787
-0.0543302
-0.00645338
0.0119361
-0.441794
0.442589
-0.000942079
-0.0180934
1.68879
0.278178
-0.169531
-0.438458
-0.446512
-0.438273
-0.441025
1.63454
0.267135
-0.158704
1.5963
0.236384
-0.143783
1.5735
0.210182
-0.130673
1.56211
0.188617
-0.118202
1.55959
0.174799
-0.108231
1.5622
0.16666
-0.0986005
1.57063
0.163396
-0.0904458
1.58465
0.165496
-0.0820051
1.60191
0.173125
-0.0732706
1.6241
0.182449
-0.0714258
1.66365
0.19091
-0.0840887
1.72778
0.203222
-0.110205
1.80687
0.213177
-0.135786
1.88851
0.218609
-0.160549
0.164103
-0.162079
1.59985
-9.7981e-05
0.000286683
1.59933
-0.000296837
0.00078163
1.59828
-0.000590598
0.00141067
1.59646
-0.00109028
0.00232068
1.59323
-0.00201312
0.00389278
1.58763
-0.0037817
0.00641153
1.57721
-0.00748835
0.0113522
1.55894
-0.0156642
0.0197297
1.52421
-0.0381379
0.0363474
0.371019
-0.115044
0.0689595
0.361656
0.372489
0.364425
-0.0689923
0.0125385
-0.00438507
0.0573454
0.0939417
0.0936507
0.0929368
0.0938769
-0.000237879
-0.0984181
0.0209951
0.102401
-0.0252287
0.000531373
-0.111039
0.00707449
0.0192125
0.113534
-0.0252828
-0.0034932
-0.115722
-0.00274148
0.000116382
0.000417156
0.00248146
0.115447
1.56142
0.470999
-0.0569046
-0.435299
-0.371122
-0.439598
-0.389932
1.50289
0.413661
-0.0942792
1.45726
0.339987
-0.0952893
1.42588
0.281992
-0.0908853
1.40365
0.240035
-0.0844043
1.39141
0.210404
-0.0785424
1.38888
0.190063
-0.0740736
1.3963
0.176256
-0.0706287
1.41304
0.168105
-0.0657825
1.43679
0.16532
-0.0572115
1.47138
0.164421
-0.0513233
1.53149
0.164788
-0.061605
1.62296
0.176165
-0.0914052
1.73089
0.193007
-0.123071
1.84099
0.208572
-0.155917
0.159242
-0.162869
1.59986
-2.59992e-05
0.00029101
1.5993
-5.01422e-05
0.000806175
1.59817
-8.69911e-05
0.00146555
1.59615
-0.000152821
0.00244479
1.59256
-0.00028021
0.00407136
1.58622
-0.000537768
0.00675461
1.57416
-0.00111256
0.0120439
1.55098
-0.00248447
0.0214156
1.49689
-0.00617554
0.040526
0.334705
-0.01792
0.085811
0.331037
0.33398
0.331015
-0.0511246
0.00794241
0.0112602
0.0710953
0.0709443
0.0759094
0.0721529
0.0765005
0.0019713
0.00290133
-0.00637436
0.00737757
-0.00202574
-0.00086433
-0.00113089
-0.000893502
-0.000952086
-0.00317628
0.00357934
-0.00215966
0.00215669
0.00183493
-0.000528141
-0.000606218
-0.000563663
-0.000544796
-0.00319615
0.000882944
-0.00106183
0.00118369
-0.000962362
0.00315195
0.735689
0.320804
-0.217239
-0.190393
-0.0938809
-0.172764
-0.0709746
0.862366
0.298486
-0.173825
0.94556
0.25175
-0.124213
1.00363
0.217947
-0.0984742
1.04705
0.195255
-0.0880645
1.08451
0.178699
-0.0852174
1.12194
0.166246
-0.0868044
1.16312
0.156406
-0.0909946
1.20995
0.148838
-0.0951317
1.26302
0.14199
-0.094699
1.32736
0.131214
-0.0895802
1.41462
0.121202
-0.0902067
1.52917
0.129686
-0.107296
1.65835
0.151584
-0.13034
1.79111
0.174984
-0.161753
0.132396
-0.167071
1.59988
4.71581e-05
0.000286463
1.59934
0.000199601
0.000799319
1.59825
0.000423722
0.00143044
1.59624
0.000802139
0.00244725
1.59263
0.00149051
0.00408898
1.58602
0.00279556
0.00690232
1.57364
0.00548632
0.0121984
1.54965
0.0113246
0.0217563
1.49281
0.0281697
0.0412833
0.327576
0.0906239
0.087402
0.329941
0.327587
0.329112
0.0101245
0.0323468
0.00629728
0.016658
0.0654421
0.0655079
0.0659818
0.0652156
-0.000214974
0.000416084
4.39536e-05
0.00022552
-0.000425122
-4.57723e-05
0.116364
0.0320192
-0.0817735
0.0164756
0.0419234
0.0268189
0.0345151
0.344972
-0.00365501
-0.0925591
0.52625
0.0227103
-0.0561941
0.662052
0.0528036
-0.0426276
0.768083
0.0767189
-0.0462512
0.85697
0.0925667
-0.0567161
0.936899
0.102644
-0.0703449
1.01334
0.108265
-0.0857194
1.08998
0.110259
-0.100637
1.16839
0.10706
-0.109491
1.25285
0.0937261
-0.109957
1.35373
0.0763358
-0.108834
1.47746
0.0781883
-0.119341
1.61566
0.0986251
-0.135904
1.76084
0.123799
-0.16489
0.0862255
-0.168055
1.5999
0.000113594