/*--------------------------------*- C++ -*----------------------------------*\
| =========                 |                                                 |
| \\      /  F ield         | OpenFOAM: The Open Source CFD Toolbox           |
|  \\    /   O peration     | Version:  2512                                  |
|   \\  /    A nd           | Website:  www.openfoam.com                      |
|    \\/     M anipulation  |                                                 |
\*---------------------------------------------------------------------------*/
FoamFile
{
    version     2.0;
    format      ascii;
    arch        "LSB;label=32;scalar=64";
    class       volVectorField;
    location    "100";
    object      U;
}
// * * * * * * * * * * * * * * * * * * * * * * * * * * * * * * * * * * * * * //

dimensions      [0 1 -1 0 0 0 0];

internalField   nonuniform List<vector> 
90398
(
(20.0092 0.00251073 -0.0151725)
(20.1018 0.00908283 -0.0497326)
(20.3013 0.017722 -0.0824958)
(20.587 0.0282947 -0.106042)
(20.911 0.0370948 -0.110367)
(21.2405 0.0394951 -0.103368)
(21.6397 0.0305121 -0.114906)
(22.4246 0.00788122 -0.230231)
(24.1864 0.00685682 -0.570676)
(26.8708 0.0336243 -0.938061)
(29.9749 0.0574961 -1.1612)
(33.0271 0.0741564 -1.21582)
(35.7232 0.0970732 -1.16107)
(37.9531 0.118439 -1.05908)
(39.7367 0.134138 -0.944862)
(41.1596 0.162514 -0.838543)
(42.2719 0.233273 -0.756062)
(43.073 0.372564 -0.712969)
(43.5717 0.599291 -0.733421)
(43.8392 0.921706 -0.866522)
(44.048 1.31973 -1.17915)
(44.4564 1.73559 -1.6994)
(45.2829 2.09435 -2.35126)
(46.5438 2.33921 -2.96976)
(48.0757 2.45279 -3.40379)
(49.551 2.45211 -3.57443)
(50.8156 2.37414 -3.52459)
(51.3873 2.24012 -3.23935)
(51.9029 2.10363 -3.09216)
(51.5231 1.76401 -2.55193)
(20.0093 0.00732072 -0.0154801)
(20.103 0.0267546 -0.0503431)
(20.3043 0.0526484 -0.0830796)
(20.5896 0.084861 -0.104198)
(20.9079 0.115903 -0.109398)
(21.2318 0.134305 -0.117894)
(21.6558 0.128165 -0.173975)
(22.5287 0.103357 -0.358443)
(24.263 0.13868 -0.679187)
(26.8265 0.228008 -1.01323)
(29.7892 0.306868 -1.22461)
(32.7371 0.376826 -1.29152)
(35.355 0.475392 -1.26098)
(37.5228 0.559054 -1.18348)
(39.2686 0.604316 -1.08431)
(40.6969 0.665172 -0.97966)
(41.8662 0.827084 -0.884695)
(42.7759 1.15948 -0.811017)
(43.4281 1.71063 -0.772374)
(43.8642 2.50825 -0.799714)
(44.1834 3.52355 -0.948571)
(44.5628 4.63818 -1.27503)
(45.2147 5.66474 -1.77241)
(46.241 6.42887 -2.33233)
(47.5793 6.84754 -2.80608)
(48.9618 6.94141 -3.07922)
(50.2427 6.79807 -3.14938)
(50.9349 6.48227 -2.98855)
(51.5966 6.12342 -2.91848)
(51.4783 5.21792 -2.49968)
(20.0096 0.0119043 -0.0158761)
(20.1059 0.0440245 -0.0512861)
(20.3113 0.0874914 -0.0837007)
(20.5988 0.143322 -0.101601)
(20.911 0.205363 -0.107223)
(21.2355 0.264171 -0.134829)
(21.7073 0.304909 -0.229977)
(22.7031 0.350726 -0.461532)
(24.5183 0.465297 -0.795575)
(27.0414 0.604938 -1.0974)
(29.9133 0.716552 -1.27436)
(32.7862 0.844107 -1.32594)
(35.334 1.05469 -1.29901)
(37.4171 1.22561 -1.23856)
(39.0957 1.28999 -1.1552)
(40.5159 1.34061 -1.05691)
(41.7397 1.52059 -0.95673)
(42.7515 1.93212 -0.8628)
(43.54 2.64142 -0.77873)
(44.119 3.69434 -0.716543)
(44.5288 5.07747 -0.712651)
(44.8576 6.67469 -0.833025)
(45.2699 8.25959 -1.13586)
(45.9338 9.56057 -1.5912)
(46.9167 10.3901 -2.07376)
(48.0497 10.7195 -2.43626)
(49.2195 10.6492 -2.62504)
(49.9239 10.2809 -2.58707)
(50.6541 9.79192 -2.60485)
(50.6416 8.49314 -2.29319)
(20.01 0.0163622 -0.0163846)
(20.1104 0.0609684 -0.052613)
(20.3234 0.122211 -0.0844046)
(20.6169 0.203671 -0.0991453)
(20.9313 0.305887 -0.108681)
(21.2696 0.427512 -0.151321)
(21.8207 0.556606 -0.278459)
(22.9648 0.7249 -0.547653)
(24.8508 0.924428 -0.866047)
(27.3338 1.07528 -1.11183)
(30.1369 1.16011 -1.22602)
(32.9753 1.32339 -1.24087)
(35.4666 1.68904 -1.20725)
(37.4346 1.98289 -1.16741)
(39.0078 2.0642 -1.10859)
(40.405 2.07307 -1.0253)
(41.687 2.2172 -0.930145)
(42.8089 2.62425 -0.830408)
(43.7403 3.36913 -0.722392)
(44.4689 4.50817 -0.603045)
(44.9875 6.04716 -0.484111)
(45.3121 7.91166 -0.419646)
(45.5178 9.90038 -0.51358)
(45.7715 11.6968 -0.825344)
(46.2699 13.0029 -1.2837)
(46.9922 13.6828 -1.71983)
(47.9 13.806 -2.02279)
(48.4843 13.4958 -2.10444)
(49.1865 12.9816 -2.20739)
(49.1179 11.448 -1.98892)
(20.0106 0.0204534 -0.0169957)
(20.1168 0.0766521 -0.0542845)
(20.3413 0.155295 -0.0852688)
(20.6478 0.263664 -0.098041)
(20.9767 0.414288 -0.112022)
(21.3513 0.614704 -0.166695)
(22.0158 0.862508 -0.321884)
(23.2782 1.16149 -0.585862)
(25.1769 1.41033 -0.848772)
(27.5765 1.47429 -0.997553)
(30.3207 1.41769 -0.994395)
(33.1843 1.56591 -0.937844)
(35.6798 2.16512 -0.906783)
(37.4834 2.63723 -0.909642)
(38.8901 2.73215 -0.904267)
(40.2291 2.66344 -0.856831)
(41.5525 2.72744 -0.780692)
(42.7705 3.0713 -0.688941)
(43.8304 3.76586 -0.57733)
(44.7158 4.86944 -0.433682)
(45.3952 6.41165 -0.250043)
(45.7859 8.35527 -0.0513041)
(45.8957 10.5862 0.0641502)
(45.829 12.8204 -0.0526615)
(45.8058 14.6397 -0.441435)
(45.9772 15.7671 -0.937132)
(46.4602 16.2003 -1.359)
(46.7796 16.0585 -1.56748)
(47.3523 15.6227 -1.75613)
(47.0761 14.0144 -1.62299)
(20.0114 0.0238845 -0.0176922)
(20.1252 0.0901234 -0.0561301)
(20.3657 0.184299 -0.0863455)
(20.6942 0.319053 -0.0983543)
(21.0527 0.520609 -0.11668)
(21.4922 0.805658 -0.181641)
(22.2749 1.18238 -0.341819)
(23.5946 1.57752 -0.562787)
(25.401 1.80548 -0.718511)
(27.6269 1.53742 -0.688944)
(30.3152 1.04031 -0.468101)
(33.3487 1.12136 -0.309421)
(35.896 2.15287 -0.315319)
(37.4778 2.97891 -0.415271)
(38.621 3.18095 -0.509138)
(39.8412 3.03668 -0.518281)
(41.1728 2.97874 -0.468353)
(42.4548 3.19657 -0.391217)
(43.6256 3.77434 -0.28962)
(44.6771 4.77928 -0.148896)
(45.4541 6.22427 0.0451406)
(45.8314 8.07442 0.289725)
(45.8078 10.2808 0.539044)
(45.5457 12.7482 0.633047)
(45.3135 15.1657 0.40592)
(45.0681 16.9222 -0.0904415)
(45.0562 17.8083 -0.631449)
(44.9741 17.9479 -0.98465)
(45.3084 17.6893 -1.26822)
(44.6806 16.1608 -1.21795)
(20.0123 0.0261497 -0.0184867)
(20.1354 0.0999974 -0.0582022)
(20.3963 0.206806 -0.0878446)
(20.7564 0.363705 -0.0999138)
(21.1605 0.60974 -0.121475)
(21.6864 0.974234 -0.18984)
(22.5568 1.45199 -0.32447)
(23.8451 1.89775 -0.460697)
(25.3552 1.9233 -0.440176)
(27.2219 1.23127 -0.0613216)
(29.7918 -0.214916 0.612674)
(33.1261 -0.126289 0.979857)
(35.7799 1.39633 0.829863)
(37.0113 2.62948 0.446713)
(37.7327 2.93892 0.101309)
(38.7153 2.76464 -0.037697)
(40.0014 2.62433 -0.0251872)
(41.318 2.72832 0.0504473)
(42.5415 3.18298 0.14799)
(43.6442 4.07568 0.256314)
(44.5465 5.43355 0.391533)
(45.1054 7.21068 0.577102)
(45.1615 9.31485 0.824241)
(44.7674 11.7235 1.06735)
(44.2825 14.3947 1.08654)
(43.8754 16.8693 0.729526)
(43.6408 18.5368 0.14384)
(43.1742 19.1569 -0.355359)
(43.1929 19.1826 -0.751793)
(42.0794 17.8706 -0.790958)
(20.0134 0.0272476 -0.0193406)
(20.1473 0.104587 -0.0606795)
(20.4321 0.218859 -0.0904811)
(20.8309 0.392577 -0.102569)
(21.295 0.67061 -0.124978)
(21.9104 1.09245 -0.185062)
(22.8244 1.62174 -0.270343)
(23.9302 2.0695 -0.273771)
(24.9496 1.83045 0.0238659)
(24.1372 0.154781 0.572592)
(26.0405 -2.65545 0.862577)
(28.2184 -5.39782 1.37514)
(31.8396 -1.92151 0.588487)
(33.3062 1.04061 0.356975)
(34.0577 2.81392 0.0395628)
(34.9397 2.12975 0.177633)
(36.2108 1.58267 0.336527)
(37.5186 1.44394 0.480218)
(38.851 1.77541 0.591427)
(40.2039 2.60418 0.663802)
(41.4746 3.91675 0.717779)
(42.5265 5.68153 0.791824)
(43.1396 7.79391 0.934315)
(43.1148 10.1395 1.17701)
(42.6668 12.7913 1.39745)
(42.1699 15.659 1.32133)
(41.8589 18.1274 0.865117)
(41.2717 19.572 0.306307)
(41.0737 20.1179 -0.188549)
(39.4216 19.1753 -0.324268)
(20.0146 0.0267735 -0.0202623)
(20.1603 0.103947 -0.0633362)
(20.4716 0.218985 -0.094492)
(20.9141 0.396001 -0.106835)
(21.4437 0.685779 -0.127489)
(22.1406 1.13104 -0.168251)
(23.0397 1.66575 -0.188616)
(23.9232 2.06002 -0.0460074)
(22.7957 1.46986 0.485466)
(21.5124 -2.08261 1.24145)
(17.2992 -6.06522 2.72373)
(20.4232 -8.85777 -3.17722)
(27.7567 -1.54933 -0.786376)
(25.9752 1.60341 0.961758)
(22.2718 3.06302 1.0875)
(24.0279 1.88072 0.93097)
(26.4172 0.692777 0.958482)
(29.0895 -0.0415382 0.981341)
(31.8387 -0.120574 1.00178)
(34.3586 0.526493 1.02535)
(36.3757 1.80639 1.04503)
(37.963 3.5576 1.05478)
(39.1216 5.68884 1.07282)
(39.7212 8.05791 1.15767)
(39.7839 10.6576 1.36327)
(39.5981 13.6508 1.51869)
(39.4961 16.7283 1.34572)
(38.9747 19.0327 0.901026)
(38.7524 20.3329 0.394738)
(36.6409 19.9557 0.185938)
(20.0158 0.0248002 -0.0212716)
(20.1734 0.0974883 -0.0661503)
(20.5123 0.207184 -0.0990202)
(20.9999 0.37906 -0.114549)
(21.5939 0.656875 -0.132834)
(22.3441 1.08344 -0.149769)
(23.2158 1.57806 -0.106835)
(23.7025 1.93773 0.173144)
(22.1117 1.45905 0.681514)
(16.4776 -1.58944 1.08046)
(3.96096 -5.57821 -0.580857)
(19.5496 -8.52277 -5.83603)
(23.4557 -5.32292 0.354574)
(20.4577 -4.45608 0.569157)
(7.65953 -1.23483 0.614675)
(15.4058 -2.94622 0.203785)
(23.2131 -4.32679 0.22891)
(29.4763 -4.87975 0.36374)
(33.9272 -4.45956 0.561382)
(36.7837 -3.19758 0.747674)
(38.3674 -1.36198 0.898806)
(38.8714 0.82636 1.04656)
(38.6667 3.22716 1.17329)
(38.0041 5.72033 1.23396)
(37.1449 8.26441 1.29305)
(36.5075 11.165 1.43853)
(36.4587 14.5788 1.49054)
(36.1674 17.6799 1.2757)
(36.1056 19.8288 0.881274)
(33.6971 20.1702 0.667538)
(20.017 0.0214656 -0.0222924)
(20.1861 0.0858446 -0.069237)
(20.5512 0.18444 -0.103816)
(21.0809 0.340027 -0.121156)
(21.7329 0.58917 -0.137769)
(22.5143 0.955722 -0.135242)
(23.3571 1.37192 -0.0377781)
(23.6384 1.68873 0.30569)
(21.852 1.76311 0.7311)
(15.9754 3.07803 1.32605)
(16.3124 1.28774 -5.06811)
(27.4597 -6.79409 0.74594)
(5.18175 -6.71449 1.16426)
(14.8266 -7.71361 -1.37143)
(23.7329 -8.7483 -0.928324)
(30.6692 -9.0963 -0.547905)
(35.0487 -8.56669 -0.107748)
(37.4179 -7.21664 0.29081)
(38.5892 -5.27464 0.538971)
(39.1295 -2.97801 0.66871)
(39.2623 -0.526503 0.787071)
(38.8806 1.9761 0.960192)
(37.8593 4.45026 1.13382)
(36.1468 6.76177 1.21058)
(34.2673 9.13195 1.27243)
(33.3578 12.2373 1.38261)
(32.9414 15.7489 1.37921)
(33.0925 18.7059 1.17521)
(30.5893 19.8665 1.04439)
(20.0182 0.0170967 -0.0233154)
(20.1977 0.0701556 -0.0724192)
(20.586 0.15276 -0.108848)
(21.1529 0.284931 -0.125619)
(21.8496 0.490418 -0.136014)
(22.6469 0.77278 -0.113381)
(23.4283 1.06825 0.0205234)
(23.6969 1.25959 0.366494)
(22.0298 1.56294 0.599733)
(18.7918 4.55816 1.09982)
(12.707 10.1375 0.71538)
(11.4364 9.70523 -3.50084)
(3.40687 2.2358 -0.956783)
(9.68874 -0.0460253 -2.63024)
(25.7631 -10.4681 -0.842542)
(30.7149 -11.3069 -0.874875)
(33.679 -11.0172 -0.471575)
(34.8039 -9.95436 0.105826)
(34.9419 -8.24139 0.428299)
(34.8708 -6.1015 0.455858)
(34.9028 -3.76552 0.412388)
(34.9343 -1.40752 0.47643)
(34.8315 0.944244 0.661702)
(34.5563 3.397 0.897196)
(33.7456 5.82174 1.04097)
(32.0363 7.9756 1.07227)
(30.4629 10.4509 1.14391)
(29.5404 13.7331 1.25733)
(29.7397 17.1713 1.25263)
(27.3001 19.1142 1.27839)
(20.0192 0.0121096 -0.0243874)
(20.2076 0.0521622 -0.0755914)
(20.6153 0.115567 -0.11334)
(21.2121 0.215484 -0.130897)
(21.933 0.366784 -0.139203)
(22.7188 0.544718 -0.101468)
(23.3962 0.678818 0.0568351)
(23.6018 0.624081 0.37388)
(23.0952 0.796419 0.821008)
(21.2645 2.03193 0.771631)
(22.7633 5.27499 1.19779)
(24.2466 5.49746 1.30253)
(24.994 -0.144949 1.87839)
(26.7782 -6.93563 1.32025)
(31.1155 -11.7946 -0.631695)
(31.5779 -11.8206 -0.866644)
(31.5278 -11.3904 -0.161092)
(30.7709 -10.2736 0.391778)
(30.0047 -8.3588 0.322219)
(29.6744 -6.04703 0.00352985)
(29.7366 -3.75413 -0.167206)
(29.9397 -1.64636 -0.0702155)
(29.8313 0.273293 0.234042)
(29.4542 2.24819 0.605934)
(29.1272 4.57589 0.866641)
(28.3134 6.91843 0.917747)
(27.051 9.18604 0.903869)
(25.8922 12.0109 1.00926)
(26.052 15.5097 1.14453)
(23.8038 18.0236 1.36112)
(20.02 0.00716189 -0.0254745)
(20.2158 0.0332077 -0.0785643)
(20.6382 0.0773086 -0.118495)
(21.254 0.148487 -0.138448)
(21.9804 0.242917 -0.144416)
(22.7221 0.313199 -0.0916037)
(23.2696 0.260585 0.0836617)
(23.341 -0.0306434 0.370886)
(22.9156 -0.428754 0.674582)
(22.7433 -0.557628 0.946422)
(24.2377 -0.718671 1.12208)
(26.9853 -2.85301 1.1316)
(29.1175 -6.77113 0.622853)
(29.5058 -9.61164 -0.670075)
(28.9289 -10.435 -1.53423)
(28.55 -10.9893 -0.841245)
(27.4893 -11.126 0.34518)
(26.0217 -9.84952 0.479065)
(25.1177 -7.50303 -0.0972828)
(24.9764 -5.08246 -0.549583)
(25.1598 -3.00559 -0.614653)
(25.3164 -1.26824 -0.379104)
(25.1063 0.205736 0.0256563)
(24.3423 1.57598 0.458401)
(23.6369 3.35463 0.772338)
(23.1555 5.63788 0.849254)
(22.5248 7.99026 0.749299)
(21.6346 10.5521 0.747539)
(21.9155 13.9044 0.919217)
(20.0594 16.7145 1.30445)
(20.0208 0.00247446 -0.0265064)
(20.2222 0.0165134 -0.0818533)
(20.6538 0.042791 -0.124091)
(21.2777 0.0838658 -0.144267)
(21.9922 0.125522 -0.146303)
(22.6591 0.0997622 -0.0799196)
(23.0323 -0.11556 0.101347)
(22.885 -0.644559 0.348016)
(22.3389 -1.48276 0.53748)
(22.1959 -2.38216 0.655175)
(23.3386 -3.35562 0.718269)
(25.3314 -5.23797 0.488549)
(27.0663 -7.48343 -0.431958)
(27.1141 -8.40568 -1.59637)
(26.386 -9.06626 -1.63921)
(25.4798 -10.4353 -0.0489733)
(23.3498 -10.6556 0.915497)
(21.3688 -8.64863 0.326836)
(20.6229 -5.9675 -0.462969)
(20.6675 -3.73734 -0.738261)
(20.8243 -2.07883 -0.58851)
(20.7616 -0.80084 -0.237875)
(20.2676 0.248899 0.186454)
(19.1423 1.17083 0.572941)
(17.843 2.39821 0.81735)
(17.0962 4.3434 0.848525)
(16.8401 6.69834 0.669113)
(16.4687 9.15401 0.529507)
(17.143 12.3556 0.64878)
(16.0196 15.2606 1.13207)
(20.0215 -0.000991475 -0.0275374)
(20.2264 0.00302204 -0.0851036)
(20.6631 0.0140564 -0.128826)
(21.2872 0.031239 -0.149545)
(21.9763 0.0320466 -0.147639)
(22.5448 -0.0633874 -0.0688966)
(22.7178 -0.392536 0.110837)
(22.3126 -1.0672 0.311378)
(21.5618 -2.1775 0.424475)
(21.4177 -3.68862 0.403067)
(22.485 -5.14034 0.147659)
(24.1077 -6.21001 -0.491953)
(25.217 -6.39544 -1.41784)
(24.664 -6.3158 -2.02716)
(23.9937 -7.83431 -1.17763)
(22.2044 -10.0201 0.969808)
(18.5448 -9.71122 1.23964)
(16.3021 -7.05183 0.133384)
(15.8256 -4.45462 -0.49271)
(15.9238 -2.66844 -0.453444)
(15.8794 -1.4894 -0.126863)
(15.4865 -0.600249 0.24261)
(14.6511 0.127925 0.575732)
(13.1521 0.752212 0.827531)
(11.2862 1.59752 0.91839)
(10.1007 3.1494 0.821265)
(10.0085 5.34208 0.557044)
(10.235 7.69274 0.315856)
(11.5726 10.7553 0.370724)
(11.6766 13.6573 0.867127)
(20.0219 -0.00317009 -0.0284393)
(20.2292 -0.00577384 -0.0878405)
(20.6678 -0.00500841 -0.133046)
(21.2867 -0.00462732 -0.15496)
(21.9422 -0.028981 -0.148839)
(22.3995 -0.161329 -0.0600367)
(22.3708 -0.538233 0.113295)
(21.688 -1.24813 0.286207)
(20.6781 -2.55485 0.336509)
(20.5605 -4.3266 0.0197144)
(21.6601 -5.42014 -0.669416)
(23.0194 -5.39314 -1.38673)
(23.5073 -4.56341 -1.91109)
(22.5668 -4.70569 -1.95591)
(22.0256 -7.22718 -0.286164)
(18.185 -9.56149 2.04914)
(12.3216 -8.50457 1.4095)
(9.78502 -5.74436 0.144243)
(9.33508 -3.60303 -0.0982555)
(9.06308 -2.35366 0.212199)
(8.40925 -1.61513 0.560537)
(7.41885 -1.00168 0.782224)
(6.35616 -0.32557 0.956433)
(4.66677 0.307283 1.04918)
(2.53138 0.990956 0.898944)
(1.45319 2.21548 0.600828)
(1.90242 4.10183 0.261145)
(2.88519 6.17481 -0.0256414)
(5.18104 8.99803 0.0246574)
(7.16777 11.8311 0.481391)
(20.0224 -0.00371456 -0.0292204)
(20.231 -0.00924414 -0.0903276)
(20.6695 -0.01378 -0.137074)
(21.281 -0.0216538 -0.160024)
(21.8992 -0.0540407 -0.148852)
(22.2472 -0.189341 -0.0535827)
(22.0324 -0.539481 0.113733)
(21.0597 -1.19809 0.2777)
(19.7837 -2.53573 0.195163)
(19.7817 -4.02649 -0.523728)
(20.9552 -4.47999 -1.40698)
(22.1727 -3.82664 -1.89401)
(22.1078 -2.82458 -2.01018)
(20.9432 -3.43721 -1.6092)
(20.1298 -6.45855 0.848544)
(12.4159 -8.36366 2.98499)
(3.83494 -6.82786 1.47212)
(0.259413 -4.60329 0.432764)
(-1.16429 -3.05698 0.530487)
(-2.76579 -2.10466 0.842624)
(-5.20564 -1.48226 0.959064)
(-7.73136 -0.976415 0.837994)
(-9.63834 -0.513536 0.58911)
(-10.7319 -0.0156876 0.286158)
(-10.9012 0.642951 -0.0171449)
(-9.97675 1.60656 -0.271294)
(-8.06508 3.00404 -0.466881)
(-5.60891 4.77243 -0.558264)
(-2.02121 7.01538 -0.392103)
(2.94494 9.67691 -0.0541305)
(20.0225 -0.00261053 -0.029735)
(20.2317 -0.00729717 -0.0919323)
(20.6696 -0.0124034 -0.139795)
(21.2743 -0.0207905 -0.163038)
(21.8582 -0.0448324 -0.146868)
(22.1125 -0.143557 -0.0494359)
(21.7394 -0.389619 0.116096)
(20.4786 -0.894788 0.269521)
(19.0099 -1.94364 -0.0267268)
(19.148 -2.8734 -1.08117)
(20.3521 -2.85754 -1.91974)
(21.4611 -2.10673 -2.11306)
(20.9784 -1.34091 -1.9256)
(19.7538 -2.18829 -1.102)
(17.9392 -4.7568 1.92944)
(4.73229 -5.80706 3.40387)
(-6.35122 -4.32385 1.41643)
(-12.2068 -2.94775 0.679919)
(-16.056 -2.00274 0.467676)
(-18.9209 -1.4292 0.311118)
(-21.0506 -1.10091 0.0876755)
(-22.3415 -0.864528 -0.171635)
(-22.6984 -0.603 -0.418064)
(-22.3524 -0.25826 -0.641536)
(-21.3088 0.228275 -0.836676)
(-19.4644 0.938166 -0.980162)
(-16.7689 1.97239 -1.05039)
(-13.172 3.27861 -0.986218)
(-7.88228 4.75458 -0.796528)
(-0.077515 6.74797 -0.726532)
(20.0226 -0.0008312 -0.0298615)
(20.2315 -0.00243083 -0.0927521)
(20.6685 -0.00459766 -0.141287)
(21.2697 -0.00818341 -0.163425)
(21.8343 -0.0164011 -0.141149)
(22.0283 -0.0518101 -0.0385528)
(21.5296 -0.139599 0.137519)
(20.018 -0.34083 0.27651)
(18.4315 -0.761117 -0.250759)
(18.6647 -1.06883 -1.51689)
(19.8993 -0.974588 -2.19141)
(20.9444 -0.626119 -2.12584)
(20.2277 -0.330454 -1.73664)
(19.1343 -0.754082 -0.616816)
(16.0033 -1.79585 2.54659)
(-2.05227 -2.08109 3.27199)
(-13.9362 -1.52297 1.22145)
(-20.6077 -1.06695 0.402111)
(-24.6657 -0.7474 0.0238794)
(-27.176 -0.545037 -0.229592)
(-28.5911 -0.421088 -0.456082)
(-29.2851 -0.326458 -0.67025)
(-29.3208 -0.218744 -0.871206)
(-28.6915 -0.0807938 -1.05421)
(-27.3228 0.103612 -1.21326)
(-25.0643 0.372549 -1.33767)
(-21.7712 0.762737 -1.40237)
(-17.1838 1.23652 -1.34365)
(-10.3249 1.75437 -1.26262)
(-1.14079 2.55556 -1.53082)
(20.0098 0.00233513 -0.0471846)
(20.106 0.00868308 -0.149386)
(20.3131 0.0177137 -0.246713)
(20.6207 0.0289914 -0.323098)
(21.0131 0.0478903 -0.37989)
(21.5596 0.0746875 -0.460028)
(22.6204 0.0910251 -0.707004)
(24.6789 0.0854976 -1.27959)
(27.6683 0.066772 -2.09569)
(30.8924 0.051374 -2.67431)
(33.8928 0.0375362 -2.78262)
(36.541 0.02851 -2.60353)
(38.7562 0.0369412 -2.31001)
(40.5186 0.0561654 -2.00357)
(41.8958 0.0832172 -1.73319)
(42.9791 0.13556 -1.5303)
(43.8319 0.236793 -1.43885)
(44.5176 0.400541 -1.52308)
(45.1657 0.622812 -1.86277)
(45.978 0.881544 -2.53641)
(47.1201 1.14304 -3.54433)
(48.6019 1.37501 -4.74372)
(50.2754 1.55725 -5.87661)
(51.9092 1.68357 -6.68925)
(53.2911 1.75876 -7.04513)
(54.1771 1.79521 -6.9277)
(54.5063 1.80475 -6.46729)
(53.9401 1.77964 -5.7365)
(53.2167 1.73537 -5.21086)
(50.7075 1.52016 -4.16367)
(20.01 0.00693287 -0.0477613)
(20.1076 0.025811 -0.150725)
(20.3172 0.0523297 -0.247462)
(20.6299 0.0877898 -0.322615)
(21.0374 0.148544 -0.388847)
(21.6236 0.228045 -0.498596)
(22.7143 0.277695 -0.799356)
(24.677 0.277494 -1.42149)
(27.4403 0.249941 -2.21956)
(30.4374 0.224972 -2.73474)
(33.3093 0.197145 -2.86175)
(35.8991 0.185442 -2.73682)
(38.0845 0.223046 -2.49861)
(39.8332 0.279083 -2.2339)
(41.2309 0.336604 -1.98257)
(42.3889 0.448626 -1.76988)
(43.3732 0.684595 -1.63221)
(44.2259 1.08443 -1.61389)
(45.0224 1.64757 -1.76863)
(45.8907 2.33098 -2.16245)
(46.9565 3.05311 -2.83183)
(48.2606 3.72383 -3.72984)
(49.732 4.27594 -4.70216)
(51.2154 4.68037 -5.5349)
(52.5417 4.9377 -6.05052)
(53.4962 5.0802 -6.1658)
(54.0091 5.1386 -5.93913)
(53.7303 5.10362 -5.41841)
(53.3027 4.99529 -5.02106)
(51.1632 4.45941 -4.13312)
(20.0103 0.0114577 -0.0489138)
(20.111 0.0429444 -0.153828)
(20.3267 0.0867367 -0.250462)
(20.6517 0.150009 -0.324942)
(21.0896 0.261721 -0.399836)
(21.7516 0.397543 -0.559555)
(22.9558 0.491657 -0.961941)
(24.9616 0.5198 -1.66746)
(27.5713 0.506487 -2.39823)
(30.3567 0.478458 -2.80108)
(33.0923 0.431482 -2.88478)
(35.6199 0.422604 -2.76747)
(37.767 0.510551 -2.56595)
(39.4718 0.611272 -2.34431)
(40.8466 0.675316 -2.1216)
(42.0371 0.794935 -1.90912)
(43.1079 1.08753 -1.734)
(44.0776 1.61808 -1.62354)
(44.978 2.39929 -1.60677)
(45.8738 3.38949 -1.73138)
(46.8405 4.48292 -2.0527)
(47.9235 5.54195 -2.60321)
(49.1086 6.45217 -3.34238)
(50.3126 7.14659 -4.12482)
(51.4286 7.62135 -4.75385)
(52.2903 7.90823 -5.08286)
(52.8323 8.05839 -5.08935)
(52.6883 8.07009 -4.78482)
(52.4332 7.94403 -4.53903)
(50.5069 7.2296 -3.81448)
(20.0108 0.0158382 -0.0505271)
(20.1161 0.0597268 -0.158218)
(20.3422 0.120652 -0.25539)
(20.6887 0.216019 -0.3299)
(21.1697 0.384377 -0.418223)
(21.9347 0.585999 -0.637309)
(23.2896 0.744381 -1.13746)
(25.3451 0.820643 -1.87957)
(27.8017 0.831317 -2.46911)
(30.413 0.774545 -2.73995)
(33.0288 0.66924 -2.73022)
(35.5148 0.647611 -2.58029)
(37.6318 0.821978 -2.40619)
(39.26 0.992688 -2.24116)
(40.5636 1.05015 -2.06657)
(41.7465 1.13443 -1.87128)
(42.8713 1.41567 -1.67828)
(43.9309 1.98234 -1.50475)
(44.9244 2.8667 -1.35958)
(45.8633 4.04756 -1.26885)
(46.7641 5.42141 -1.28338)
(47.6474 6.81841 -1.48033)
(48.5238 8.0711 -1.92709)
(49.3653 9.0667 -2.57773)
(50.1481 9.76944 -3.2671)
(50.7663 10.2209 -3.78501)
(51.1866 10.491 -4.02138)
(51.0353 10.5891 -3.93676)
(50.8363 10.5092 -3.84897)
(48.9983 9.72212 -3.28977)
(20.0115 0.019884 -0.0525112)
(20.1231 0.0753196 -0.163667)
(20.3647 0.152946 -0.262239)
(20.7416 0.283218 -0.33789)
(21.2831 0.511509 -0.442395)
(22.1759 0.787894 -0.718097)
(23.672 1.02027 -1.28387)
(25.7161 1.15023 -1.94003)
(28.0311 1.17021 -2.36169)
(30.4672 1.02911 -2.44277)
(32.9764 0.789476 -2.25361)
(35.4852 0.723963 -2.03148)
(37.6026 1.05867 -1.91509)
(39.1053 1.35212 -1.86216)
(40.2505 1.39711 -1.77834)
(41.3539 1.40356 -1.62004)
(42.4819 1.6094 -1.42335)
(43.6009 2.12487 -1.21427)
(44.686 3.00446 -0.99383)
(45.7086 4.25724 -0.765818)
(46.6307 5.80886 -0.555052)
(47.4203 7.49339 -0.441337)
(48.0452 9.08489 -0.555685)
(48.5149 10.4 -0.984352)
(48.8806 11.3608 -1.65694)
(49.1268 12.0001 -2.33141)
(49.2833 12.4134 -2.79726)
(48.9889 12.6333 -2.94194)
(48.7361 12.6568 -3.01621)
(46.8698 11.9015 -2.62275)
(20.0124 0.023279 -0.0548671)
(20.1322 0.0883464 -0.170083)
(20.3945 0.181462 -0.271305)
(20.811 0.345565 -0.349076)
(21.4315 0.6303 -0.46883)
(22.4616 0.979467 -0.782648)
(24.0619 1.28583 -1.34385)
(26.0428 1.46318 -1.83434)
(28.1777 1.45944 -2.01938)
(30.4032 1.11758 -1.79402)
(32.8235 0.584417 -1.29884)
(35.5002 0.45899 -1.01508)
(37.696 1.13616 -1.0729)
(38.938 1.68121 -1.23401)
(39.7289 1.72969 -1.28461)
(40.6161 1.59432 -1.15419)
(41.6788 1.64045 -0.940185)
(42.8359 2.0133 -0.70665)
(44.0314 2.78967 -0.457858)
(45.2048 4.00591 -0.179043)
(46.3143 5.64671 0.139219)
(47.2247 7.58111 0.455523)
(47.788 9.54261 0.640733)
(47.9526 11.2293 0.500099)
(47.8066 12.4481 -0.0372957)
(47.5558 13.2803 -0.7904)
(47.3149 13.8497 -1.4699)
(46.7434 14.2125 -1.85339)
(46.3272 14.3822 -2.09483)
(44.3162 13.7516 -1.86417)
(20.0134 0.0257208 -0.0572136)
(20.1432 0.0976861 -0.177416)
(20.4307 0.202695 -0.282357)
(20.8954 0.394087 -0.363286)
(21.6073 0.726129 -0.493239)
(22.7634 1.13691 -0.811986)
(24.4121 1.50095 -1.27767)
(26.2887 1.71031 -1.546)
(28.1576 1.63914 -1.39663)
(30.1163 1.0456 -0.654577)
(32.5022 0.00315511 0.359216)
(35.8055 -0.127378 0.508285)
(38.0858 1.1442 -0.11906)
(38.588 2.13856 -0.704993)
(38.4744 2.12155 -0.830233)
(38.9221 1.71207 -0.602759)
(39.9115 1.46045 -0.280112)
(41.1902 1.58129 0.0103178)
(42.6365 2.17759 0.260752)
(44.1186 3.30036 0.500462)
(45.5122 4.95046 0.78416)
(46.6637 7.0421 1.14539)
(47.3806 9.34721 1.51102)
(47.5004 11.5035 1.66965)
(47.0629 13.1636 1.39667)
(46.2686 14.221 0.705895)
(45.4593 14.8896 -0.109186)
(44.468 15.3858 -0.718298)
(43.7781 15.7225 -1.12917)
(41.5063 15.2839 -1.05681)
(20.0146 0.0265214 -0.0596958)
(20.1556 0.102489 -0.184392)
(20.4715 0.214507 -0.294237)
(20.9911 0.421201 -0.381812)
(21.797 0.78227 -0.511725)
(23.0544 1.23268 -0.793709)
(24.7005 1.63041 -1.09704)
(26.4186 1.86006 -1.07947)
(28.0009 1.67134 -0.46829)
(28.7624 0.993429 0.530078)
(31.1177 -0.855103 2.04399)
(34.8029 -2.45302 1.73179)
(38.0183 0.834893 -0.193104)
(37.4281 3.22769 -0.789593)
(34.3353 2.97628 -0.468222)
(34.7715 1.6492 0.0987115)
(36.157 0.843538 0.554172)
(37.9404 0.639945 0.871194)
(39.9075 1.04964 1.07361)
(41.863 2.08207 1.20727)
(43.6412 3.70063 1.35511)
(45.1349 5.85817 1.61337)
(46.1946 8.42402 1.997)
(46.5811 11.0555 2.35779)
(46.1928 13.2926 2.40694)
(45.1502 14.8243 1.95341)
(43.8651 15.7234 1.15746)
(42.3212 16.2821 0.404393)
(41.2334 16.7447 -0.14727)
(38.5885 16.5278 -0.219876)
(20.0158 0.0260693 -0.0625412)
(20.1689 0.100526 -0.192081)
(20.5136 0.214532 -0.305787)
(21.0906 0.425975 -0.3994)
(21.985 0.790161 -0.521893)
(23.3099 1.24685 -0.731351)
(24.9159 1.64409 -0.842566)
(26.4368 1.83578 -0.502411)
(27.0171 1.91208 0.265535)
(27.6842 0.5691 2.71851)
(28.5251 -1.41024 4.84137)
(29.6789 -6.76473 -4.25146)
(31.023 1.6964 -3.5016)
(30.3683 5.47826 -0.00888156)
(24.134 3.91562 1.2521)
(26.4473 1.41526 1.41932)
(29.5175 -0.204789 1.62485)
(32.7671 -0.911931 1.73433)
(35.8678 -0.70871 1.78988)
(38.6072 0.319874 1.81651)
(40.8699 2.00166 1.85394)
(42.6569 4.20484 1.97887)
(43.9647 6.87658 2.24859)
(44.6621 9.83786 2.62253)
(44.5847 12.6519 2.89092)
(43.6843 14.8374 2.75542)
(42.2602 16.2259 2.15867)
(40.3338 17.0312 1.40937)
(38.8277 17.6185 0.795119)
(35.7278 17.6092 0.616715)
(20.0171 0.0238743 -0.0654461)
(20.1825 0.0940186 -0.201138)
(20.5547 0.200171 -0.318739)
(21.1832 0.401551 -0.416085)
(22.1494 0.749188 -0.521739)
(23.5018 1.17763 -0.640985)
(25.0177 1.53656 -0.565181)
(26.2336 1.6688 0.0496386)
(26.4629 1.90117 1.24155)
(25.3683 1.32783 4.52049)
(19.7849 -0.634856 2.50914)
(-7.58184 -10.2158 -7.53666)
(0.627028 3.80865 2.0907)
(13.2913 6.93116 5.30394)
(12.164 0.453629 1.97101)
(20.1525 -2.75695 1.28168)
(26.8654 -4.42505 1.28873)
(31.928 -4.76443 1.44501)
(35.667 -3.98018 1.58958)
(38.403 -2.34305 1.68914)
(40.3307 -0.148407 1.80418)
(41.6435 2.38724 2.00303)
(42.4624 5.18922 2.30656)
(42.7754 8.25607 2.67721)
(42.5199 11.3941 3.01524)
(41.6449 14.1695 3.10847)
(40.2828 16.2127 2.78166)
(38.2316 17.4864 2.17328)
(36.4667 18.3474 1.60583)
(32.9328 18.5615 1.38744)
(20.0183 0.0204635 -0.0684732)
(20.1955 0.0817139 -0.210158)
(20.5942 0.177703 -0.33323)
(21.2692 0.354628 -0.434534)
(22.2882 0.653087 -0.5187)
(23.6348 1.01708 -0.548701)
(25.0367 1.31143 -0.312577)
(25.9887 1.40063 0.466727)
(25.905 1.86353 1.77561)
(23.4041 3.43424 5.57176)
(-1.61685 7.98153 3.94694)
(18.445 -8.34127 -0.75101)
(25.8626 -9.28488 -0.166799)
(30.6477 -9.14873 0.434653)
(33.7517 -8.14703 0.832911)
(35.9228 -6.33426 0.966915)
(37.5538 -3.97703 0.970339)
(38.823 -1.36167 1.03829)
(39.7938 1.36307 1.29796)
(40.4776 4.16819 1.75581)
(40.7291 7.12334 2.30369)
(40.3232 10.2086 2.79513)
(39.2513 13.1847 3.08358)
(37.831 15.7212 3.02391)
(35.7755 17.5505 2.63884)
(33.9382 18.8387 2.21388)
(30.1012 19.3307 2.03419)
(20.0195 0.0158581 -0.0715995)
(20.2072 0.0661733 -0.218665)
(20.6309 0.144236 -0.349156)
(21.3469 0.293389 -0.454605)
(22.3966 0.538851 -0.510262)
(23.7018 0.811423 -0.455277)
(24.9639 0.996137 -0.0994628)
(25.7261 0.955909 0.740787)
(25.5493 1.40144 1.85633)
(24.4385 3.79531 4.72499)
(24.9625 7.70179 4.0287)
(-2.36631 3.99614 -4.94813)
(-6.03324 -1.71348 -11.6047)
(12.4251 -5.08246 -8.25957)
(28.5432 -12.3879 -1.11354)
(29.9856 -12.1091 -0.360744)
(30.79 -11.1336 0.352789)
(31.5839 -9.38191 0.54529)
(32.4972 -6.97016 0.31648)
(33.4775 -4.30135 0.0754534)
(34.4486 -1.65481 0.106579)
(35.3456 0.914543 0.455479)
(36.1613 3.48935 1.03322)
(36.8027 6.24625 1.70242)
(36.9221 9.2296 2.31146)
(36.152 12.2206 2.74788)
(34.8056 14.9834 2.92064)
(32.8123 17.2505 2.79572)
(31.0472 19.0261 2.58577)
(27.1092 19.8509 2.52159)
(20.0205 0.0109126 -0.0745997)
(20.2177 0.0468887 -0.228511)
(20.6621 0.108123 -0.365795)
(21.4059 0.224118 -0.468323)
(22.4624 0.396835 -0.496906)
(23.6953 0.557309 -0.373701)
(24.7821 0.599585 0.068016)
(25.3363 0.371395 0.909942)
(25.265 0.207328 2.10812)
(24.6191 1.46017 3.18464)
(26.9146 4.56672 4.83802)
(30.3627 4.50995 4.77266)
(30.6632 -2.97861 3.59292)
(31.9052 -9.87934 1.4709)
(29.7562 -12.3585 -0.427264)
(27.3616 -12.4029 0.0588609)
(26.4666 -11.4347 0.455879)
(26.6268 -9.26166 0.0380838)
(27.345 -6.55302 -0.633539)
(28.292 -3.8963 -0.96986)
(29.234 -1.4513 -0.818534)
(30.0671 0.81751 -0.274105)
(30.7942 2.99445 0.479661)
(31.4501 5.35185 1.247)
(31.9682 8.14118 1.8814)
(31.8265 11.163 2.3284)
(30.9222 14.0823 2.59843)
(29.1852 16.6512 2.6822)
(27.6298 18.8812 2.71472)
(23.8387 20.056 2.82648)
(20.0215 0.00551592 -0.0778678)
(20.2263 0.0288436 -0.23856)
(20.6853 0.0700009 -0.3806)
(21.4487 0.147721 -0.479261)
(22.4949 0.252674 -0.483633)
(23.6239 0.300183 -0.30189)
(24.51 0.173066 0.200662)
(24.8233 -0.272506 1.00949)
(24.5546 -0.951701 1.88845)
(24.443 -1.46284 2.61481)
(25.9429 -1.83911 3.12892)
(28.704 -3.94538 2.98853)
(30.2993 -7.41738 1.48411)
(28.3405 -10.1308 -0.573864)
(24.0413 -11.5215 -0.608284)
(21.4708 -12.1575 0.415259)
(20.9214 -10.9469 0.268556)
(21.3211 -8.37363 -0.77609)
(22.1338 -5.65697 -1.58031)
(23.0619 -3.21165 -1.71965)
(23.9453 -1.05316 -1.30824)
(24.6937 0.879591 -0.565811)
(25.2448 2.67166 0.297861)
(25.6413 4.59405 1.08375)
(26.0861 7.02264 1.65638)
(26.3191 9.9331 2.00029)
(25.9848 12.965 2.21989)
(24.7294 15.7657 2.39127)
(23.5458 18.3871 2.62761)
(20.1981 19.884 2.93551)
(20.0224 0.00107282 -0.0810874)
(20.2324 0.0116694 -0.247331)
(20.703 0.0344122 -0.394691)
(21.4796 0.0801844 -0.48978)
(22.4943 0.124544 -0.469958)
(23.493 0.0689972 -0.239287)
(24.1385 -0.218785 0.296807)
(24.105 -0.898372 1.01754)
(23.5363 -2.04797 1.5737)
(23.3542 -3.3788 1.80042)
(24.274 -4.54961 1.69715)
(25.4983 -6.00932 0.923162)
(25.3867 -7.49388 -0.706564)
(21.8366 -9.00407 -1.38899)
(17.5804 -11.0678 0.0754073)
(15.8945 -11.8429 0.940579)
(15.7286 -9.89275 -0.0906632)
(16.2137 -7.08002 -1.42048)
(16.9462 -4.5566 -1.9783)
(17.7575 -2.45584 -1.76674)
(18.5218 -0.665095 -1.11632)
(19.1244 0.931522 -0.284334)
(19.4681 2.40352 0.555087)
(19.5054 3.96667 1.22959)
(19.5755 6.01415 1.62976)
(19.8441 8.68334 1.78459)
(19.9763 11.6792 1.85926)
(19.3296 14.5909 2.00749)
(18.6841 17.5148 2.37471)
(16.147 19.2668 2.84547)