/*--------------------------------*- C++ -*----------------------------------*\
| =========                 |                                                 |
| \\      /  F ield         | OpenFOAM: The Open Source CFD Toolbox           |
|  \\    /   O peration     | Version:  2512                                  |
|   \\  /    A nd           | Website:  www.openfoam.com                      |
|    \\/     M anipulation  |                                                 |
\*---------------------------------------------------------------------------*/
FoamFile
{
    version     2.0;
    format      ascii;
    arch        "LSB;label=32;scalar=64";
    class       volVectorField;
    location    "100";
    object      U;
}
// * * * * * * * * * * * * * * * * * * * * * * * * * * * * * * * * * * * * * //

dimensions      [0 1 -1 0 0 0 0];

internalField   nonuniform List<vector> 
84826
(
(20.0001 -0.00027697 0.000273901)
(20.0003 -0.000910078 0.000901662)
(20.0004 -0.00178173 0.00164626)
(20.001 -0.0031287 0.00257798)
(20.0033 -0.00526829 0.00377178)
(20.0094 -0.00863896 0.00529249)
(20.023 -0.013778 0.00718194)
(20.0494 -0.0212495 0.00938083)
(20.0962 -0.031151 0.0116396)
(20.1706 -0.0423394 0.0134625)
(20.2768 -0.0518229 0.0142136)
(20.408 -0.05304 0.0128403)
(20.5388 -0.041207 0.00859314)
(20.6304 -0.0177731 0.00203842)
(20.6565 0.00690072 -0.00548194)
(20.6268 0.0243512 -0.0129661)
(20.5731 0.0344751 -0.0201361)
(20.52 0.0411765 -0.0272737)
(20.4777 0.046996 -0.0352182)
(20.4528 0.0528253 -0.0450035)
(20.4564 0.0585105 -0.0581353)
(20.5004 0.0633688 -0.0760442)
(20.598 0.0674723 -0.0936538)
(20.7685 0.0706652 -0.112752)
(21.0192 0.0725233 -0.123166)
(21.4494 0.0852104 -0.143388)
(22.1863 0.101296 -0.250528)
(23.058 0.0863449 -0.316235)
(23.7656 0.050022 -0.31575)
(24.4388 -0.0261626 -0.207763)
(20.0001 -0.000800116 0.000278444)
(20.0001 -0.00263622 0.000917246)
(19.9998 -0.0051776 0.00167985)
(19.9996 -0.00912513 0.0026441)
(20.0007 -0.0154344 0.00389658)
(20.005 -0.0254505 0.00551957)
(20.0161 -0.0408897 0.00757983)
(20.0397 -0.0635967 0.0100535)
(20.0842 -0.0941909 0.0127073)
(20.1589 -0.129415 0.0149329)
(20.2709 -0.160172 0.0159124)
(20.4149 -0.164716 0.0141914)
(20.5606 -0.127144 0.0091772)
(20.6598 -0.0529034 0.00163768)
(20.6822 0.0236243 -0.00666626)
(20.6437 0.0758229 -0.0148804)
(20.5834 0.104956 -0.0226872)
(20.5276 0.124389 -0.0301825)
(20.4847 0.142317 -0.0380526)
(20.4597 0.161135 -0.0473868)
(20.4627 0.180227 -0.0597452)
(20.5055 0.197542 -0.0768655)
(20.6022 0.212445 -0.0940022)
(20.7709 0.223602 -0.110006)
(21.0248 0.229378 -0.126002)
(21.4568 0.259689 -0.16986)
(22.1397 0.296947 -0.255183)
(22.9492 0.270496 -0.310067)
(23.6195 0.200495 -0.324554)
(24.3113 0.0275777 -0.263342)
(20 -0.00124892 0.000288417)
(19.9997 -0.00412904 0.000952495)
(19.9986 -0.0081457 0.00175431)
(19.9969 -0.0144385 0.00278777)
(19.9956 -0.0246096 0.004165)
(19.9962 -0.0409994 0.00600803)
(20.0022 -0.0667784 0.00843816)
(20.0196 -0.105646 0.0115075)
(20.0587 -0.159747 0.0150278)
(20.1331 -0.224379 0.0181909)
(20.2572 -0.284048 0.019816)
(20.4293 -0.29459 0.0171621)
(20.608 -0.22412 0.0100623)
(20.7229 -0.0862307 -4.46113e-05)
(20.7356 0.0512163 -0.0101735)
(20.6773 0.139705 -0.0194318)
(20.6038 0.184488 -0.0276611)
(20.5438 0.211277 -0.0353499)
(20.5011 0.235667 -0.0434573)
(20.4769 0.263157 -0.0529414)
(20.4796 0.294315 -0.0650313)
(20.5207 0.327057 -0.0807075)
(20.6151 0.358641 -0.0959745)
(20.7803 0.382678 -0.10939)
(21.0366 0.397828 -0.134589)
(21.4714 0.440761 -0.197752)
(22.1205 0.491056 -0.268009)
(22.8933 0.471753 -0.312984)
(23.5414 0.407767 -0.335032)
(24.2981 0.196899 -0.31066)
(20 -0.00159127 0.000301569)
(19.9992 -0.00527478 0.00100107)
(19.9969 -0.0104554 0.00185767)
(19.993 -0.0186661 0.0029893)
(19.988 -0.0321509 0.00454841)
(19.983 -0.0543591 0.00672176)
(19.9806 -0.0903279 0.00973066)
(19.9873 -0.146643 0.0137604)
(20.0162 -0.228943 0.0187464)
(20.0876 -0.332992 0.0235547)
(20.2311 -0.437622 0.0261379)
(20.453 -0.457711 0.021687)
(20.6894 -0.337248 0.0103851)
(20.8287 -0.11177 -0.00499815)
(20.8212 0.100791 -0.0191176)
(20.7269 0.230221 -0.0302429)
(20.6296 0.29285 -0.0380483)
(20.5614 0.326933 -0.0446272)
(20.5189 0.353144 -0.0528008)
(20.4981 0.381571 -0.0639168)
(20.5043 0.417698 -0.0782368)
(20.547 0.462555 -0.0944749)
(20.6397 0.513785 -0.108544)
(20.8011 0.556193 -0.124599)
(21.0586 0.584913 -0.162782)
(21.4849 0.636738 -0.226412)
(22.0996 0.694293 -0.28638)
(22.843 0.683091 -0.324626)
(23.4711 0.634381 -0.351302)
(24.3247 0.411283 -0.354644)
(19.9999 -0.00179232 0.000316983)
(19.9985 -0.00595308 0.00105917)
(19.9947 -0.0118633 0.00198563)
(19.988 -0.0213677 0.00324171)
(19.9783 -0.0372941 0.00503536)
(19.9654 -0.0642824 0.00765214)
(19.951 -0.109697 0.0114795)
(19.9407 -0.184537 0.0169235)
(19.951 -0.301054 0.0241726)
(20.0122 -0.460526 0.031534)
(20.1849 -0.639643 0.0350119)
(20.4926 -0.679272 0.0272879)
(20.8231 -0.475507 0.00684812)
(20.9926 -0.117488 -0.0176303)
(20.9469 0.18381 -0.0386428)
(20.7984 0.34245 -0.0529287)
(20.6675 0.41195 -0.0587271)
(20.5855 0.451233 -0.0600166)
(20.5392 0.481142 -0.0631463)
(20.5209 0.511826 -0.0714961)
(20.5336 0.552612 -0.0850872)
(20.5831 0.608523 -0.101493)
(20.6779 0.682245 -0.114154)
(20.8346 0.75743 -0.13365)
(21.0858 0.814089 -0.181687)
(21.4923 0.876197 -0.243911)
(22.0643 0.932235 -0.297385)
(22.7766 0.922301 -0.330163)
(23.3813 0.887862 -0.359697)
(24.345 0.663717 -0.386533)
(19.9998 -0.00182819 0.000333938)
(19.9977 -0.00608188 0.00112227)
(19.9922 -0.0121881 0.00213175)
(19.9824 -0.0221716 0.00353734)
(19.9669 -0.0392925 0.00561025)
(19.9441 -0.0693095 0.00876828)
(19.9132 -0.12226 0.0136729)
(19.8775 -0.215504 0.0210634)
(19.8552 -0.372936 0.0317489)
(19.8895 -0.611899 0.0424333)
(20.1045 -0.915936 0.0472557)
(20.5583 -0.979451 0.0339647)
(21.0342 -0.636556 -0.00108816)
(21.2286 -0.0715135 -0.0378913)
(21.0999 0.364455 -0.0686667)
(20.8662 0.56737 -0.0931072)
(20.6971 0.640464 -0.104162)
(20.6052 0.672132 -0.104536)
(20.5577 0.688878 -0.10267)
(20.5435 0.703446 -0.105009)
(20.5653 0.729785 -0.113292)
(20.6269 0.777492 -0.126291)
(20.7339 0.85358 -0.138307)
(20.8963 0.952211 -0.153849)
(21.1361 1.04366 -0.193462)
(21.5012 1.12002 -0.248544)
(22.0042 1.17182 -0.295825)
(22.6676 1.15862 -0.323807)
(23.2351 1.13517 -0.35492)
(24.3092 0.913174 -0.402012)
(19.9998 -0.00168972 0.000350704)
(19.9969 -0.00562528 0.00118485)
(19.9897 -0.0113327 0.00227242)
(19.9765 -0.0208143 0.00384633)
(19.9547 -0.0374789 0.00624334)
(19.9203 -0.0677849 0.0100275)
(19.8681 -0.124185 0.0162094)
(19.7959 -0.231878 0.0261642)
(19.717 -0.433006 0.0406968)
(19.6967 -0.795905 0.0578779)
(19.9509 -1.30235 0.0553382)
(20.6415 -1.35376 0.0255735)
(21.3624 -0.794213 -0.0394741)
(21.5925 0.00986132 -0.0866733)
(21.3279 0.531391 -0.103705)
(20.9592 0.743445 -0.134246)
(20.7232 0.819078 -0.163306)
(20.6066 0.858102 -0.181522)
(20.5503 0.884603 -0.190076)
(20.5383 0.908626 -0.193593)
(20.5719 0.942811 -0.195174)
(20.6519 0.997975 -0.196131)
(20.7784 1.08126 -0.195369)
(20.9549 1.19362 -0.193309)
(21.1898 1.31273 -0.201502)
(21.5031 1.39917 -0.222007)
(21.9069 1.43307 -0.247606)
(22.4905 1.39456 -0.269218)
(22.9951 1.36408 -0.305913)
(24.1676 1.13147 -0.384425)
(19.9997 -0.00138532 0.000365577)
(19.9962 -0.00460326 0.00124236)
(19.9875 -0.00931649 0.00239808)
(19.971 -0.017248 0.00411669)
(19.943 -0.0315318 0.00683557)
(19.8964 -0.0582934 0.0113701)
(19.8192 -0.111163 0.0189846)
(19.6975 -0.220242 0.0324679)
(19.5235 -0.452643 0.0493831)
(19.3739 -0.968796 0.0819034)
(19.6517 -1.36089 0.00537117)
(20.5794 -1.87841 -0.0533827)
(21.837 -1.11778 -0.083809)
(22.3415 0.19832 -0.0911815)
(21.7371 1.34565 -0.181039)
(21.1967 1.58843 -0.198082)
(20.9097 1.59006 -0.222564)
(20.7636 1.526 -0.237655)
(20.6755 1.45512 -0.242684)
(20.6355 1.39738 -0.239837)
(20.6507 1.36401 -0.232053)
(20.7222 1.36197 -0.220413)
(20.8467 1.39468 -0.204089)
(21.0205 1.46232 -0.183685)
(21.2394 1.55284 -0.165462)
(21.4976 1.62585 -0.146171)
(21.7791 1.64409 -0.131196)
(22.2371 1.58111 -0.133688)
(22.6229 1.54177 -0.176813)
(23.8608 1.29258 -0.308723)
(19.9996 -0.000942005 0.000377363)
(19.9957 -0.00310395 0.00128662)
(19.9857 -0.00629266 0.00250021)
(19.9667 -0.0117061 0.00432832)
(19.9336 -0.0216653 0.00728986)
(19.8758 -0.0406648 0.012494)
(19.7749 -0.0802199 0.0216947)
(19.5918 -0.166525 0.0387872)
(19.2869 -0.379955 0.0604572)
(18.8085 -0.935623 0.0960396)
(19.0151 -1.72457 -0.0362334)
(20.6538 -2.71725 0.0125281)
(22.7855 -1.71608 0.369923)
(23.4365 0.451903 0.644855)
(21.4227 1.50387 1.11307)
(20.7754 1.98667 0.68223)
(20.5314 2.08666 0.361574)
(20.4456 2.03632 0.143057)
(20.3791 1.94251 -0.000167884)
(20.3195 1.84422 -0.0882368)
(20.286 1.75962 -0.138882)
(20.2912 1.69671 -0.163239)
(20.3422 1.65911 -0.167289)
(20.4414 1.6525 -0.155273)
(20.5834 1.67869 -0.128989)
(20.755 1.71025 -0.0813297)
(20.9217 1.70749 -0.0322862)
(21.3 1.62905 -0.0178964)
(21.6144 1.59091 -0.0723049)
(23.0724 1.33183 -0.25423)
(19.9996 -0.000403746 0.000384788)
(19.9954 -0.00128274 0.00131389)
(19.9847 -0.0025893 0.00255971)
(19.9641 -0.00484118 0.00445288)
(19.928 -0.00907032 0.00755064)
(19.8633 -0.0173566 0.013083)
(19.7466 -0.0351766 0.0231484)
(19.5173 -0.0755835 0.0434355)
(19.0848 -0.182774 0.0692436)
(18.1645 -0.488696 0.110169)
(17.762 -1.3587 -0.227476)
(20.576 -3.19888 -0.266786)
(24.3513 -5.09637 0.677804)
(13.6452 -2.30426 0.989386)
(7.73867 1.49932 -0.489709)
(10.9821 2.30032 -0.507689)
(13.4102 2.4917 -0.458909)
(15.1272 2.47203 -0.41288)
(16.239 2.39016 -0.385014)
(16.941 2.292 -0.364656)
(17.4017 2.19645 -0.346548)
(17.7293 2.10866 -0.329149)
(17.9948 2.0304 -0.309514)
(18.2478 1.967 -0.283133)
(18.5134 1.91732 -0.241757)
(18.7923 1.85617 -0.173237)
(19.0618 1.75963 -0.104913)
(19.602 1.60316 -0.074916)
(20.0545 1.52067 -0.125843)
(21.9557 1.22716 -0.307469)
(19.9996 0.000173362 0.000387243)
(19.9953 0.000677262 0.00132218)
(19.9845 0.00142431 0.00257351)
(19.9638 0.00267883 0.0044768)
(19.9271 0.00489682 0.0075947)
(19.8613 0.00917198 0.0132082)
(19.7418 0.0181528 0.0234478)
(19.5047 0.0377549 0.0442423)
(19.0494 0.0913416 0.0710514)
(18.0457 0.24418 0.116299)
(17.2175 0.268015 -0.284147)
(19.238 -0.469181 -0.383593)
(-1.47956 -2.7862 -1.04152)
(-2.46848 0.697415 -1.08559)
(1.83853 1.17362 -1.01746)
(5.36976 1.60588 -0.775495)
(8.34152 1.98427 -0.597789)
(10.6018 2.24582 -0.491207)
(12.2637 2.38414 -0.426687)
(13.4793 2.43277 -0.386406)
(14.3819 2.42465 -0.362888)
(15.0841 2.37854 -0.350352)
(15.679 2.30728 -0.33595)
(16.2157 2.21033 -0.304599)
(16.7168 2.0563 -0.247686)
(17.1907 1.83543 -0.192737)
(17.9861 1.55556 -0.167336)
(18.6498 1.38381 -0.218734)
(21.019 1.01669 -0.385187)
(19.9996 0.000726359 0.000384184)
(19.9956 0.00255328 0.00131364)
(19.9852 0.00526946 0.00254487)
(19.9656 0.00985257 0.00438921)
(19.9311 0.0182568 0.00743234)
(19.8701 0.0340438 0.0128907)
(19.7619 0.066907 0.0225963)
(19.5589 0.138112 0.0410531)
(19.2011 0.321331 0.0655103)
(18.5679 0.807545 0.110278)
(18.0869 1.4967 -0.0609744)
(19.5009 2.7691 -0.365137)
(23.8218 2.28412 0.271027)
(22.9049 3.42535 0.0960845)
(13.8225 0.676151 1.32645)
(11.9635 0.156625 0.982097)
(10.5735 0.179205 0.771249)
(9.89213 0.49058 0.581157)
(9.87137 0.935797 0.406793)
(10.3823 1.37452 0.270375)
(11.1718 1.73359 0.172701)
(12.0269 1.99581 0.10236)
(12.8413 2.16129 0.0525097)
(13.5981 2.23073 0.0204304)
(14.3035 2.19707 0.019653)
(14.9616 2.0404 0.0562488)
(15.5884 1.76839 0.0740517)
(16.6527 1.38932 0.0360118)
(17.5715 1.12612 -0.0813355)
(20.4658 0.663813 -0.316423)
(19.9997 0.00119856 0.000377082)
(19.996 0.00414366 0.00128363)
(19.9868 0.00848234 0.00247916)
(19.9693 0.0157789 0.00425628)
(19.9393 0.028952 0.00712235)
(19.8882 0.053691 0.0120033)
(19.8013 0.103211 0.0203084)
(19.6565 0.20681 0.0355696)
(19.4294 0.435775 0.055644)
(19.1652 0.970202 0.099917)
(19.0132 1.5532 0.0256932)
(19.9984 2.8497 -0.0422776)
(22.3434 2.39607 -0.147314)
(22.8062 0.607059 -0.0287337)
(21.5306 -0.133568 0.328647)
(20.6946 -0.22964 0.337463)
(20.0869 -0.076267 0.367923)
(19.4839 0.0856731 0.429238)
(18.7241 0.22683 0.496157)
(17.8552 0.381333 0.540891)
(17.0242 0.563727 0.550776)
(16.3586 0.762025 0.529914)
(15.9203 0.944658 0.493506)
(15.7243 1.06801 0.454533)
(15.739 1.10034 0.433536)
(15.9464 1.00546 0.445811)
(16.3353 0.782633 0.427362)
(17.3348 0.456052 0.319974)
(18.286 0.232934 0.13001)
(21.3141 -0.147459 -0.202714)
(19.9997 0.00153883 0.000367163)
(19.9967 0.00528184 0.00124001)
(19.9889 0.0107568 0.00238627)
(19.9745 0.0198974 0.00406154)
(19.9503 0.0360999 0.00664441)
(19.9113 0.0658278 0.0108004)
(19.8493 0.12218 0.0177133)
(19.7574 0.232278 0.0294613)
(19.6382 0.448219 0.0474531)
(19.5508 0.856501 0.0735797)
(19.7045 1.5279 0.0853546)
(20.449 1.91929 0.076732)
(21.3789 1.38228 0.0625176)
(21.6933 0.611209 0.0235412)
(21.4224 0.0372103 0.0137787)
(21.0413 -0.137096 0.000685784)
(20.8056 -0.0795711 -0.000466828)
(20.728 0.0630495 0.0171703)
(20.723 0.231836 0.0533428)
(20.7151 0.390652 0.105118)
(20.6597 0.5117 0.16458)
(20.5428 0.585655 0.221817)
(20.3815 0.610011 0.267348)
(20.2189 0.579367 0.296386)
(20.1078 0.487766 0.315361)
(20.1592 0.309942 0.325954)
(20.3911 0.0711396 0.28736)
(21.0554 -0.210532 0.18394)
(21.5158 -0.358384 0.0368834)
(23.686 -0.697195 -0.26777)
(19.9998 0.00171717 0.000353892)
(19.9974 0.00586339 0.00119056)
(19.9913 0.0118736 0.00227008)
(19.9803 0.0217822 0.00378953)
(19.9625 0.0389658 0.00605906)
(19.9354 0.0695379 0.00959929)
(19.8964 0.124634 0.0152273)
(19.8458 0.224622 0.0242291)
(19.7979 0.40114 0.0379232)
(19.7974 0.688438 0.0549776)
(19.9733 1.09929 0.0702256)
(20.4841 1.35315 0.0736933)
(21.0695 1.03207 0.064091)
(21.3003 0.468067 0.0397489)
(21.1658 0.0503075 0.0189961)
(20.9362 -0.102545 0.00188349)
(20.7822 -0.097265 -0.00563888)
(20.7153 -0.0365823 -0.00369107)
(20.7088 0.0453177 0.00238019)
(20.7546 0.140173 0.0100076)
(20.8498 0.235634 0.0191025)
(20.9787 0.314331 0.0291367)
(21.1194 0.360343 0.036079)
(21.262 0.353538 0.0455786)
(21.4038 0.272938 0.0625694)
(21.584 0.114146 0.0703194)
(21.7834 -0.0715763 0.0374276)
(22.3071 -0.306795 -0.0339953)
(22.5933 -0.421816 -0.133917)
(24.6443 -0.883695 -0.413191)
(19.9999 0.00172099 0.00033985)
(19.9982 0.0058491 0.00113674)
(19.9938 0.0117728 0.00214044)
(19.986 0.0213997 0.00351769)
(19.9742 0.0377595 0.00551651)
(19.9577 0.065971 0.00850517)
(19.9373 0.114609 0.0130099)
(19.917 0.197291 0.0197581)
(19.9123 0.331973 0.0294701)
(19.9572 0.529365 0.0411531)
(20.1195 0.776284 0.0513114)
(20.4681 0.922281 0.0533268)
(20.8759 0.747276 0.0454931)
(21.0842 0.385515 0.0274458)
(21.0475 0.105343 0.010745)
(20.9193 -0.0136681 -0.000744267)
(20.8228 -0.0233392 -0.00648123)
(20.7815 0.0154796 -0.00703031)
(20.7811 0.0742802 -0.00427711)
(20.8141 0.142098 4.90074e-05)
(20.8795 0.208846 0.0048623)
(20.9723 0.263092 0.00944152)
(21.083 0.295452 0.014932)
(21.2085 0.284719 0.0252006)
(21.3449 0.212437 0.0343372)
(21.5368 0.0751675 0.0291165)
(21.7645 -0.0847788 -0.0129255)
(22.3555 -0.318842 -0.0867875)
(22.6507 -0.441697 -0.185142)
(24.9447 -1.02668 -0.522865)
(19.9999 0.00155509 0.000326481)
(19.9989 0.00526111 0.00108527)
(19.996 0.0105251 0.00202388)
(19.9911 0.0189677 0.00328104)
(19.9844 0.0330494 0.00504545)
(19.9766 0.0566938 0.00757023)
(19.9701 0.0959788 0.0111785)
(19.9707 0.159501 0.0162737)
(19.992 0.25656 0.023067)
(20.058 0.38817 0.030957)
(20.2046 0.536788 0.0380209)
(20.4575 0.616177 0.0390495)
(20.7492 0.519593 0.0341228)
(20.9283 0.295224 0.0216977)
(20.9424 0.101419 0.00886606)
(20.8764 0.00454559 -0.00041702)
(20.8185 -0.0181157 -0.00563068)
(20.7957 -0.00305057 -0.0072264)
(20.8051 0.030908 -0.00646524)
(20.8431 0.0747291 -0.00461719)
(20.9068 0.119764 -0.00204065)
(20.9895 0.156913 0.0014543)
(21.079 0.178586 0.00899048)
(21.1746 0.164662 0.0228208)
(21.2823 0.100828 0.0331453)
(21.4613 -0.0134886 0.0279978)
(21.673 -0.135838 -0.0136167)
(22.2905 -0.339007 -0.0933773)
(22.5415 -0.442567 -0.205832)
(25.117 -1.08528 -0.650301)
(20 0.00124212 0.000314656)
(19.9994 0.00417148 0.00104069)
(19.9978 0.00829033 0.00192712)
(19.9952 0.0148271 0.00308742)
(19.9925 0.0255685 0.00466564)
(19.9911 0.0432386 0.00683674)
(19.9944 0.0717798 0.00979725)
(20.0086 0.116273 0.0137437)
(20.0449 0.181024 0.018661)
(20.1202 0.264157 0.023991)
(20.2539 0.351167 0.0287626)
(20.4534 0.395761 0.0297275)
(20.6755 0.343534 0.0263957)
(20.8288 0.209278 0.0180183)
(20.8702 0.0844685 0.00862299)
(20.8453 0.018755 0.00140336)
(20.8165 0.00258421 -0.00295336)
(20.8097 0.0138963 -0.00501737)
(20.8274 0.0393832 -0.00559055)
(20.8682 0.0706832 -0.00526223)
(20.9299 0.100909 -0.0038586)
(21.0066 0.12476 -0.000489451)
(21.0832 0.137952 0.00804147)
(21.1571 0.122821 0.0225518)
(21.2374 0.0675314 0.0322319)
(21.3966 -0.0275785 0.0263562)
(21.5723 -0.123888 -0.0109768)
(22.1921 -0.290122 -0.0892597)
(22.3512 -0.354069 -0.20927)
(25.2327 -0.990038 -0.786252)
(20 0.000821382 0.000306336)
(19.9998 0.00272272 0.00100962)
(19.999 0.00535468 0.00185935)
(19.9981 0.00948882 0.0029516)
(19.998 0.0162033 0.00440187)
(20.0009 0.0270893 0.00633597)
(20.0103 0.0443304 0.00887954)
(20.0325 0.0705628 0.0121077)
(20.0771 0.107548 0.0159033)
(20.1562 0.153355 0.0197944)
(20.281 0.199119 0.0230433)
(20.4506 0.221305 0.023967)
(20.6334 0.194492 0.0215793)
(20.7699 0.123304 0.015705)
(20.8254 0.0542371 0.00859665)
(20.8245 0.0161487 0.00266726)
(20.8129 0.00526502 -0.00126385)
(20.8152 0.00959928 -0.00348679)
(20.8367 0.0213885 -0.00438063)
(20.8777 0.0355591 -0.00419982)
(20.9373 0.0485513 -0.00267395)
(21.0099 0.0582392 0.000848436)
(21.0776 0.0618649 0.00969291)
(21.1368 0.0465684 0.0248243)
(21.1979 0.00518472 0.0335608)
(21.3431 -0.060078 0.025188)
(21.4892 -0.120714 -0.0144935)
(22.1137 -0.232762 -0.090233)
(22.1449 -0.250552 -0.195394)
(25.3315 -0.780784 -0.926842)
(20 0.00029499 0.000301456)
(19.9999 0.000966218 0.000993952)
(19.9996 0.00188015 0.00182737)
(19.9995 0.00330155 0.00288884)
(20.0008 0.0055909 0.00428018)
(20.0057 0.00927119 0.00610587)
(20.0181 0.0150357 0.00845676)
(20.0441 0.0237041 0.0113523)
(20.0923 0.0357318 0.014632)
(20.1728 0.0503703 0.0178946)
(20.293 0.0646349 0.0205048)
(20.4491 0.0712598 0.0212956)
(20.6146 0.0629161 0.0192309)
(20.7432 0.0407949 0.0143947)
(20.8047 0.0188756 0.00827801)
(20.8148 0.00646806 0.00291711)
(20.8116 0.00273289 -0.000771191)
(20.8187 0.00400704 -0.00294146)
(20.8424 0.00785252 -0.00392716)
(20.8841 0.0126424 -0.00393444)
(20.9434 0.0172377 -0.00261409)
(21.0142 0.021075 0.000522892)
(21.0769 0.0228918 0.00841683)
(21.1277 0.0165023 0.0208638)
(21.1781 -0.00075477 0.0238192)
(21.3194 -0.0271869 0.00671731)
(21.4475 -0.0503567 -0.0402461)
(22.0888 -0.0960786 -0.122305)
(22.0147 -0.102194 -0.220124)
(25.5236 -0.336275 -1.1368)
(20.0001 -0.000276962 0.000830987)
(20.0003 -0.000902588 0.00265466)
(20.0006 -0.00176072 0.00478676)
(20.0014 -0.00308302 0.00745127)
(20.0039 -0.00517897 0.0108812)
(20.0104 -0.00847471 0.0153011)
(20.0242 -0.0134941 0.0208513)
(20.0509 -0.02076 0.0274923)
(20.0976 -0.0304046 0.0346796)
(20.1718 -0.0414436 0.0408984)
(20.2773 -0.0508099 0.0439502)
(20.4074 -0.0525299 0.0405537)
(20.5377 -0.0416613 0.0286453)
(20.6292 -0.0191424 0.0098354)
(20.6559 0.00492253 -0.0116416)
(20.6274 0.0218655 -0.032308)
(20.5749 0.0316302 -0.0518678)
(20.5224 0.0381884 -0.0719972)
(20.4794 0.044296 -0.0953124)
(20.4539 0.0506909 -0.125665)
(20.4548 0.0567473 -0.166643)
(20.4964 0.0634965 -0.219556)
(20.6071 0.068296 -0.286154)
(20.7758 0.0728447 -0.360202)
(21.1172 0.110726 -0.459257)
(21.8971 0.166101 -0.735917)
(22.842 0.157134 -1.00668)
(23.5444 0.0995975 -0.946662)
(23.9106 0.0273148 -0.666782)
(23.9857 -0.0537527 -0.25526)
(20.0001 -0.000799187 0.000842882)
(20.0001 -0.00261092 0.00269677)
(20 -0.00511061 0.00487826)
(20 -0.00898328 0.00763105)
(20.0014 -0.0151577 0.0112196)
(20.0061 -0.0249402 0.0159153)
(20.0175 -0.0399972 0.0219308)
(20.0414 -0.0620415 0.0293047)
(20.0859 -0.0917915 0.0375446)
(20.1601 -0.12643 0.0450925)
(20.2709 -0.156733 0.0490916)
(20.413 -0.163133 0.0451194)
(20.5577 -0.128829 0.0307111)
(20.6565 -0.0577064 0.00933854)
(20.6793 0.016733 -0.0137895)
(20.6417 0.0676992 -0.0354833)
(20.5826 0.0964473 -0.0558582)
(20.5276 0.115921 -0.0766127)
(20.4843 0.134331 -0.100102)
(20.4584 0.153861 -0.12969)
(20.4585 0.173445 -0.169346)
(20.499 0.194871 -0.220469)
(20.6061 0.212024 -0.283177)
(20.7865 0.227785 -0.366101)
(21.139 0.308521 -0.473892)
(21.8272 0.439391 -0.687319)
(22.6655 0.456234 -0.9214)
(23.3492 0.346742 -0.927047)
(23.7469 0.183693 -0.755474)
(23.8677 -0.0353713 -0.440506)
(20 -0.00124663 0.000869794)
(19.9998 -0.00408698 0.00279324)
(19.9988 -0.00803702 0.00508165)
(19.9974 -0.0142075 0.00801944)
(19.9964 -0.0241534 0.0119401)
(19.9975 -0.0401424 0.0172183)
(20.0039 -0.065258 0.0242521)
(20.0218 -0.102972 0.0332084)
(20.061 -0.155486 0.0438335)
(20.1347 -0.219036 0.0542884)
(20.2566 -0.277813 0.0602479)
(20.4256 -0.291678 0.0544772)
(20.6026 -0.227778 0.0330691)
(20.7173 -0.0963913 0.00488066)
(20.7312 0.03646 -0.0221625)
(20.6746 0.12303 -0.0449969)
(20.6027 0.168825 -0.0651514)
(20.5435 0.197485 -0.0858284)
(20.5002 0.222891 -0.110131)
(20.4751 0.249903 -0.140792)
(20.4757 0.279803 -0.180063)
(20.5152 0.316461 -0.228511)
(20.6202 0.348951 -0.291507)
(20.8136 0.3774 -0.378863)
(21.1833 0.481413 -0.495193)
(21.8298 0.657298 -0.68665)
(22.6096 0.724159 -0.878482)
(23.2906 0.621759 -0.911483)
(23.7247 0.432097 -0.818714)
(23.9201 0.114379 -0.597849)
(20 -0.00158836 0.000906931)
(19.9992 -0.00522058 0.00292773)
(19.9971 -0.0103126 0.00536706)
(19.9935 -0.0183588 0.0085705)
(19.989 -0.0315342 0.0129772)
(19.9846 -0.0531699 0.0191349)
(19.983 -0.0881518 0.0277383)
(19.9905 -0.142702 0.039274)
(20.0196 -0.22249 0.0539438)
(20.0899 -0.324696 0.0690225)
(20.2294 -0.427736 0.0782139)
(20.4455 -0.453656 0.0691466)
(20.6784 -0.34461 0.0346836)
(20.8178 -0.130328 -0.00590234)
(20.8131 0.0737014 -0.0403982)
(20.723 0.199617 -0.065332)
(20.6289 0.265299 -0.0832162)
(20.5615 0.305615 -0.100835)
(20.5171 0.336898 -0.124788)
(20.4941 0.366724 -0.15844)
(20.4988 0.401211 -0.201188)
(20.5412 0.449865 -0.250374)
(20.6457 0.497372 -0.315419)
(20.8464 0.531277 -0.405511)
(21.2161 0.639522 -0.524657)
(21.8288 0.839222 -0.698844)
(22.5765 0.955063 -0.855706)
(23.2713 0.890037 -0.902052)
(23.7546 0.715046 -0.868443)
(24.0691 0.336629 -0.723899)
(19.9999 -0.00178845 0.000952772)
(19.9985 -0.00589083 0.00308644)
(19.9949 -0.0116966 0.00570896)
(19.9887 -0.0209983 0.00924738)
(19.9795 -0.0365381 0.0142809)
(19.9675 -0.0627862 0.0216158)
(19.9543 -0.106839 0.0324089)
(19.9454 -0.179137 0.0477694)
(19.956 -0.291939 0.0683331)
(20.0153 -0.448088 0.0904538)
(20.1806 -0.625811 0.104671)
(20.4788 -0.678443 0.0875636)
(20.8017 -0.493098 0.0310858)
(20.9721 -0.151895 -0.0271276)
(20.9321 0.136419 -0.0718204)
(20.7921 0.285924 -0.101006)
(20.6688 0.355574 -0.115362)
(20.589 0.402487 -0.12459)
(20.5396 0.442649 -0.14037)
(20.5171 0.481503 -0.169378)
(20.5273 0.525868 -0.211612)
(20.5765 0.588361 -0.261116)
(20.6812 0.655487 -0.32427)
(20.8757 0.696929 -0.427238)
(21.2249 0.797821 -0.556239)
(21.7952 1.00089 -0.708051)
(22.5129 1.15294 -0.832206)
(23.2309 1.13808 -0.885503)
(23.7748 1.00416 -0.899173)
(24.247 0.594805 -0.816947)
(19.9998 -0.00182396 0.00100266)
(19.9978 -0.00601004 0.00326139)
(19.9926 -0.012008 0.0060694)
(19.9831 -0.0217753 0.00997501)
(19.9684 -0.0384421 0.0157496)
(19.9469 -0.0675708 0.0245175)
(19.9178 -0.118762 0.0381904)
(19.8843 -0.208708 0.0588981)
(19.8631 -0.360443 0.0878127)
(19.8934 -0.593963 0.120644)
(20.0955 -0.906016 0.142998)
(20.533 -0.990676 0.107113)
(20.9994 -0.685178 0.00512474)
(21.197 -0.139011 -0.0742431)
(21.0769 0.300085 -0.129788)
(20.8558 0.486214 -0.175363)
(20.7012 0.538465 -0.201202)
(20.6173 0.557157 -0.212568)
(20.5692 0.573039 -0.222588)
(20.5502 0.597273 -0.24173)
(20.5678 0.63799 -0.274566)
(20.6281 0.705327 -0.317566)
(20.7403 0.802181 -0.367323)
(20.9165 0.877792 -0.445192)
(21.2043 0.963992 -0.560655)
(21.6933 1.14021 -0.680654)
(22.3619 1.30977 -0.781964)
(23.1059 1.34506 -0.844154)
(23.7219 1.26528 -0.900484)
(24.3888 0.846319 -0.872978)
(19.9998 -0.00168421 0.00105104)
(19.997 -0.0055582 0.00343949)
(19.9901 -0.0111447 0.00644001)
(19.9774 -0.0204217 0.0106731)
(19.9566 -0.0366506 0.0172088)
(19.9239 -0.0659232 0.0275794)
(19.8743 -0.120212 0.0447668)
(19.8055 -0.223601 0.0722159)
(19.729 -0.417137 0.113411)
(19.6992 -0.774205 0.163234)
(19.9308 -1.30814 0.193674)
(20.5897 -1.38663 0.11733)
(21.3006 -0.911278 -0.0824807)
(21.5615 -0.158061 -0.178192)
(21.3091 0.416551 -0.201792)
(20.9389 0.666212 -0.262949)
(20.7109 0.753277 -0.329788)
(20.5984 0.788317 -0.382418)
(20.5354 0.806754 -0.417566)
(20.5073 0.827088 -0.440601)
(20.5224 0.862719 -0.458097)
(20.5835 0.924581 -0.47209)
(20.6964 1.02287 -0.480776)
(20.8622 1.12854 -0.494212)
(21.0707 1.1987 -0.526517)
(21.4176 1.29959 -0.578963)
(22.0035 1.43979 -0.66086)
(22.7905 1.50289 -0.744447)
(23.5109 1.47597 -0.853585)
(24.4292 1.05871 -0.887921)
(19.9997 -0.00137959 0.00109495)
(19.9963 -0.00454239 0.00359748)
(19.9879 -0.00916001 0.00679894)
(19.9721 -0.0168742 0.0113517)
(19.9454 -0.030772 0.0185053)
(19.901 -0.0567604 0.0302001)
(19.8274 -0.107439 0.0509597)
(19.7105 -0.212082 0.0864121)
(19.54 -0.433369 0.143579)
(19.3676 -0.964253 0.216925)
(19.4708 -1.6179 0.209825)
(20.3605 -2.19901 0.132346)
(21.5701 -1.45392 -0.110946)
(22.1787 -0.0406768 -0.371436)
(21.5606 1.15361 -0.71828)
(20.6662 1.24513 -0.717606)
(20.0906 1.19893 -0.704226)
(19.7555 1.14415 -0.683211)
(19.5645 1.10278 -0.656128)
(19.4759 1.08027 -0.623257)
(19.4759 1.08279 -0.586791)
(19.5514 1.11504 -0.545548)
(19.6985 1.18446 -0.496318)
(19.9096 1.2901 -0.44209)
(20.1442 1.39016 -0.389494)
(20.4812 1.46209 -0.37098)
(21.1229 1.54955 -0.44612)
(22.0962 1.60788 -0.573377)
(23.0267 1.62343 -0.754572)
(24.2972 1.21073 -0.865244)
(19.9996 -0.00093551 0.00112979)
(19.9958 -0.00305861 0.00372187)
(19.9862 -0.00617459 0.0070715)
(19.9679 -0.0114457 0.0119396)
(19.9363 -0.0210906 0.019665)
(19.8815 -0.0392674 0.0324191)
(19.7856 -0.0770543 0.056137)
(19.6102 -0.159995 0.0985503)
(19.3035 -0.364108 0.172223)
(18.7387 -0.939176 0.283393)
(18.5775 -2.15643 0.210088)
(20.0843 -3.42554 -0.0333766)
(22.4146 -2.59973 -0.560954)
(23.2348 0.017186 0.447221)
(19.976 3.09458 -0.0470979)
(19.0775 2.8242 -0.472098)
(18.43 2.4076 -0.660761)
(17.9681 2.03037 -0.710116)
(17.63 1.74138 -0.691181)
(17.4167 1.53571 -0.639823)
(17.3315 1.40029 -0.580791)
(17.3706 1.32111 -0.522372)
(17.5325 1.29353 -0.460406)
(17.7995 1.31943 -0.387798)
(18.1336 1.36459 -0.305631)
(18.6664 1.39473 -0.253372)
(19.6237 1.46816 -0.316471)
(20.9818 1.56015 -0.461848)
(22.235 1.64118 -0.694954)
(23.947 1.25375 -0.856665)
(19.9996 -0.000396862 0.00115166)
(19.9955 -0.00125346 0.00380273)
(19.9852 -0.00251919 0.00724215)
(19.9654 -0.00468579 0.0123019)
(19.9309 -0.00871573 0.0204586)
(19.8695 -0.0165755 0.0343312)
(19.7591 -0.0333262 0.0600492)
(19.5407 -0.0701344 0.107607)
(19.0986 -0.173225 0.192091)
(17.9517 -0.493186 0.331702)
(16.1979 -1.81652 -0.0549611)
(21.4704 -9.70037 -3.62949)
(6.62486 -6.25292 4.38695)
(10.0255 2.05205 -1.60132)
(8.4037 3.71282 -1.33316)
(10.0779 3.31007 -1.27258)
(11.3113 2.72714 -1.09748)
(12.2069 2.23597 -0.924622)
(12.8227 1.87887 -0.793779)
(13.3094 1.62989 -0.700135)
(13.7732 1.45978 -0.642007)
(14.2667 1.34235 -0.611754)
(14.8213 1.26366 -0.594865)
(15.4447 1.20706 -0.571119)
(16.1397 1.13494 -0.517945)
(17.0423 1.07349 -0.441862)
(18.3126 1.14391 -0.437946)
(19.9526 1.30122 -0.521681)
(21.4411 1.46371 -0.739549)
(23.5385 1.12957 -0.891371)
(19.9996 0.00017993 0.00115921)
(19.9955 0.000687888 0.00382812)
(19.985 0.00142724 0.00730057)
(19.9651 0.00265544 0.0124037)
(19.9301 0.00487593 0.0205569)
(19.8676 0.00911912 0.034462)
(19.7547 0.0177402 0.0606022)
(19.5289 0.035343 0.109193)
(19.0653 0.0885 0.197002)
(17.8369 0.262346 0.342958)
(15.3336 0.49885 -0.151497)
(0.0732668 1.84905 -3.33019)
(0.0839871 1.18849 -0.731393)
(2.93216 1.04765 -0.848573)
(5.48914 1.03904 -0.614247)
(7.48766 1.05692 -0.446971)
(8.97597 1.06379 -0.381063)
(10.1713 1.05325 -0.377835)
(11.2193 1.0343 -0.414802)
(12.1938 1.00995 -0.476086)
(13.1471 0.979989 -0.544495)
(14.1069 0.927826 -0.59206)
(15.0879 0.819889 -0.583064)
(16.2071 0.710042 -0.516018)
(17.6086 0.755749 -0.5009)
(19.3624 0.926859 -0.564107)
(20.9517 1.12579 -0.773534)
(23.311 0.839663 -0.90962)
(19.9996 0.000734264 0.00115297)
(19.9957 0.0025359 0.00378851)
(19.9857 0.00525082 0.00724883)
(19.9668 0.00978298 0.0122461)
(19.934 0.0179668 0.0201276)
(19.8762 0.0331584 0.0333133)
(19.7735 0.0647457 0.0582427)
(19.5795 0.133953 0.103814)
(19.2225 0.310154 0.185905)
(18.4968 0.820248 0.316925)
(17.2271 1.99539 0.152764)
(16.8552 9.13698 -3.56614)
(-1.57142 4.13252 2.70926)
(-3.99431 0.451954 1.01047)
(6.35983 -0.677506 1.80004)
(6.75793 -0.666462 1.41975)
(7.15692 -0.395662 1.27451)
(7.74336 -0.10392 1.10741)
(8.49336 0.145813 0.909338)
(9.39939 0.336555 0.725279)
(10.3595 0.48091 0.561132)
(11.3328 0.574676 0.413457)
(12.29 0.620734 0.280329)
(13.2366 0.605861 0.178521)
(14.2603 0.498676 0.118491)
(15.5855 0.34463 0.0571092)
(17.2683 0.341903 -0.11122)
(19.2251 0.50233 -0.332014)
(20.898 0.705641 -0.639219)
(23.4376 0.442314 -0.840001)
(19.9997 0.00120738 0.00113469)
(19.9961 0.00412481 0.00371373)
(19.9872 0.00837687 0.0070668)
(19.9705 0.0155045 0.0118293)
(19.9419 0.0284066 0.0193559)
(19.8933 0.0525984 0.0318744)
(19.8108 0.100223 0.0544629)
(19.6722 0.199768 0.0943254)
(19.453 0.418673 0.161439)
(19.1617 0.970651 0.261858)
(18.7336 1.87352 0.272827)
(19.4754 3.38341 0.102096)
(22.3824 3.60484 0.29516)
(20.441 1.59782 1.17298)
(19.9863 -0.154981 1.00339)
(19.1629 -0.324574 0.917389)
(18.6796 -0.255209 0.907181)
(18.3734 -0.163442 0.959692)
(18.0581 -0.0852564 1.03786)
(17.663 -0.00983777 1.10297)
(17.2245 0.0672488 1.12413)
(16.8227 0.136755 1.09117)
(16.5373 0.182176 1.01498)
(16.4318 0.163262 0.924902)
(16.6437 0.0482453 0.81544)
(17.4 -0.0760503 0.616534)