/*--------------------------------*- C++ -*----------------------------------*\
| =========                 |                                                 |
| \\      /  F ield         | OpenFOAM: The Open Source CFD Toolbox           |
|  \\    /   O peration     | Version:  2512                                  |
|   \\  /    A nd           | Website:  www.openfoam.com                      |
|    \\/     M anipulation  |                                                 |
\*---------------------------------------------------------------------------*/
FoamFile
{
    version     2.0;
    format      ascii;
    arch        "LSB;label=32;scalar=64";
    class       volScalarField;
    location    "120";
    object      k;
}
// * * * * * * * * * * * * * * * * * * * * * * * * * * * * * * * * * * * * * //

dimensions      [0 2 -2 0 0 0 0];

internalField   nonuniform List<scalar> 
84826
(
0.23193
0.224212
0.216968
0.210151
0.203725
0.197656
0.191921
0.186488
0.181391
0.176605
0.172128
0.167952
0.164019
0.160308
0.156757
0.153336
0.15002
0.14683
0.143755
0.140796
0.137955
0.135237
0.132643
0.130183
0.127875
0.125751
0.12388
0.122415
0.122418
0.135347
0.23193
0.224214
0.216972
0.21016
0.203739
0.197679
0.191954
0.186533
0.181451
0.176682
0.172224
0.168068
0.164156
0.160457
0.156911
0.153488
0.150166
0.146972
0.143894
0.14093
0.138078
0.135349
0.132748
0.130281
0.127969
0.125845
0.12398
0.12261
0.123729
0.147057
0.231931
0.224216
0.216977
0.210168
0.203754
0.197703
0.191992
0.186589
0.181533
0.176798
0.172385
0.168276
0.164409
0.160738
0.157204
0.153781
0.150452
0.147251
0.144168
0.141199
0.138345
0.135612
0.133013
0.130559
0.12827
0.126177
0.124366
0.123238
0.126419
0.166848
0.231931
0.224218
0.21698
0.210175
0.203767
0.197726
0.192031
0.186649
0.181629
0.176948
0.172612
0.168584
0.164792
0.161168
0.157655
0.154233
0.150893
0.147682
0.144591
0.141616
0.138754
0.136009
0.133389
0.130924
0.128642
0.126576
0.124838
0.124118
0.130658
0.196259
0.231931
0.224219
0.216982
0.21018
0.203778
0.197747
0.192068
0.186711
0.181739
0.177135
0.172833
0.168861
0.165225
0.161682
0.158209
0.154794
0.151444
0.148223
0.145127
0.142152
0.139296
0.136564
0.133971
0.131548
0.129338
0.127373
0.125804
0.125769
0.137362
0.236134
0.231932
0.224219
0.216984
0.210184
0.203786
0.197764
0.192102
0.186778
0.181868
0.177259
0.17304
0.169232
0.1657
0.162297
0.15888
0.155472
0.152111
0.148902
0.145829
0.142878
0.140036
0.137292
0.134672
0.132197
0.129907
0.127899
0.126373
0.126672
0.141796
0.267352
0.231932
0.224219
0.216984
0.210186
0.203792
0.197779
0.192134
0.186865
0.181956
0.177398
0.173598
0.170336
0.167436
0.164481
0.161855
0.159052
0.158198
0.158259
0.158505
0.158508
0.157743
0.155681
0.152201
0.14792
0.144271
0.141335
0.139424
0.139572
0.153234
0.267355
0.231931
0.224218
0.216984
0.210187
0.203796
0.197791
0.192165
0.186948
0.182003
0.177589
0.173438
0.166829
0.161452
0.156785
0.270201
0.332517
0.399727
0.456296
0.499259
0.529176
0.546271
0.550259
0.541002
0.518662
0.483931
0.44226
0.40336
0.372829
0.357038
0.40331
0.231931
0.224217
0.216983
0.210186
0.203799
0.1978
0.192191
0.187012
0.182111
0.177864
0.174246
0.174264
0.198272
0.37917
2.21079
2.19668
2.17557
2.13689
2.08066
2.01196
1.93531
1.85382
1.7689
1.68031
1.58639
1.48352
1.36879
1.24735
1.13774
1.07853
0.231932
0.22422
0.216986
0.210191
0.203805
0.19781
0.192211
0.187013
0.182165
0.178183
0.17567
0.178859
0.663841
1.85934
4.52871
4.29858
3.97297
3.65788
3.3869
3.15716
2.95919
2.7872
2.63753
2.50669
2.39076
2.28406
2.18012
2.07075
1.95662
1.85188
0.231934
0.224222
0.21699
0.210196
0.20381
0.197809
0.192211
0.187013
0.182168
0.178199
0.176121
0.178496
7.59906
5.9931
4.98493
4.31574
3.82869
3.45921
3.16877
2.93051
2.72918
2.55658
2.40838
2.28239
2.17654
2.08875
2.01584
1.96098
1.94644
0.231934
0.22422
0.216986
0.210191
0.203804
0.197799
0.192192
0.187012
0.182119
0.177889
0.174715
0.17427
0.259887
0.414601
3.00687
2.90431
2.82588
2.74615
2.66176
2.5731
2.47673
2.37287
2.26452
2.15384
2.04248
1.9332
1.82903
1.73565
1.65204
1.61488
0.231933
0.224218
0.216983
0.210186
0.203796
0.197791
0.192168
0.186957
0.182018
0.177616
0.173732
0.16923
0.16775
0.164933
0.244622
0.266203
0.289142
0.315922
0.347358
0.3834
0.427265
0.477776
0.532721
0.590096
0.64843
0.707454
0.764489
0.818415
0.863586
0.91561
0.231931
0.224218
0.216983
0.210185
0.203791
0.197779
0.192138
0.186875
0.181965
0.177421
0.173679
0.170681
0.168356
0.165704
0.16284
0.159991
0.1574
0.155268
0.153762
0.153321
0.15504
0.159478
0.167302
0.179297
0.196285
0.218958
0.247839
0.28337
0.325074
0.380898
0.231931
0.224219
0.216983
0.210183
0.203785
0.197765
0.192105
0.186787
0.181888
0.177284
0.173091
0.16935
0.165935
0.162662
0.159366
0.156054
0.152779
0.149656
0.146689
0.143898
0.141338
0.139102
0.137329
0.136253
0.136221
0.1377
0.141326
0.148089
0.163031
0.221979
0.231931
0.224218
0.216982
0.21018
0.203777
0.197748
0.192071
0.186719
0.181756
0.177169
0.172869
0.168905
0.165313
0.161872
0.158493
0.155156
0.151877
0.148741
0.145735
0.142855
0.140108
0.1375
0.135045
0.132765
0.130704
0.128949
0.12776
0.129396
0.153504
0.305439
0.231931
0.224217
0.21698
0.210175
0.203767
0.197727
0.192033
0.186655
0.181642
0.176973
0.172659
0.16867
0.164936
0.161388
0.157949
0.154592
0.151314
0.148169
0.145151
0.142262
0.1395
0.136869
0.134369
0.132004
0.129779
0.127728
0.126202
0.129871
0.169631
0.377647
0.231931
0.224216
0.216976
0.210168
0.203754
0.197704
0.191994
0.186593
0.181541
0.176815
0.172418
0.168338
0.16452
0.16091
0.157441
0.15408
0.150813
0.14768
0.144675
0.141798
0.139047
0.136424
0.133929
0.131565
0.129331
0.12726
0.125726
0.129724
0.167997
0.357075
0.23193
0.224214
0.216972
0.21016
0.20374
0.197679
0.191954
0.186533
0.181453
0.176689
0.172243
0.168111
0.16424
0.160595
0.157109
0.153748
0.15049
0.147367
0.144371
0.141502
0.138759
0.136143
0.133654
0.131294
0.129062
0.126981
0.125296
0.127365
0.151611
0.278871
0.231931
0.224214
0.21697
0.210154
0.203727
0.197658
0.191922
0.186488
0.181391
0.176608
0.17214
0.167985
0.164089
0.160428
0.156936
0.153575
0.150323
0.147205
0.144214
0.14135
0.138612
0.135999
0.133514
0.131156
0.128923
0.12683
0.12497
0.124882
0.13438
0.195388
0.238836
0.237488
0.236006
0.234416
0.232739
0.230994
0.229203
0.227393
0.2256
0.223869
0.222204
0.220515
0.218693
0.216784
0.214879
0.213006
0.211144
0.209309
0.207499
0.205716
0.203963
0.20225
0.200593
0.199014
0.19755
0.196278
0.195416
0.196162
0.213149
0.336866
0.238836
0.237488
0.236006
0.234416
0.232739
0.230994
0.229204
0.227401
0.225627
0.223935
0.222339
0.220721
0.218961
0.217084
0.215192
0.213323
0.21146
0.209624
0.207812
0.206027
0.204276
0.202564
0.200904
0.199318
0.197846
0.196564
0.195782
0.198021
0.230363
0.442044
0.238836
0.237488
0.236006
0.234416
0.232739
0.230995
0.229209
0.227424
0.225694
0.224107
0.222701
0.221275
0.219665
0.217869
0.216002
0.214136
0.212261
0.210415
0.208593
0.206804
0.205053
0.203349
0.201697
0.200125
0.198673
0.197431
0.19694
0.202293
0.261834
0.607381
0.238837
0.237488
0.236006
0.234416
0.232739
0.230998
0.229222
0.227471
0.225838
0.224492
0.223512
0.222515
0.221207
0.219543
0.217701
0.215812
0.213895
0.212005
0.21014
0.208311
0.206528
0.204806
0.203153
0.201595
0.200163
0.198986
0.199052
0.210093
0.311798
0.834751
0.238837
0.237489
0.236006
0.234416
0.232741
0.231005
0.229248
0.227563
0.226131
0.22529
0.22509
0.22485
0.224117
0.222694
0.220871
0.218906
0.216883
0.214894
0.212946
0.211052
0.209221
0.207468
0.20581
0.204273
0.20289
0.201843
0.202767
0.222248
0.37936
1.10397
0.238837
0.237491
0.236008
0.234416
0.232743
0.231016
0.229293
0.227733
0.226688
0.226645
0.227674
0.228243
0.228336
0.227416
0.225748
0.223762
0.221626
0.219477
0.217351
0.215293
0.213334
0.21152
0.2099
0.208529
0.207491
0.206964
0.208664
0.233007
0.435135
1.3224
0.238837
0.237491
0.23601
0.23442
0.232747
0.231033
0.229365
0.228027
0.227665
0.228789
0.232055
0.235482
0.236892
0.236605
0.236036
0.23516
0.234457
0.23374
0.23297
0.232291
0.231863
0.231843
0.232406
0.233778
0.236265
0.240312
0.247155
0.270932
0.462347
1.33895
0.238837
0.237491
0.23601
0.234424
0.232756
0.23106
0.229467
0.228471
0.228892
0.232137
0.233952
0.243097
0.24823
0.253285
0.324643
0.34262
0.36342
0.386119
0.410192
0.435642
0.462085
0.488665
0.514725
0.540119
0.565395
0.591768
0.621282
0.662303
0.796483
1.37956
0.238837
0.237491
0.23601
0.234425
0.232764
0.231085
0.229583
0.229011
0.2303
0.237405
0.245922
0.278346
0.318613
0.648079
2.66236
2.56368
2.51833
2.49959
2.49797
2.50793
2.52147
2.52954
2.52506
2.50353
2.46188
2.39662
2.30738
2.20495
2.16385
2.4218
0.238837
0.237491
0.23601
0.234425
0.232767
0.231099
0.229664
0.229303
0.231508
0.242378
0.265369
0.904663
6.95101
9.45689
7.50779
6.84585
6.40901
5.99918
5.64499
5.34892
5.09535
4.87106
4.66689
4.47385
4.28198
4.07978
3.86273
3.63458
3.48182
3.58545
0.238837
0.237491
0.23601
0.234425
0.232767
0.2311
0.229669
0.229314
0.231534
0.242405
0.267302
9.60391
7.70757
6.84689
6.15926
5.59298
5.15492
4.81688
4.54805
4.32816
4.14567
3.99355
3.86682
3.75915
3.66784
3.58907
3.58783
3.83188
0.238837
0.237491
0.236008
0.234425
0.232764
0.231088
0.229594
0.229039
0.230351
0.23747
0.254341
0.639358
10.8726
20.7324
9.28301
8.87103
8.41398
7.91751
7.41125
6.92966
6.47535
6.04495
5.6388
5.25472
4.89253
4.55108
4.23216
3.93547
3.70476
3.70157
0.238836
0.23749
0.236007
0.234424
0.232756
0.231062
0.229478
0.228514
0.228965
0.232274
0.237252
0.263021
0.392525
0.615961
0.673814
0.87957
1.1094
1.35556
1.63272
1.92477
2.21366
2.48857
2.73336
2.94059
3.10581
3.22643
3.30122
3.32661
3.32899
3.36596
0.238836
0.23749
0.23601
0.23442
0.232747
0.231035
0.229375
0.228066
0.227749
0.228942
0.232446
0.236813
0.241777
0.244214
0.247066
0.25089
0.257735
0.273081
0.300765
0.343355
0.402554
0.478557
0.570496
0.678432
0.801737
0.938379
1.08621
1.24279
1.41611
1.73712
0.238837
0.23749
0.236008
0.234416
0.232743
0.231017
0.2293
0.227762
0.226783
0.226817
0.228017
0.22908
0.23004
0.229919
0.228636
0.227036
0.225472
0.224219
0.223659
0.224326
0.226936
0.232312
0.241472
0.255713
0.276559
0.305885
0.346213
0.407221
0.577364
1.25098
0.238837
0.237489
0.236006
0.234415
0.23274
0.231005
0.229252
0.227582
0.226196
0.225471
0.225406
0.225455
0.225177
0.224109
0.222477
0.220668
0.218803
0.216973
0.215207
0.21355
0.212057
0.210821
0.209994
0.209818
0.210671
0.213287
0.222047
0.283476
0.651501
1.85651
0.238837
0.237488
0.236006
0.234415
0.232739
0.230998
0.229224
0.227483
0.225879
0.224606
0.223782
0.223051
0.221995
0.220505
0.218755
0.216937
0.215086
0.213262
0.211458
0.209685
0.207952
0.206272
0.204662
0.203164
0.201858
0.201326
0.209802
0.309466
0.778221
2.10553
0.238836
0.237488
0.236006
0.234416
0.232739
0.230995
0.22921
0.227431
0.22572
0.224184
0.222881
0.221611
0.220163
0.218461
0.216645
0.214817
0.21298
0.211169
0.209376
0.207606
0.205865
0.204159
0.202493
0.20088
0.199371
0.198525
0.206977
0.306963
0.739342
1.91158
0.238836
0.237488
0.236006
0.234416
0.232739
0.230994
0.229205
0.227406
0.225646
0.223991
0.222471
0.220968
0.219314
0.217496
0.215634
0.213792
0.211954
0.210141
0.208346
0.206573
0.204825
0.203108
0.201429
0.199793
0.198234
0.19714
0.202289
0.270979
0.575119
1.42505
0.238837
0.23749
0.236008
0.234419
0.232742
0.230997
0.229207
0.2274
0.22562
0.22392
0.222318
0.220723
0.218986
0.21712
0.215237
0.213385
0.211542
0.209722
0.207923
0.206146
0.204393
0.202671
0.200987
0.199345
0.197764
0.196434
0.197915
0.231232
0.38175
0.877083
0.239046
0.238073
0.237087
0.236086
0.235072
0.234049
0.23303
0.232037
0.231122
0.230328
0.229642
0.228918
0.227989
0.226895
0.225759
0.224633
0.22351
0.222368
0.221237
0.220118
0.219016
0.217942
0.216917
0.215976
0.215177
0.21467
0.21517
0.224105
0.318584
0.805292
0.239046
0.238073
0.237086
0.236086
0.235073
0.234051
0.233037
0.232057
0.231176
0.230449
0.229876
0.229274
0.228437
0.227399
0.226289
0.225176
0.224062
0.222925
0.2218
0.220685
0.219587
0.218516
0.217491
0.216543
0.215734
0.215264
0.21665
0.236472
0.416439
1.19928
0.239047
0.238073
0.237087
0.236087
0.235075
0.234058
0.233056
0.232111
0.231311
0.230758
0.230475
0.230172
0.229553
0.228641
0.227582
0.226484
0.225364
0.22423
0.2231
0.221982
0.220884
0.219817
0.218796
0.217856
0.217068
0.21678
0.220331
0.262278
0.579626
1.76135
0.239047
0.238073
0.237087
0.236088
0.235079
0.234069
0.23309
0.23221
0.231574
0.23138
0.231503
0.231647
0.23145
0.230772
0.229814
0.228743
0.227612
0.226464
0.225319
0.224189
0.223083
0.222014
0.221
0.220079
0.219341
0.219447
0.227341
0.30803
0.813811
2.46137
0.239048
0.238074
0.237088
0.23609
0.235084
0.234088
0.233146
0.232381
0.232053
0.232281
0.233073
0.233865
0.234265
0.234111
0.233403
0.232416
0.231282
0.230108
0.228942
0.227804
0.22671
0.225678
0.224734
0.223921
0.223362
0.224155
0.238497
0.372064
1.10054
3.22145
0.239048
0.238075
0.237089
0.236092
0.235092
0.234114
0.233233
0.232666
0.232746
0.233682
0.235759
0.23753
0.238697
0.239041
0.238875
0.238205
0.237281
0.236283
0.235312
0.234434
0.233706
0.233192
0.232955
0.23307
0.233659
0.235796
0.253735
0.426075
1.35176
3.86335
0.239048
0.238076
0.237092
0.236097
0.235103
0.234149
0.233359
0.233115
0.233711
0.235861
0.240267
0.244935
0.247408
0.24855
0.249739
0.250685
0.25172
0.253216
0.255373
0.258422
0.262612
0.26821
0.275428
0.284426
0.29525
0.308226
0.331741
0.478573
1.46887
4.11085
0.239048
0.238077
0.237094
0.236102
0.235116
0.234192
0.233516
0.233603
0.234962
0.239311
0.242564
0.256376
0.265794
0.269702
0.346939
0.392599
0.436337
0.4795
0.524003
0.571292
0.622011
0.675448
0.730978
0.786756
0.840318
0.88885
0.933973
1.03805
1.70845
3.87362
0.239048
0.238077
0.237096
0.236107
0.23513
0.234232
0.233687
0.234065
0.236348
0.244541
0.253912
0.306379
0.635847
0.533532
4.01747
3.61495
3.30375
3.07362
2.90392
2.78115
2.69031
2.62183
2.56369
2.50757
2.44801
2.3809
2.30826
2.27961
2.65896
4.22123
0.239048
0.238078
0.237097
0.236111
0.235139
0.234258
0.233803
0.234388
0.237621
0.249833
0.27081
0.772612
14.3671
12.6365
7.79246
6.44282
5.74591
5.27895
4.92521
4.65513
4.43772
4.25315
4.08736
3.93093
3.77738
3.62192
3.46889
3.36771
3.64873
4.92385
0.239048
0.238078
0.237097
0.236109
0.235137
0.234259
0.233808
0.234399
0.237636
0.24983
0.272427
21.0043
11.0453
9.37845
8.22645
7.32836
6.64197
6.12027
5.71128
5.38143
5.105
4.86505
4.65011
4.45124
4.26995
4.14434
4.37107
5.49667
0.239048
0.238076
0.237093
0.236105
0.235129
0.234236
0.233702
0.234097
0.236401
0.244563
0.258725
0.733428
17.0925
27.98
11.0419
9.54426
8.50814
7.75529
7.18542
6.74238
6.3727
6.04904
5.75454
5.47906
5.21746
4.96732
4.73163
4.53591
4.59483
5.4799
0.239047
0.238076
0.237091
0.236102
0.235117
0.234198
0.233535
0.233646
0.235039
0.239442
0.245696
0.271485
0.336607
0.690675
1.23209
1.54914
1.8228
2.06979
2.2933
2.49539
2.68223
2.85853
3.01785
3.15535
3.26911
3.35869
3.4237
3.47544
3.65163
4.5369
0.239047
0.238076
0.237092
0.236097
0.235104
0.234154
0.233377
0.23318
0.233825
0.236045
0.240661
0.24616
0.253745
0.260446
0.274689
0.291253
0.312406
0.338672
0.373502
0.422449
0.485063
0.561281
0.649208
0.750621
0.86552
0.993197
1.13359
1.30785
1.75057
3.35362
0.239048
0.238075
0.23709
0.236093
0.235094
0.234119
0.233249
0.232717
0.232847
0.233872
0.236124
0.23842
0.240531
0.24173
0.242294
0.242353
0.242553
0.24315
0.244414
0.247009
0.251502
0.258548
0.269049
0.284136
0.305347
0.335352
0.385447
0.573727
1.518
4.14301
0.239048
0.238074
0.237088
0.23609
0.235086
0.234092
0.233158
0.232418
0.232164
0.23247
0.233409
0.2345
0.235319
0.235509
0.234978
0.234076
0.233064
0.232069
0.23115
0.230368
0.229789
0.229509
0.229679
0.230546
0.232642
0.239319
0.292816
0.698574
2.12232
5.20661
0.239047
0.238073
0.237087
0.236088
0.23508
0.234072
0.233099
0.232236
0.231651
0.231546
0.231778
0.232121
0.232177
0.231745
0.230873
0.229832
0.228727
0.227606
0.226494
0.225407
0.224362
0.223376
0.222478
0.221741
0.221567
0.227479
0.30882
0.840875
2.35862
5.41779
0.239047
0.238073
0.237087
0.236087
0.235076
0.23406
0.233063
0.232131
0.231366
0.230896
0.230754
0.230641
0.230251
0.22946
0.22844
0.22735
0.226233
0.225101
0.223972
0.222855
0.221756
0.220688
0.219664
0.218726
0.21824
0.223657
0.302385
0.803694
2.15867
4.84007
0.239046
0.238073
0.237087
0.236087
0.235074
0.234054
0.233043
0.232074
0.231218
0.230556
0.230105
0.22968
0.229008
0.228055
0.226977
0.225879
0.224775
0.223647
0.222527
0.221413
0.220314
0.219239
0.218203
0.217232
0.216585
0.219928
0.27364
0.642856
1.66104
3.72332
0.239047
0.238074
0.237089
0.236089
0.235076
0.234054
0.233039
0.232055
0.231164
0.230424
0.229843
0.229272
0.228479
0.227455
0.226348
0.22524
0.224129
0.222997
0.221873
0.220758
0.219655
0.218577
0.217536
0.216552
0.215772
0.216936
0.243437
0.457485
1.06472
2.46401
0.239055
0.238106
0.237162
0.236224
0.235294
0.234375
0.233478
0.232631
0.231874
0.23124
0.230715
0.23017
0.229465
0.228624
0.227749
0.226881
0.226018
0.22515
0.224289
0.223443
0.222617
0.221827
0.221097
0.220474
0.220038
0.220073
0.223071
0.259302
0.590695
1.82171
0.239055
0.238106
0.237162
0.236224
0.235294
0.234378
0.233487
0.232653
0.231926
0.231354
0.230933
0.2305
0.229885
0.229099
0.228256
0.227409
0.226561
0.225704
0.224856
0.22402
0.223203
0.222419
0.22169
0.221061
0.220628
0.220952
0.228325
0.310834
0.910011
2.73867
0.239055
0.238106
0.237162
0.236225
0.235297
0.234385
0.233507
0.232704
0.232053
0.231639
0.231478
0.231318
0.230915
0.230253
0.229474
0.228659
0.227822
0.226974
0.226135
0.225309
0.224502
0.223728
0.223011
0.222396
0.222032
0.223207
0.240962
0.410418
1.39348
3.95623
0.239055
0.238106
0.237163
0.236226
0.235301
0.234396
0.233541
0.232798
0.232295
0.232198
0.232425
0.23267
0.232645
0.232203
0.231539
0.23077
0.229942
0.229099
0.228264
0.227443
0.226646
0.225887
0.225192
0.224611
0.224424
0.227495
0.265624
0.570789
2.02339
5.36784
0.239056
0.238106
0.237163
0.236228
0.235306
0.234414
0.233594
0.232955
0.232723
0.23302
0.233792
0.234561
0.235048
0.23506
0.234626
0.233957
0.233161
0.232347
0.23154
0.230762
0.230029
0.229361
0.228787
0.228373
0.228587
0.234732
0.303367
0.782874
2.74721
6.82363
0.239056
0.238106
0.237164
0.23623
0.235314
0.234439
0.233674
0.233209
0.233363
0.234226
0.23596
0.237611
0.238706
0.239191
0.239259
0.23882
0.238192
0.237586
0.23707
0.236692
0.236499
0.236533
0.236838
0.23749
0.238987
0.247955
0.342777
0.989189
3.43454
8.0871
0.239056
0.238107
0.237165
0.236233
0.235323
0.234471
0.233786
0.233592
0.234174
0.235974
0.239451
0.242928
0.245063
0.246265
0.247507
0.248816
0.250133
0.251947
0.254532
0.258115
0.262906
0.269086
0.276735
0.285819
0.296405
0.312707
0.400719
1.09694
3.87886
8.81796
0.239057
0.238109
0.237167
0.236236
0.235333
0.234506
0.23392
0.234051
0.235208
0.23868
0.241641
0.251197
0.256783
0.260036
0.298414
0.325144
0.354619
0.387879
0.425809
0.468653
0.51571
0.565265
0.615529
0.663853
0.708214
0.747721
0.819805
1.32649
3.8998
8.70359
0.239058
0.23811
0.237169
0.236241
0.235347
0.234539
0.234059
0.23443
0.236296
0.24239
0.249571
0.273254
0.294508
0.43699
1.9606
1.87961
1.81095
1.76182
1.7278
1.70968
1.70254
1.70413
1.71066
1.71849
1.72221
1.71798
1.73103
2.04577
4.06197
8.40081
0.239058
0.238111
0.237172
0.236247
0.235358
0.234568
0.234162
0.234694
0.237226
0.246264
0.259566
0.738333
4.84937
9.5441
3.06783
2.98525
2.92411
2.88782
2.87131
2.87587
2.89038
2.90848
2.92475
2.9303
2.91829
2.88343
2.84801
3.04291
4.64221
8.44467
0.239057
0.23811
0.237172
0.236245
0.235354
0.234568
0.234166
0.234702
0.237239
0.246227
0.260861
0.733207
7.06999
6.25915
8.82266
7.73655
6.95409
6.35475
5.89503
5.53847
5.25534
5.02272
4.82159
4.63706
4.46051
4.28224
4.11761
4.15105
5.40327
8.75766
0.239056
0.238108
0.237168
0.236239
0.235343
0.234542
0.234072
0.234458
0.236346
0.242423
0.251707
0.371306
31.6771
15.303
7.77471
6.77402
6.11717
5.66597
5.34947
5.12532
4.95841
4.82458
4.70803
4.59685
4.48629
4.36549
4.24579
4.27267
5.37701
8.65423
0.239055
0.238108
0.237165
0.236237
0.235335
0.234512
0.233938
0.234091
0.235282
0.238811
0.243746
0.259712
0.493789
1.13057
0.932839
1.10023
1.24461
1.38111
1.51453
1.64608
1.77557
1.90021
2.02003
2.13372
2.24179
2.34876
2.46043
2.70294
4.04892
7.88366
0.239056
0.238107
0.237165
0.236234
0.235325
0.234476
0.233804
0.233651
0.23428
0.236156
0.239842
0.244254
0.249651
0.254203
0.266142
0.277637
0.290764
0.30617
0.32442
0.346254
0.372481
0.406848
0.45059
0.505222
0.572183
0.654271
0.777715
1.24677
3.37339
8.2618
0.239056
0.238106
0.237164
0.236231
0.235316
0.234444
0.23369
0.233257
0.233457
0.234404
0.236316
0.23845
0.240253
0.241351
0.242081
0.242329
0.242576
0.243098
0.243964
0.245246
0.247309
0.250522
0.255383
0.262623
0.273737
0.298068
0.446484
1.37402
4.25861
9.68442
0.239056
0.238106
0.237163
0.236228
0.235308
0.234418
0.233606
0.232992
0.232827
0.233197
0.234103
0.235142
0.235991
0.236284
0.236034
0.235444
0.234733
0.234043
0.233402
0.232839
0.232404
0.232153
0.232177
0.232691
0.235303
0.262789
0.53787
1.8416
4.98887
10.492
0.239055
0.238106
0.237163
0.236227
0.235302
0.2344
0.233551
0.232825
0.232371
0.232382
0.232708
0.23313
0.23334
0.233118
0.232531
0.231782
0.230966
0.230136
0.229315
0.228516
0.227755
0.227048
0.226428
0.226043
0.227927
0.262694
0.592416
1.98382
5.05102
10.3157
0.239055
0.238106
0.237162
0.236226
0.235298
0.234388
0.233515
0.232725
0.232108
0.231775
0.231765
0.231804
0.231614
0.231071
0.23033
0.229519
0.228678
0.227824
0.226978
0.226143
0.225328
0.224547
0.223823
0.223275
0.224707
0.255274
0.551557
1.80617
4.47242
9.10967
0.239055
0.238106
0.237163
0.236225
0.235296
0.234381
0.233494
0.232671
0.231971
0.23146
0.231156
0.230893
0.230441
0.229747
0.228941
0.228112
0.227273
0.226421
0.225575
0.224739
0.22392
0.223131
0.222391
0.221787
0.222498
0.24229
0.451362
1.41203
3.45933
7.16531
0.239056
0.238107
0.237164
0.236227
0.235298
0.234382
0.233489
0.232651
0.231917
0.231336
0.230911
0.230512
0.229944
0.229181
0.228343
0.227496
0.226646
0.225787
0.224934
0.224091
0.223265
0.222469
0.221721
0.221074
0.221141
0.230764
0.348336
0.97868
2.32651
5.08481
0.239056
0.238108
0.237167
0.236235
0.235313
0.234406
0.23352
0.232684
0.231924
0.231264
0.23069
0.230108
0.229419
0.228635
0.227827
0.227029
0.226239
0.225451
0.224677
0.223921
0.223193
0.222509
0.2219
0.221422
0.221185
0.221788
0.230366
0.331314
1.11684
3.38974
0.239056
0.238108
0.237167
0.236235
0.235313
0.234408
0.233527
0.232702
0.231966
0.231355
0.230859
0.230366
0.229747
0.22901
0.228233
0.227456
0.226683
0.225909
0.22515
0.224408
0.223691
0.223015
0.222408
0.221928
0.221745
0.223354
0.245812
0.468614
1.803
4.97738
0.239056
0.238108
0.237167
0.236235
0.235315
0.234414
0.233543
0.232745
0.232069
0.231578
0.231281
0.231004
0.230553
0.229924
0.22921
0.228471
0.22772
0.226965
0.226224
0.2255
0.2248
0.224141
0.223549
0.223092
0.223122
0.227563
0.281843
0.71502
2.79048
7.00853
0.239056
0.238108
0.237167
0.236236
0.235319
0.234423
0.233573
0.23282
0.23226
0.232009
0.232098
0.2322
0.232032
0.231574
0.230953
0.230257
0.229525
0.228781
0.228054
0.227344
0.226658
0.226015
0.225444
0.22504
0.225602
0.236556
0.351044
1.08545
4.00735
9.25753
0.239056
0.238108
0.237168
0.236238
0.235323
0.234438
0.233617
0.232945
0.232592
0.232731
0.233221
0.233744
0.234006
0.233888
0.233461
0.23286
0.232166
0.231457
0.230757
0.230077
0.229428
0.228831
0.228321
0.228048
0.22961
0.252029
0.459597
1.57274
5.36322
11.4922
0.239056
0.238108
0.237169
0.23624
0.23533
0.234459
0.233681
0.23314
0.233135
0.233686
0.234869
0.23606
0.236832
0.237138
0.237087
0.236684
0.236104
0.235507
0.234927
0.234403
0.233967
0.233643
0.233469
0.23364
0.23654
0.27217
0.58736
2.10668
6.69036
13.425
0.239056
0.238108
0.237169
0.236242
0.235337
0.234484
0.233767
0.233429
0.233765
0.235002
0.237367
0.239384
0.240868
0.241784
0.242283
0.242462
0.242345
0.242291
0.242408
0.242802
0.24357
0.244756
0.246418
0.248775
0.254046
0.294083
0.676188
2.54074
7.71271
14.7317
0.239056
0.238108
0.237171
0.236245
0.235346
0.234512
0.233872
0.233803
0.234571
0.236813
0.241309
0.24591
0.248552
0.250183
0.252434
0.255133
0.258065
0.261936
0.267179
0.274223
0.283418
0.295031
0.309143
0.325579
0.345086
0.389755
0.724355
2.67827
8.21696
15.2737
0.239057
0.23811
0.237173
0.236249
0.235355
0.234538
0.23397
0.234133
0.235361
0.239096
0.243083
0.254992
0.261332
0.267324
0.31142
0.340843
0.371027
0.404348
0.442017
0.484077
0.530378
0.580162
0.630853
0.680412
0.726756
0.780593
1.02629
2.6951
8.15338
15.2554
0.239058
0.238111
0.237176
0.236254
0.235365
0.234559
0.23404
0.234321
0.235965
0.241178
0.248491
0.275587
0.289818
0.333636
0.382717
0.431237
0.482943
0.540448
0.60438
0.675196
0.75416
0.840061
0.929204
1.01841
1.1033
1.18821
1.41636
2.84338
7.93653
15.0356
0.239057
0.23811
0.237174
0.236252
0.235362
0.23456
0.234044
0.234331
0.235977
0.241188
0.248832
0.275734
0.466584
1.02369
1.51949
1.65548
1.75187
1.83161
1.89994
1.96355
2.02173
2.07463
2.11863
2.15396
2.17516
2.18568
2.28957
3.37665
7.98005
14.9614
0.239056
0.238108
0.23717
0.236247
0.235353
0.234541
0.233981
0.234158
0.235408
0.239173
0.244557
0.263875
0.944597
2.19583
1.33395
1.4905
1.60731
1.70447
1.78903
1.86577
1.93657
2.00231
2.06342
2.11959
2.16759
2.20709
2.32527
3.37478
7.90415
15.0386
0.239056
0.238108
0.23717
0.236245
0.235347
0.234517
0.233887
0.233854
0.234658
0.23695
0.241675
0.248377
0.260415
0.26947
0.296307
0.323303
0.353449
0.387414
0.425643
0.470971
0.52428
0.584737
0.650617
0.721102
0.797044
0.888964
1.13037
2.57205
7.59294
15.3055
0.239056
0.238108
0.237169
0.236243
0.235339
0.234488
0.233782
0.233477
0.233859
0.235168
0.237712
0.240493
0.243202
0.245167
0.247302
0.249459
0.251751
0.254614
0.258156
0.26257
0.268067
0.275151
0.285086
0.298883
0.319411
0.375981
0.780667
2.78057
8.2735
16.295
0.239056
0.238108
0.237169
0.23624
0.235331
0.234463
0.233694
0.233181
0.233245
0.233866
0.235193
0.236754
0.237998
0.23867
0.238967
0.238811
0.238506
0.238271
0.238141
0.238156
0.23839
0.238972
0.24009
0.242204
0.250071
0.335339
1.01755
3.52767
9.15647
17.2813
0.239056
0.238108
0.237168
0.236238
0.235325
0.234442
0.233628
0.232976
0.232679
0.232884
0.233488
0.234232
0.234759
0.23493
0.234625
0.234061
0.233393
0.232723
0.232077
0.231474
0.230942
0.230511
0.230251
0.230637
0.23952
0.361063
1.19941
3.91188
9.53837
17.5665
0.239056
0.238108
0.237168
0.236237
0.23532
0.234427
0.233581
0.232844
0.232324
0.232164
0.232342
0.232596
0.232701
0.23241
0.231845
0.231158
0.230425
0.229677
0.228945
0.228232
0.22755
0.226916
0.226377
0.226414
0.235312
0.360272
1.19757
3.83743
9.07841
16.7766
0.239056
0.238108
0.237168
0.236236
0.235317
0.234417
0.233551
0.232764
0.232117
0.231692
0.231518
0.231422
0.231153
0.230634
0.229961
0.229232
0.228481
0.227721
0.226972
0.226236
0.225523
0.224846
0.224244
0.224102
0.231037
0.332597
1.05058
3.3811
7.84741
14.7594
0.239056
0.238108
0.237168
0.236236
0.235315
0.234411
0.233534
0.232719
0.232006
0.231445
0.231043
0.230688
0.230206
0.229554
0.228819
0.228063
0.2273
0.226533
0.225778
0.225036
0.224315
0.22363
0.223011
0.22271
0.226858
0.29269
0.8127
2.62993
6.08253
11.7907
0.239056
0.238109
0.237169
0.236238
0.235317
0.234412
0.23353
0.232703
0.231964
0.231348
0.230855
0.23039
0.229815
0.229105
0.228337
0.227562
0.226784
0.226005
0.225238
0.224485
0.223754
0.223058
0.222423
0.221991
0.223874
0.258651
0.580204
1.85077
4.23892
8.74931
0.239056
0.238108
0.237168
0.236236
0.235314
0.234407
0.233519
0.232673
0.231887
0.231177
0.230528
0.229877
0.229157
0.228375
0.227576
0.226785
0.226004
0.225229
0.224472
0.223735
0.223031
0.222379
0.221816
0.221412
0.221326
0.222781
0.241845
0.454401
1.88485
5.34356
0.239056
0.238108
0.237167
0.236236
0.235314
0.234408
0.233524
0.232687
0.23192
0.231244
0.23065
0.230061
0.229394
0.228647
0.227873
0.2271
0.226334
0.225571
0.224827
0.224102
0.223408
0.222761
0.222198
0.221793
0.221863
0.225852
0.276964
0.731593
3.05914
7.67356
0.239056
0.238108
0.237168
0.236236
0.235316
0.234413
0.233537
0.23272
0.231997
0.231406
0.230949
0.230515
0.229974
0.229312
0.228592
0.227854
0.227111
0.226368
0.225643
0.224938
0.224261
0.223631
0.223081
0.222719
0.22333
0.23439
0.356116
1.20785
4.70256
10.5714
0.239056
0.238108
0.237168
0.236237
0.235319
0.234421
0.233558
0.232777
0.232136
0.231711
0.231527
0.231384
0.231065
0.230545
0.229905
0.229211
0.228495
0.22777
0.227064
0.226376
0.225716
0.225101
0.224573
0.224324
0.226345
0.253918
0.504442
1.88977
6.64577
13.6664
0.239056
0.238108
0.237168
0.236238
0.235322
0.234432
0.233594
0.232868
0.23237
0.232245
0.232454
0.232693
0.23273
0.232426
0.231905
0.231267
0.230569
0.229859
0.229165
0.22849
0.227844
0.227248
0.226751
0.226734
0.231601
0.290059
0.73764
2.76369
8.73376
16.6335
0.239056
0.238108
0.237169
0.23624
0.235327
0.234448
0.233641
0.233006
0.232746
0.232994
0.233656
0.234354
0.234772
0.234868
0.234586
0.234075
0.233432
0.23278
0.232126
0.231497
0.23091
0.230389
0.229996
0.230348
0.239325
0.34188
1.03828
3.75137
10.7575
19.1683
0.239056
0.238108
0.237169
0.236242
0.235333
0.234467
0.233703
0.233203
0.233288
0.233956
0.235354
0.236713
0.237627
0.238073
0.238208
0.237974
0.237515
0.237009
0.23651
0.236069
0.235719
0.235491
0.235455
0.23636
0.248821
0.394911
1.34709
4.70997
12.4655
21.0329
0.239056
0.23811
0.237171
0.236243
0.23534
0.234488
0.233775
0.233452
0.233816
0.235131
0.237662
0.239774
0.241366
0.242342
0.242959
0.243324
0.243282
0.243206
0.243284
0.243622
0.244291
0.245365
0.246933
0.249673
0.263803
0.42376
1.53195
5.43408
13.6697
22.2592
0.239057
0.238111
0.237175
0.236247
0.235345
0.234506
0.233844
0.2337
0.234372
0.236429
0.240459
0.244398
0.246971
0.248599
0.250593
0.252841
0.255022
0.25731
0.260103
0.263686
0.26829
0.274081
0.281193
0.290035
0.308305
0.449386
1.53294
5.65628
14.3389
22.9922
0.239058
0.238111
0.237177
0.236252
0.235351
0.234519
0.23389
0.233883
0.234767
0.237552
0.243347
0.248798
0.253433
0.256078
0.25955
0.263368
0.266667
0.270212
0.274525
0.279991
0.286991
0.295879
0.307081
0.3211
0.345066
0.483363
1.5278
5.66648
14.5508
23.3858
0.239058
0.238111
0.237174
0.23625
0.235352
0.23452
0.233894
0.233894
0.234788
0.237566
0.243372
0.250782
0.272963
0.283642
0.304823
0.323708
0.342623
0.362191
0.382896
0.404851
0.428363
0.45315
0.479396
0.50648
0.538253
0.656486
1.59037
5.60631
14.5885
23.6656
0.239056
0.23811
0.23717
0.236245
0.235346
0.234508
0.233852