/*--------------------------------*- C++ -*----------------------------------*\
| =========                 |                                                 |
| \\      /  F ield         | OpenFOAM: The Open Source CFD Toolbox           |
|  \\    /   O peration     | Version:  2512                                  |
|   \\  /    A nd           | Website:  www.openfoam.com                      |
|    \\/     M anipulation  |                                                 |
\*---------------------------------------------------------------------------*/
FoamFile
{
    version     2.0;
    format      ascii;
    arch        "LSB;label=32;scalar=64";
    class       volScalarField;
    location    "120";
    object      k;
}
// * * * * * * * * * * * * * * * * * * * * * * * * * * * * * * * * * * * * * //

dimensions      [0 2 -2 0 0 0 0];

internalField   nonuniform List<scalar> 
90398
(
0.231956
0.224365
0.217456
0.21126
0.205798
0.20198
0.231855
0.703971
3.07323
10.0569
23.561
39.8569
55.2324
68.3022
78.9705
87.5936
94.6827
100.737
106.333
111.974
118.135
125.228
133.538
143.155
153.928
165.425
177.099
188.118
198.813
208.498
0.231959
0.224373
0.217472
0.211283
0.205857
0.203254
0.269724
1.03583
4.29483
12.2509
25.4379
40.7536
55.2822
67.8353
78.2096
86.6328
93.5328
99.3509
104.628
109.838
115.44
121.837
129.328
138.051
147.936
158.642
169.723
180.425
191.052
200.952
0.231965
0.224387
0.217502
0.211326
0.205972
0.205697
0.327757
1.42617
5.37929
14.0709
26.96
41.0668
54.3859
66.0733
75.8526
83.8052
90.2552
95.5941
100.301
104.82
109.587
114.998
121.364
128.88
137.554
147.164
157.385
167.57
177.98
187.92
0.23197
0.224405
0.217541
0.211385
0.206159
0.20984
0.403275
1.85441
6.49101
15.6453
27.692
40.4064
52.3153
62.921
71.8666
79.097
84.8505
89.4778
93.4099
97.0665
100.864
105.187
110.352
116.596
123.987
132.409
141.651
151.185
161.222
171.005
0.231976
0.224425
0.217583
0.211455
0.206439
0.216155
0.490467
2.2873
7.45887
16.503
27.4255
38.6924
49.04
58.3718
66.3024
72.5994
77.431
81.1309
84.1099
86.7808
89.5519
92.7936
96.8254
101.881
108.07
115.351
123.604
132.421
141.962
151.423
0.231987
0.224445
0.217627
0.211534
0.206828
0.224506
0.578537
2.667
8.11695
16.6274
26.2676
35.6433
44.3873
52.5403
59.4088
64.588
68.2627
70.8175
72.6812
74.2765
76.0063
78.2378
81.2623
85.2938
90.455
96.7415
104.088
112.192
121.176
130.217
0.231996
0.224473
0.217673
0.211618
0.207291
0.233664
0.654737
2.92428
8.36991
16.0834
24.5808
32.6311
39.9437
47.1088
52.7061
56.2827
58.2874
59.2784
59.8861
60.4337
61.2583
62.6539
64.8671
68.0876
72.4215
77.8788
84.3823
91.735
99.8949
108.342
0.232002
0.2245
0.217728
0.211723
0.20778
0.241469
0.703811
2.97982
8.24097
8.05976
10.5178
15.9486
21.0294
26.3047
55.1597
53.4409
51.7689
50.2445
48.9781
48.1427
47.9371
48.5305
50.0628
52.6419
56.3389
61.1586
67.0331
73.8097
81.2836
88.9984
0.232007
0.224519
0.217769
0.211825
0.208335
0.247026
0.715863
2.78377
3.05731
5.42617
11.4643
30.9725
41.7551
38.5745
56.5407
48.9863
43.8469
40.2095
37.7147
36.2847
35.8486
36.3428
37.7107
39.9755
43.178
47.3464
52.4804
58.5144
65.2819
72.4035
0.23201
0.224534
0.217792
0.211897
0.208884
0.250838
0.710053
2.54097
2.74692
3.26045
19.4637
55.987
25.6529
15.888
35.1454
32.3577
30.2338
29.1044
28.9828
29.466
30.3603
31.5599
33.0395
34.8068
36.9707
39.7432
43.3009
47.7639
53.1202
59.1091
0.232013
0.224547
0.217817
0.211977
0.209393
0.253652
0.691746
2.34399
2.50957
2.85077
54.9665
18.7834
11.7358
42.8708
37.3008
34.2414
32.8827
32.8153
33.5552
34.6724
35.9073
37.0963
38.1525
39.0866
40.0266
41.3121
43.3307
46.3334
50.2659
0.232015
0.224558
0.217845
0.212063
0.209832
0.255446
0.670023
2.25786
2.42259
3.65119
10.1801
31.9395
29.3746
36.2353
42.8001
37.4872
35.6774
35.9046
37.1595
38.7894
40.366
41.5927
42.3843
42.7237
42.7027
42.4975
42.3722
42.641
43.6757
45.5236
0.232016
0.224565
0.217852
0.212121
0.210341
0.258462
0.662075
2.25079
5.39366
5.0937
6.66806
11.7467
15.1629
14.3166
26.911
29.8973
33.8014
37.9439
41.6386
44.4473
46.1577
46.6235
46.3312
45.5268
44.3956
43.2087
42.2425
41.7068
41.809
42.5346
0.232015
0.224562
0.217851
0.212175
0.210992
0.261737
0.652433
2.20256
5.10032
8.2977
11.6593
14.5134
16.8877
19.994
24.7145
30.936
37.4715
43.161
47.3402
49.7606
50.4437
49.5105
47.688
45.546
43.3503
41.4781
40.1994
39.5588
39.5082
39.8905
0.23201
0.224555
0.217861
0.212248
0.211672
0.264721
0.64813
2.15529
4.82274
7.65988
10.5125
13.0855
16.0089
20.2438
26.9332
34.9851
42.6242
48.4271
51.8842
53.0115
52.0471
49.3709
46.2363
42.9627
40.0414
38.0038
37.0333
36.9191
37.3479
38.0764
0.232004
0.224554
0.217868
0.212313
0.212266
0.267353
0.646478
2.10763
4.5843
7.2211
9.85024
12.6166
16.0905
21.8204
30.1717
39.476
47.3793
52.4541
54.5441
53.9752
51.1894
47.1906
42.9637
38.885
35.7134
34.0714
34.0083
35.0683
36.5802
37.9022
0.232001
0.22455
0.217869
0.212363
0.212717
0.268632
0.637407
2.03472
4.33428
6.8191
9.35672
12.2583
16.5484
23.702
33.4916
43.545
51.0788
54.9228
55.3742
53.0508
48.6483
43.87
38.9432
34.5432
31.5887
30.7778
32.0662
34.5355
36.9376
38.4006
0.231997
0.224541
0.217861
0.212388
0.212797
0.266309
0.609316
1.90574
4.03204
6.37098
8.85573
11.9635
17.1209
25.6693
36.6569
46.9024
53.6085
55.9865
54.7896
50.8918
45.773
40.4284
35.1999
30.8672
28.3624
28.5882
31.3452
34.7487
37.0788
38.2952
0.232006
0.224554
0.21788
0.212404
0.212357
0.258741
0.553913
1.69641
3.64963
5.84551
8.29004
11.6194
17.6165
27.5305
39.4358
49.4462
55.0528
55.9573
53.2618
48.2368
42.8323
37.3304
32.1803
28.1
26.0429
27.5556
32.3247
35.3068
36.8087
38.2666
0.23199
0.224529
0.217859
0.212363
0.21142
0.246792
0.478358
1.43683
3.22634
5.2968
7.72744
11.2573
18.0019
28.9728
41.391
50.9741
55.5578
55.2851
51.4165
46.1995
40.6031
34.8926
29.6879
25.9927
24.536
28.2216
32.4804
34.8585
36.4091
38.1264
0.238891
0.237834
0.237148
0.236965
0.237743
0.26559
0.846067
4.55252
16.1393
40.7001
76.1629
112.266
142.722
168.296
189.817
208.1
224.025
238.415
252.258
266.456
281.822
298.978
318.226
339.439
362.1
385.001
407.177
427.21
444.848
456.787
0.238893
0.237841
0.237168
0.237018
0.238611
0.298003
1.26318
6.13206
19.584
45.1784
79.8578
113.823
143.156
168.061
189.098
206.904
222.275
235.996
249.047
262.326
276.65
292.667
310.735
330.86
352.487
374.696
396.506
416.579
434.591
447.336
0.238899
0.237862
0.237226
0.237154
0.240398
0.352974
1.79535
7.92139
23.3711
50.0458
82.9032
113.95
141.382
164.965
184.946
201.725
215.964
228.423
240.028
251.662
264.16
278.213
294.304
312.473
332.34
353.274
374.328
394.297
412.764
426.621
0.238908
0.237895
0.237313
0.237371
0.243664
0.434463
2.41166
9.86656
27.1008
54.0958
83.9739
112.313
137.44
159.185
177.577
192.781
205.327
215.972
225.596
235.092
245.321
257.014
270.777
286.616
304.511
323.883
343.953
363.664
382.506
397.487
0.23892
0.237937
0.237427
0.237679
0.248943
0.542395
3.072
11.77
30.2149
56.3132
83.4309
109.069
131.56
151.17
167.512
180.581
190.845
199.118
206.29
213.295
221.031
230.294
241.618
255.235
271.149
288.927
307.932
327.265
346.337
362.296
0.238933
0.237986
0.237563
0.238086
0.256649
0.665643
3.70595
13.398
32.3639
56.9029
82.0509
105.262
125.367
142.626
156.335
166.453
173.588
178.778
182.984
187.188
192.329
199.189
208.267
219.923
234.093
250.444
268.444
287.342
306.516
323.241
0.238949
0.238044
0.23772
0.238592
0.26599
0.791694
4.22966
14.5415
33.5085
57.2938
82.4271
104.468
122.867
138.676
148.18
153.288
155.612
156.475
156.845
157.83
160.32
164.894
172.095
182.11
194.836
209.992
227.147
245.647
265.002
282.301
0.238966
0.23811
0.237887
0.239164
0.276396
0.901456
4.57749
15.081
34.1316
43.7846
69.1236
93.696
111.456
127.419
152.673
145.573
139.031
133.588
129.517
127.498
127.967
131.249
137.41
146.363
158
172.038
188.108
205.707
224.359
241.505
0.238981
0.238182
0.238055
0.239798
0.286682
0.983726
4.73447
14.8616
22.8132
46.7196
80.3146
108.773
139.316
150.816
151.965
131.91
117.546
108.007
102.732
100.852
101.809
105.224
110.932
119.037
129.332
141.674
155.935
171.84
189.048
205.13
0.238997
0.238256
0.238231
0.240517
0.295401
1.03513
4.73801
14.1784
20.9821
36.0697
93.6564
197.356
183.412
154.125
102.519
93.9758
90.1091
88.5529
88.5396
90.0414
93.0336
97.2786
102.455
108.402
115.498
124.173
134.725
147.245
161.611
175.53
0.239012
0.238336
0.238416
0.241258
0.304109
1.07277
4.68194
13.5159
19.1275
30.2204
48.0639
104.038
96.59
92.5253
91.6844
93.1005
96.1888
100.352
104.867
109.126
112.882
116.381
120.356
125.824
133.427
143.444
154.041
0.239026
0.238423
0.238613
0.242004
0.312304
1.09815
4.61157
13.0306
18.2656
34.3787
60.4387
133.707
179.112
159.804
104.827
97.2285
96.0865
99.0297
103.954
109.492
114.531
118.592
121.13
122.341
122.747
123.144
124.518
127.766
133.437
140.33
0.239039
0.238509
0.238809
0.242859
0.320431
1.12432
4.55264
12.56
24.2205
28.9804
43.1269
56.9742
64.3114
70.5132
84.718
91.3755
100.067
109.214
117.382
123.805
128.015
130.041
129.913
128.306
126.096
124.188
123.427
124.404
127.462
131.755
0.23905
0.238592
0.239004
0.243784
0.329454
1.15251
4.51415
12.0871
22.1774
32.0985
41.7389
49.3559
57.7444
68.2244
80.9064
95.2323
109.375
121.278
129.834
134.841
136.563
135.454
132.269
127.919
123.748
120.809
119.65
120.3
122.689
125.886
0.239059
0.238675
0.239197
0.244733
0.339694
1.18463
4.50084
11.7041
20.6624
29.2235
37.4634
44.9919
54.5593
67.9051
84.9147
103.497
120.113
132.162
138.975
141.077
139.382
134.858
128.404
121.693
116.528
113.927
113.894
115.71
118.801
121.854
0.239068
0.238751
0.239372
0.245643
0.348168
1.21584
4.48228
11.3693
19.5263
27.3145
35.0366
43.307
54.2882
70.4916
91.2292
112.704
129.944
140.293
144.062
142.609
137.314
129.415
120.107
111.892
106.871
105.699
107.739
111.578
115.919
118.881
0.239075
0.238815
0.239518
0.246348
0.354082
1.22427
4.40276
10.9687
18.5144
25.8072
33.356
42.2141
54.9008
74.0187
98.0244
121.413
137.809
145.31
145.518
140.543
132.179
121.241
110.065
101.352
97.1476
97.7149
101.881
107.552
112.53
114.764
0.239082
0.238866
0.239627
0.246602
0.353005
1.18855
4.19868
10.3932
17.4564
24.3975
31.8362
41.1854
55.6031
77.8105
104.715
128.69
143.385
147.636
144.436
136.469
125.399
112.704
100.928
92.4261
88.6963
90.0697
95.6395
102.087
106.194
108.156
0.239082
0.238888
0.239674
0.246176
0.341942
1.09022
3.82261
9.58515
16.2794
22.9659
30.3097
39.8745
56.1354
81.6708
110.969
134.551
146.964
148.2
142.247
132.028
118.985
105.768
94.3557
86.0036
81.5354
82.7329
88.9827
94.7569
98.0646
101.048
0.239089
0.238916
0.239706
0.245171
0.321993
0.939974
3.32953
8.67577
15.1326
21.714
28.9668
38.6302
56.4243
84.4731
115.233
138.175
148.691
148.031
140.552
128.49
114.381
100.855
89.3585
80.8629
74.6626
76.0791
82.6612
88.1944
91.8059
95.6452
0.239126
0.238516
0.238506
0.239021
0.246835
0.491173
3.00076
12.5621
35.5323
74.8133
120.773
161.976
197.702
229.157
256.67
280.874
302.62
322.768
342.332
362.391
383.747
406.934
432.08
458.85
486.462
513.956
539.808
562.964
582.449
595.141
0.239131
0.238532
0.238537
0.239236
0.255901
0.705121
4.22116
15.6195
40.6352
80.0714
124.226
163.715
198.734
229.516
256.325
279.772
300.666
319.887
338.442
357.416
377.652
399.739
423.878
449.799
476.897
503.991
529.858
553.359
573.463
586.985
0.239142
0.238565
0.238603
0.239693
0.273281
1.01141
5.68169
19.1973
46.599
85.4965
126.234
163.617
197.057
226.421
251.828
273.776
293.06
310.406
326.997
343.876
361.944
381.878
403.996
428.205
453.996
480.164
505.833
529.784
550.905
565.883
0.239156
0.238611
0.238703
0.240572
0.304125
1.41462
7.33272
22.9646
52.09
89.4046
126.667
161.686
192.885
220.159
243.461
263.18
280.043
294.809
308.705
322.805
338.084
355.31
374.91
397.005
420.997
446.056
471.329
495.687
517.932
534.587
0.239174
0.23867
0.238838
0.24211
0.351112
1.9092
9.09059
26.574
56.2652
91.1178
125.691
158.082
186.846
211.518
232.042
248.757
262.402
273.845
284.416
295.262
307.478
321.856
338.961
358.803
380.92
404.796
429.555
454.197
477.47
495.739
0.239194
0.238742
0.239013
0.244522
0.415881
2.44473
10.7817
29.5935
58.9265
91.5234
124.427
155.009
181.07
202.823
219.675
232.196
241.459
248.742
255.426
262.731
271.732
283.417
298.302
316.075
336.634
359.379
383.562
408.321
432.402
452.03
0.239218
0.238826
0.239231
0.247913
0.495037
2.97337
12.2242
31.6901
60.2094
91.8924
126.42
157.817
182.397
201.285
211.206
216.545
219.272
221.03
223.19
226.859
233.036
242.39
255.359
271.715
291.04
312.778
336.31
360.942
385.498
406.098
0.239244
0.238921
0.239503
0.252425
0.580806
3.4473
13.2786
32.879
61.3648
95.2832
116.314
156.772
183.286
203.318
214.985
204.794
196.769
191.468
189.229
190.299
194.936
203.175
214.82
230.003
248.078
268.578
291.069
315.044
339.495
360.471
0.239272
0.239027
0.239805
0.258008
0.669343
3.84372
13.9186
33.1956
48.9963
86.015
134.135
190.189
228.438
250.072
208.918
182.914
167.408
159.426
157.031
159.082
164.876
173.627
184.897
198.473
214.555
232.772
253.029
275.11
298.239
318.536
0.2393
0.239138
0.240112
0.263325
0.742823
4.12355
14.1531
32.5779
47.7288
84.6029
162.121
297.961
252.544
285.711
149.991
140.967
137.006
136.645
139.615
145.409
153.431
162.871
173.118
184.013
196.095
209.95
225.947
244.255
264.374
282.631
0.239328
0.239253
0.24046
0.269271
0.814187
4.35336
14.241
31.5521
44.6309
79.4111
203.622
97.2396
142.014
136.061
135.152
137.954
143.804
151.634
160.393
168.982
176.963
184.347
191.728
200.18
210.647
223.759
239.394
254.316
0.239355
0.239364
0.240848
0.275763
0.881726
4.54299
14.2678
30.335
41.4826
71.3917
112.647
231.037
209.112
232.643
148.283
141.367
143.315
149.773
158.123
166.835
174.783
181.216
186.204
190.073
193.454
197.42
203.097
211.341
222.34
233.463
0.239381
0.239449
0.241228
0.281814
0.940525
4.69742
14.2037
28.8876
45.4903
63.564
76.9109
105.319
117.97
126.725
134.078
141.779
152.614
163.908
173.879
181.761
187.415
190.912
192.566
193.27
193.714
194.908
197.671
202.706
210.27
218.205
0.239405
0.23953
0.241591
0.288646
1.00517
4.86012
14.1668
27.671
41.7488
55.6023
69.7204
82.9102
96.9627
112.823
129.617
147.517
164.364
177.596
186.609
191.821
193.996
193.956
192.472
190.635
189.348
189.355
191.134
194.909
200.645
206.43
0.239429
0.239609
0.241992
0.296182
1.07059
5.02572
14.1519
26.7082
39.1822
51.1115
63.065
74.6482
89.6297
109.714
133.298
156.919
176.123
188.289
194.25
195.561
193.676
189.929
185.608
181.969
180.137
180.481
182.906
186.946
192.163
196.593
0.23945
0.239682
0.242382
0.303202
1.12991
5.16509
14.1128
25.8952
37.2664
48.1577
59.3085
71.1922
88.0631
111.819
140.217
167.036
185.901
194.774
196.422
193.329
187.402
180.251
173.428
168.835
167.516
169.356
173.496
178.636
183.898
187.212
0.239468
0.239744
0.24268
0.308097
1.1672
5.20186
13.9339
25.073
35.6304
45.8874
56.6919
69.3609
88.4467
116.605
149.166
176.772
192.766
197.072
194.068
186.781
177.339
167.128
158.358
153.437
153.214
157.025
163.12
169.318
174.28
176.332
0.239481
0.239788
0.242798
0.308321
1.15463
5.07884
13.4988
24.0988
34.024
43.8285
54.3536
67.7329
89.8315
122.873
158.567
184.812
196.575
196.144
188.941
178.201
165.715
153.161
143.056
137.867
138.638
144.074
151.455
157.74
161.554
162.706
0.239505
0.239841
0.242679
0.301615
1.07467
4.72986
12.719
22.8944
32.3514
41.8172
51.8683
65.9758
91.587
129.56
166.965
190.473
197.86
193.529
183.141
169.772
154.926
140.704
129.521
123.984
125.308
131.747
139.076
144.345
147.105
148.665
0.239492
0.239823
0.242256
0.288491
0.932061
4.19913
11.7209
21.5971
30.7885
40.0601
49.7015
64.3765
92.7994
134.258
172.08
193.102
197.454
190.902
178.851
163.516
146.828
130.989
118.441
112.89
114.61
121.358
128.286
133.13
135.991
138.323
0.239173
0.238633
0.238713
0.240181
0.291673
1.3365
7.70098
26.155
61.9846
110.856
159.083
202.152
241.743
277.452
309.315
337.861
363.91
388.505
412.476
436.911
462.546
489.786
518.606
548.556
578.809
608.301
635.976
660.489
680.699
693.528
0.239178
0.23865
0.238765
0.2415
0.346561
1.99658
10.0717
30.6765
67.6307
115.363
161.85
204.294
243.344
278.224
309.21
336.795
361.804
385.296
408.106
431.4
455.958
482.252
510.318
539.749
569.757
599.33
627.306
652.337
673.3
686.943
0.239191
0.238691
0.238888
0.244268
0.439472
2.85378
12.8832
35.9875
73.9466
119.152
163.153
204.381
241.944
275.194
304.435
330.124
353.088
374.382
394.894
415.877
438.191
462.418
488.735
516.806
545.969
575.329
603.55
629.492
651.843
667.102
0.239211
0.238754
0.239103
0.249931
0.589597
3.92865
15.9934
41.3312
79.4846
121.678
163.271
202.465
237.657
268.608
295.313
318.257
338.31
356.483
373.886
391.785
411.156
432.697
456.711
483.001
511.022
539.848
568.22
595.17
619.169
636.387
0.239237
0.238837
0.239461
0.260734
0.811939
5.20687
19.2483
46.2098
83.1755
122.744
162.127
198.893
231.552
259.388
282.766
302.101
318.398
332.684
346.364
360.737
376.883
395.576
417.164
441.684
468.378
496.449
524.871
552.694
578.283
597.435
0.239267
0.23894
0.239999
0.278165
1.10018
6.59555
22.3404
50.1279
85.39
122.709
160.53
195.496
225.291
249.949
268.926
283.4
294.763
304.422
313.933
324.653
337.684
353.768
373.232
396.066
421.541
448.762
477.053
505.467
532.35
553.141
0.239302
0.239063
0.240772
0.302978
1.43495
7.95879
24.9625
52.6402
86.2688
122.287
161.785
197.887
225.938
246.737
257.908
264.716
269.267
273.309
278.428
285.84
296.4
310.557
328.508
349.883
374.163
400.455
428.257
456.795
484.469
506.408
0.23934
0.239205
0.241849
0.335414
1.79244
9.20025
26.9778
54.0443
86.4197
123.039
151.139
200.457
231.926
252.263
255.092
247.634
242.646
240.659
242.227
247.73
257.251
270.703
287.645
307.661
330.328
355.182
381.831
409.756
437.496
459.914
0.239382
0.239361
0.243181
0.372019
2.14461
10.2524
28.3463
54.467
86.2812
126.416
164.373
239.565
283.468
300.431
244.366
223.8
212.454
208.482
210.292
217.061
227.803
241.645
257.775
275.763
295.83
317.965
342.132
368.103
394.626
416.498
0.239426
0.239518
0.244709
0.410241
2.4528
11.0473
29.0789
53.8198
83.8394
113.217
178.396
327.733
347.213
286.603
209.009
193.104
186.782
187.616
193.688
203.544
215.887
229.561
243.771
258.496
274.3
291.935
311.855
334.189
357.942
378.051
0.239471
0.239662
0.246463
0.452402
2.75597
11.7337
29.4005
52.3668
79.1133
107.879
173.506
350.753
232.967
185.415
194.067
183.58
182.415
187.639
196.8
208.146
220.223
232.033
243.059
253.605
264.383
276.639
291.277
308.791
328.508
345.749
0.239517
0.239807
0.248398
0.497374
3.05245
12.3558
29.4932
50.4833
73.2433
101.422
133.988
260.608
277.177
276.19
188.788
185.186
189.94
199.134
209.971
221.059
231.26
240.07
247.314
253.743
260.156
267.744
277.558
290.329
305.683
319.519
0.239563
0.239954
0.250554
0.543607
3.31908
12.8641
29.4326
48.5208
67.4944
87.9628
105.774
144.511
163.829
172.735
177.586
187.688
200.38
213.047
224.171
233.273
240.361
245.648
249.425
252.521
255.828
260.247
266.737
275.906
287.54
298.118
0.239609
0.240095
0.252854
0.588237
3.57868
13.343
29.3853
46.8554
63.2899
79.6959
97.4336
115.011
133.217
153.166
173.693
194.042
212.122
225.49
234.484
240.099
243.336
245.015
245.811
246.696
248.274
251.16
256.021
263.041
272.034
279.849
0.239653
0.240239
0.255341
0.634541
3.8332
13.7958
29.3618
45.5057
60.2766
74.6522
89.4346
104.372
123.862
149.214
177.173
203.248
222.745
233.718
238.691
239.926
239.101
237.406
235.887
235.501
236.639
239.502
244.18
250.292
257.552
263.038
0.239692
0.240376
0.257734
0.675992
4.05287
14.1547
29.2975
44.3552
57.9486
71.2055
84.6605
99.683
121.938
151.928
185.312
213.309
230.376
236.602
236.571
233.223
228.522
223.929
220.706
219.795
221.529
225.414
230.858
236.757
242.719
246.116
0.239727
0.240482
0.259308
0.702648
4.18502
14.3351
29.0853
43.2451
55.9275
68.4546
81.2372
97.397
123.155
159.195
196.295
222.31
233.933
234.484
229.416
221.816
213.678
206.536
202.029
201.213
204.023
209.449
215.787
221.51
226.148
227.659
0.239759
0.240552
0.259388
0.700804
4.1628
14.2065
28.5953
42.0201
53.9482
65.871
78.24
95.9646
126.808
169.132
207.293
228.572
233.723
228.908
219.431
208.242
197.03
187.679
182.164
181.647
185.583
192.171
198.894
203.925
207.042
207.316
0.239769
0.240534
0.257203
0.656309
3.91572
13.6501
27.7284
40.5921
51.9182
63.2433
75.1642
94.8394
131.725
179.285
215.819
231.392
231.017
222.023
209.183
195.026
181.21
169.965
163.69
163.634
168.405
175.227
181.465
185.485
187.527
187.858
0.239788
0.240491
0.25305
0.571772
3.46661
12.7416
26.5355
39.0349
50.0368
60.8106
72.3826
94.0277
135.614
185.914
219.8
231.158
227.531
216.27
201.425
185.007
168.939
155.943
149.448
149.855
154.925
161.588
167.377
171.183
173.281
174.245
0.23921
0.238715
0.238909
0.245067
0.474199
3.32131
15.616
44.4443
90.2435
142.692
192.373
239.015
282.341
321.685
357.139
389.252
418.85
446.998
474.531
502.394
531.25
561.387
592.687
624.661
656.499
687.183
715.622
740.758
761.289
773.965
0.23922
0.238745
0.23908
0.252029
0.66672
4.65679
19.1645
49.7784
95.682
146.717
195.544
241.79
284.367
322.764
357.153
388.113
416.496
443.406
469.716
496.447
524.324
553.698
584.503
616.273
648.189
679.199
708.193
734.106
755.446
768.951
0.23924
0.238805
0.239447
0.266033
0.962726
6.34609
23.4266
56.0468
101.207
149.998
197.508
242.381
283.248
319.713
351.993
380.682
406.664
431.091
454.927
479.281
504.988
532.518
561.917
592.793
624.374
655.613
685.429
712.629
735.604
750.852
0.239268
0.238898
0.240185
0.294143
1.41609
8.44641
28.0729
62.1861
106.109
152.387
198.05
240.685
279.004
312.698
341.978
367.459
390.105
411.131
431.582
452.771
475.62
500.715
528.206
557.781
588.717
620.024
650.651
679.278
704.265
721.64
0.239304
0.239028
0.241624
0.345192
2.04775
10.8864
32.7937
67.5451
109.742
153.76
196.936
236.846
272.125
302.448
327.972
349.413
367.932
384.807
401.39
419.07
438.862
461.412
486.902
515.048
545.164
576.364
607.54
637.439
664.383
683.836
0.239347
0.239201
0.244184
0.426237
2.83559
13.4815
37.1846
71.8392
111.967
153.629
194.55
232.08
264.304
290.902
311.787
328.188
341.719
353.898
366.43
380.705
397.735
418.087
441.84
468.646
497.844
528.644
559.946
590.741
619.239
640.391
0.239398
0.239427
0.248368
0.539656
3.72669
16.0168
40.8443
74.7561
112.804
152.281
192.726
229.726
259.522
281.998
296.265
305.866
313.274
320.435
329.183
340.742
355.852
374.747
397.231
422.802
450.896
480.772
511.574
542.616
572.025
594.28
0.239455
0.239705
0.254611
0.683788
4.65987
18.3312
43.6807
76.3538
112.286
150.466
195.612
236.897
265.233
282.324
284.1
283.822
284.158
286.841
293.089
303.452
318
336.252
357.794
382.015
408.293
436.308
465.703
496.045
525.516
548.125
0.239517
0.240005
0.26245
0.842633
5.57409
20.3338
45.6762
76.735
110.577
148.367
183.67
245.094
277.54
290.817
269.864
259.994
255.601
256.952
263.74
275.383
290.75
308.751
329
350.736
373.907
398.802
425.613
454
482.293
504.306
0.239583
0.24032
0.27164
1.00699
6.38845
21.9644
46.9221
76.0391
107.31
144.377
185.147
258.846
283.174
282.525
247.353
236.977
234.589
239.128
249.136
262.926
278.89
295.908
313.57
331.433
350.047
370.45
393.153
418.123
443.889
464.289
0.239654
0.240684
0.28275
1.18607
7.19574
23.3533
47.6179
74.5612
102.626
135.649
174.484
243.454
261.359
256.4
231.56
226.624
229.533
238.288
250.842
265.223
280.174
294.68
308.41
321.54
335.191
350.429
368.215
388.812
410.993
428.895
0.239727
0.241092
0.295466
1.37662
8.00421
24.5992
47.9944
72.7191
97.3105
123.768
152.742
209.575
231.97
235.692
222.945
226.539
235.675
247.839
261.156
274.369
286.624
297.559
307.125
315.832
324.964
335.559
348.813
364.992
383.155
398.031
0.239802
0.241535
0.309369
1.56542
8.73002
25.6704
48.2052
70.9119
92.3587
113.647
139.407
166.755
187.35
203.768
216.103
230.543
245.818
259.815
272.056
282.361
290.917
298.019
303.926
309.271
315.11
322.426
332.207
344.661
359.133
370.87
0.239874
0.241982
0.323389
1.74125
9.42011
26.6541
48.3598
69.3262
88.395
106.518
125.823
146.067
167.684
191.305
215.221
237.653
256.238
269.449
278.494
284.733
289.255
292.799
295.776
298.987
303.006
308.532
316.169
325.956
337.32
346.032
0.239942
0.242414
0.337268
1.91509
10.0744
27.5513
48.4838
67.9854
85.3349
101.699
118.295
136.444
160.404
189.934
220.43
246.414
264.374
273.857
278.222
279.941
280.602
281.101
282.151
284.236
287.626
292.679
299.338
307.311
316.102
321.925
0.239999
0.242804
0.3497
2.06767
10.6417
28.3089
48.5298
66.7848
82.8488
98.136
113.288
132.308
160.409
196.009
230.469
255.362
268.262
272.038
271.219
268.573
265.806
263.92
263.736
265.514
269.194
274.513
280.933
287.543
294.075
297.25
0.240042
0.243071
0.357777
2.1669
11.0308
28.8259
48.3966
65.5559
80.5889
95.0739
109.611
131.019
164.767
206.041
241.51
261.252
267.026
264.811
259.114
252.567
246.801
243.027
242.059
244.035
248.428
254.319
260.575
265.965
270.388
271.341
0.240063
0.243092
0.356746
2.16529
11.104
28.9607
47.9535
64.1261
78.2941
91.9971
106.513
131.337
171.703
217.728
250.223
262.839
261.792
254.312
244.439
234.526
226.154
220.748
219.245
221.572
226.619
232.847
238.569
242.702
245.239
244.836
0.240095
0.242806
0.342329
2.01385
10.7237
28.5614
47.0759
62.3897
75.8908
88.5993
103.7
132.646
179.694
227.955
254.998
260.915
254.711
243.252
230.103
217.369
206.728
200.003
198.233
200.89
206.174
212.105
216.972
220.071
221.493
220.982
0.240069
0.242157
0.315726
1.72224
9.93655
27.5487
45.6888
60.4294
73.6737
85.4593
101.278
133.607
185.606
233.223
255.487
257.238
248.356
234.72
219.416
204.537
192.265
184.605
182.669
185.413
190.602
196.187
200.683
203.618
205.066
205.023
0.239257
0.238819
0.2394
0.265121
0.967193
6.82475
26.5805
64.7685
116.141
170.95
224.329
275.01
321.818
364.376
402.913
438.049
470.64
501.747
532.154
562.725
594.037
626.309
659.391
692.796
725.737
757.222
786.159
811.498
831.936
844.303
0.239268
0.238858
0.239947
0.2907
1.41249
8.89904
30.974
70.3163
121.316
175.459
228.47
278.44
324.265
365.66
402.923
436.716
467.94
497.712
526.867
556.356
586.82
618.535
651.381
684.865
718.167
750.241
779.948
806.181
827.594
840.843
0.239293
0.238952
0.241225
0.340575
2.06417
11.5758
36.3241
76.7114
126.856
179.766
231.396
279.601
323.339
362.408
397.166
428.323
456.843
483.922
510.503
537.65
566.123
596.305
628.155
661.219
694.671
727.435
758.325
786.176
809.508
824.611
0.239331
0.239112
0.244157
0.438748
3.0353
14.9205
42.2553
83.375
132.368
183.383
232.659
278.153
318.877
354.685
385.964
413.485
438.309
461.741
484.905
508.973
534.837
562.976
593.415
625.727
659.089
692.417
724.517
754.223
779.816
797.152
0.239381
0.239368
0.250431
0.607977
4.336
18.7413
48.3184
89.6474
137.149
185.534
231.751
273.937
311.078
343.012
370.108
393.253
413.75
432.975
452.298
473.086
496.262
522.331
551.298
582.712
615.741
649.329
682.343
713.684
741.381
760.815
0.239443
0.239752
0.261816
0.861094
5.90467
22.7431
54.0073
94.9217
140.353
185.657
228.654
267.553
301.022
328.79
351.123
369.26
384.954
399.741
415.366
433.217
454.157
478.555
506.264
536.729
569.116
602.479
635.87
668.234
697.498
718.526
0.239517
0.240311
0.280466
1.19733
7.64046
26.6236
58.8864
98.836
141.661
183.74
224.171
260.674
290.867
314.325
331.085
343.485
353.996
364.677
377.339
393.185
412.796
436.185
462.902
492.239
523.451
555.839
588.774
621.269
651.345
673.249
0.239602
0.241056
0.307537
1.60504
9.43697
30.1708
62.7532
101.189
141.086
180.166
219.766
255.713
283.175
302.006
311.772
317.826
323.543
331.238
342.423
357.695
377.025
400.102
425.734
453.291
482.359
512.659
544.009
575.536
605.508
627.478
0.239697
0.242021
0.342467
2.05666
11.2075
33.2828
65.6038
102.084
138.865
175.203
215.533
252.674
277.211
290.509
292.532
293.327
296.531
303.926
315.992
332.308
352.179
374.481
398.175
422.746
448.37
475.229
503.71
533.25
561.985
583.171
0.2398
0.24323
0.383997
2.51777
12.8395
35.9243
67.5822
101.791
135.249
168.563
207.278
243.584
264.873
273.948
273.19
273.727
278.685
288.725
303.156
320.842
340.459
360.826
381.223
401.542
422.465
444.823
469.248
495.539
521.867
541.47
0.239911
0.244738
0.433565
3.00956
14.4376
38.2093
68.9184
100.695
130.686
160.065
194.734
228.23
248.37
258.113
260.197
264.929
274.212
287.546
303.581
321.014
338.679
355.73
371.818
387.158
402.977
420.405
440.28
462.579
485.652
502.981
0.240023
0.246509
0.489188
3.52844
16.035
40.2498
69.8355
99.2092
125.866
150.958
180.018
209.499
230.623
245.102
254.209
265.536
279.542
295.008
310.782
325.968
340.066
352.949
364.634
375.472
386.819
399.814
415.417
433.676
452.938
467.546
0.240128
0.248544
0.549345
4.02942
17.4942
42.0376
70.4995
97.6695
121.457
143.073
166.127
190.842
213.072
233.779
252.257
270.805
288.559
304.156
317.58
329.034
338.921
347.629
355.521
362.91
370.987
380.683
392.877
407.473
423.1
434.755
0.240206
0.250657
0.608839
4.51199
18.89
43.66
71.0281
96.2659
117.82
137.167
156.684
178.119
202.087
228.467
254.56
278.024
296.664
310.002
319.315
326.254
331.962
337.116
342.067
347.25
353.389
361.089
370.919
382.558
394.934
403.545
0.240279
0.252663
0.664778
4.97258
20.2002
45.1207
71.4496
95.0222
114.906
132.881
150.578
171.486
198.922
231.125
261.943
285.823
301.342
309.796
314.004
316.417
318.469
320.863
323.883
327.929
333.202
339.927
348.195
357.455
366.896
372.285
0.240342
0.254387
0.713744
5.37417
21.348
46.368
71.708
93.8283
112.432
129.478
146.298
169.353
202.06
239.683
271.462
291.46
300.563
302.839
301.997
300.399
299.46
299.783
301.78
305.393
310.446
316.774
323.874
330.992
337.631
340.204
0.240391
0.255452
0.743796
5.6476
22.2201
47.2952
71.6763
92.4946
110.046
126.214
143.27
170.227
209.48
250.63
279.332
292.27
294.121
290.638
285.311
280.315
276.883
275.767
277.151
280.714
285.843
291.876
297.899
303.026
307.139
307.526
0.240422
0.255188
0.73762
5.6888
22.6295
47.7438
71.1819
90.8237
107.488
122.6
140.938
173.196
219.171
260.542
283.251
288.571
284.15
275.79
266.711
258.82
253.353
251.063
252.037
255.609
260.697
266.274
271.098
274.522
276.586
275.807
0.240398
0.25295
0.678261
5.38692
22.3817
47.5211
70.0524
88.6996
104.715
118.748
139.144
177.391
228.762
267.437
283.141
282.364
273.327
261.321
249.289
239.066
231.942
228.702
229.296
232.704
237.47
242.332
246.127
248.451
249.372
248.427
0.240373
0.249201
0.571098
4.77438
21.4579
46.4009
68.2008
86.244
101.924
115.295
137.633
180.577
234.256
269.383
280.319
276.196
264.726
250.737
236.885
225.057
216.726
212.761
212.991
216.119
220.548
224.951
228.401
230.58
231.438
230.842
0.239292
0.238918
0.240676
0.323446
1.94
11.8665
39.258
84.4342
139.845
198.695
256.429
310.773
360.726
406.116
447.317
485.032
520.145
553.692
586.423
619.126
652.344
686.274