/*--------------------------------*- C++ -*----------------------------------*\
| =========                 |                                                 |
| \\      /  F ield         | OpenFOAM: The Open Source CFD Toolbox           |
|  \\    /   O peration     | Version:  2512                                  |
|   \\  /    A nd           | Website:  www.openfoam.com                      |
|    \\/     M anipulation  |                                                 |
\*---------------------------------------------------------------------------*/
FoamFile
{
    version     2.0;
    format      ascii;
    arch        "LSB;label=32;scalar=64";
    class       volScalarField;
    location    "120";
    object      nut;
}
// * * * * * * * * * * * * * * * * * * * * * * * * * * * * * * * * * * * * * //

dimensions      [0 2 -1 0 0 0 0];

internalField   nonuniform List<scalar> 
90398
(
0.0144204
0.0141822
0.0139625
0.0137617
0.0135814
0.0134341
0.0139015
0.0227833
0.04802
0.0886148
0.138635
0.183063
0.217457
0.243231
0.262443
0.277029
0.288422
0.29772
0.305951
0.313881
0.322162
0.331317
0.341658
0.353243
0.365837
0.378931
0.391938
0.40403
0.415607
0.426099
0.0144204
0.0141824
0.0139628
0.0137621
0.0135822
0.0134523
0.0146575
0.0275259
0.0571364
0.0985644
0.144517
0.185269
0.217543
0.242299
0.261037
0.27535
0.28651
0.295522
0.303367
0.310792
0.318437
0.326832
0.336321
0.347027
0.358811
0.371243
0.383825
0.395773
0.407452
0.418294
0.0144206
0.0141828
0.0139636
0.0137631
0.0135849
0.0134882
0.0158273
0.0322074
0.0641346
0.105982
0.149283
0.186195
0.215769
0.239016
0.256897
0.270618
0.28123
0.289677
0.296864
0.303495
0.310209
0.31755
0.3259
0.335464
0.346193
0.357767
0.369791
0.381542
0.393329
0.404494
0.0144208
0.0141834
0.0139644
0.0137651
0.0135894
0.0135503
0.0172951
0.0367185
0.0706507
0.112161
0.151564
0.18481
0.211607
0.233132
0.24989
0.262711
0.272474
0.280057
0.286313
0.291927
0.297539
0.303706
0.310841
0.319221
0.328867
0.339566
0.351012
0.362556
0.374435
0.385865
0.014421
0.014184
0.0139654
0.0137675
0.0135959
0.0136516
0.0188979
0.0408124
0.0759524
0.115648
0.15113
0.181364
0.205325
0.224514
0.239925
0.25155
0.260124
0.266503
0.271533
0.275906
0.280284
0.285239
0.291216
0.298505
0.307188
0.317122
0.328071
0.339458
0.351447
0.363114
0.0144214
0.0141846
0.0139668
0.0137695
0.0136021
0.0137952
0.0204361
0.0441526
0.0794981
0.116541
0.148351
0.174056
0.195236
0.213132
0.227151
0.237234
0.244163
0.248892
0.25232
0.255184
0.25818
0.261912
0.266829
0.273211
0.28116
0.290563
0.301212
0.312592
0.32479
0.336748
0.0144218
0.0141857
0.013969
0.0137729
0.01361
0.0139606
0.0216875
0.0463131
0.0809946
0.114728
0.143696
0.166869
0.185398
0.20221
0.214197
0.221571
0.225662
0.227705
0.229006
0.230149
0.231768
0.234388
0.238425
0.244147
0.251628
0.260757
0.271262
0.282711
0.294952
0.307175
0.014422
0.0141871
0.0139742
0.0137836
0.0136237
0.0141078
0.0224673
0.046755
0.0805292
0.0401104
0.0467203
0.0583838
0.067501
0.0756114
0.219406
0.216025
0.2127
0.209673
0.207135
0.205464
0.205099
0.206395
0.209608
0.214853
0.222119
0.231237
0.241897
0.253673
0.26609
0.27839
0.0144222
0.0141878
0.0139765
0.0137912
0.0136428
0.014228
0.022676
0.0450922
0.0238234
0.0326935
0.048834
0.0808464
0.0950175
0.0918591
0.222473
0.207138
0.19601
0.187856
0.182056
0.178669
0.17768
0.178982
0.182358
0.187723
0.194971
0.203945
0.214441
0.226161
0.238647
0.251183
0.0144223
0.0141879
0.0139745
0.0137882
0.0136529
0.0143239
0.0226384
0.0430968
0.0225627
0.012497
0.031539
0.0543493
0.0369634
0.0297995
0.174636
0.168007
0.16259
0.159547
0.15932
0.160799
0.163414
0.166838
0.170967
0.175712
0.181193
0.187762
0.195686
0.205098
0.215836
0.227309
0.0144224
0.0141883
0.0139751
0.0137902
0.0136632
0.0144023
0.0224107
0.0414596
0.021567
0.0116616
0.05295
0.0297942
0.0200199
0.193273
0.180993
0.173569
0.170128
0.169879
0.17184
0.174814
0.178093
0.181258
0.184086
0.186579
0.188979
0.191944
0.196284
0.202473
0.210327
0.0144224
0.0141889
0.0139785
0.0137971
0.0136735
0.0144651
0.0221428
0.040844
0.0212792
0.0265795
0.0230301
0.0418993
0.039791
0.0443913
0.194765
0.182178
0.177455
0.177816
0.180818
0.184851
0.188765
0.191852
0.193902
0.194886
0.195003
0.194641
0.194407
0.194959
0.197072
0.200786
0.0144224
0.014189
0.0139774
0.0137935
0.0136757
0.014553
0.0221064
0.041007
0.0657246
0.0320999
0.0371785
0.050093
0.0574391
0.056264
0.154131
0.162049
0.172045
0.182283
0.191145
0.197817
0.202013
0.203504
0.20308
0.201423
0.198868
0.196041
0.193687
0.192381
0.192517
0.194103
0.0144224
0.0141882
0.013974
0.013787
0.0136841
0.0146486
0.0220226
0.0406978
0.0644935
0.0835725
0.100042
0.112353
0.121645
0.132537
0.146902
0.164069
0.18064
0.194216
0.203906
0.209637
0.211706
0.210355
0.206647
0.201938
0.196657
0.191807
0.188377
0.186717
0.186657
0.18766
0.014422
0.0141877
0.0139737
0.0137877
0.0136983
0.0142574
0.0220076
0.0404076
0.0628565
0.0806282
0.0953275
0.106862
0.118318
0.132731
0.152621
0.173967
0.192504
0.205863
0.213857
0.216992
0.215885
0.210941
0.204352
0.196791
0.189161
0.183195
0.18008
0.179641
0.180957
0.18301
0.0144217
0.0141878
0.0139738
0.0137896
0.013711
0.0138548
0.0220009
0.0400953
0.0614076
0.0784744
0.092288
0.104954
0.118367
0.136965
0.160824
0.184472
0.203028
0.214612
0.21986
0.219793
0.215192
0.207187
0.198032
0.187933
0.178643
0.172728
0.171441
0.173938
0.178225
0.182192
0.0144217
0.0141878
0.0139742
0.0137903
0.0137187
0.0134961
0.0218757
0.0394927
0.0597767
0.0762856
0.0898675
0.102948
0.119037
0.141896
0.168926
0.193676
0.211093
0.220133
0.222264
0.218905
0.210559
0.200784
0.189536
0.177657
0.167646
0.162852
0.164839
0.171291
0.178356
0.18313
0.0144215
0.0141876
0.0139743
0.0137906
0.0137202
0.0130682
0.0213811
0.0382363
0.0576446
0.073675
0.0872832
0.101274
0.120235
0.146851
0.176358
0.201102
0.216676
0.222876
0.221909
0.215424
0.205188
0.193715
0.180957
0.168201
0.158046
0.155046
0.140771
0.139136
0.137904
0.138093
0.0144218
0.014188
0.0139751
0.0137918
0.0137135
0.0124911
0.0192123
0.0359802
0.0547601
0.0704445
0.0842523
0.0992562
0.121081
0.151425
0.182791
0.206767
0.220097
0.223517
0.21969
0.210108
0.199049
0.186675
0.173536
0.160444
0.141804
0.107103
0.108181
0.110838
0.111444
0.115041
0.0144213
0.0141873
0.0139746
0.0137914
0.0136989
0.011787
0.0164054
0.0329457
0.0513699
0.0667718
0.0811693
0.0971839
0.121708
0.154963
0.18731
0.21025
0.221569
0.222847
0.216723
0.206347
0.194468
0.181368
0.166838
0.153965
0.102582
0.090572
0.0956075
0.0981708
0.100675
0.106096
0.123218
0.114428
0.107681
0.100278
0.0798129
0.0739918
0.185528
0.611612
1.06939
1.50019
2.00753
2.19889
2.28641
2.34111
2.38032
2.41092
2.43839
2.46613
2.49995
2.54357
2.59959
2.66888
2.74998
2.83891
2.93066
3.01661
3.09322
3.15434
3.20364
3.22674
0.123218
0.11443
0.107688
0.0995205
0.0792289
0.0808565
0.261882
0.785799
1.3274
1.71008
2.00581
2.17453
2.26108
2.31737
2.35771
2.38789
2.41355
2.43825
2.46793
2.50664
2.55716
2.62073
2.6963
2.78109
2.86886
2.95356
3.0304
3.09359
3.14615
3.1743
0.123221
0.114438
0.107709
0.0972197
0.0773493
0.0909311
0.338468
0.902705
1.39945
1.753
2.00777
2.13779
2.21598
2.26961
2.30732
2.33364
2.35377
2.37239
2.39488
2.42542
2.46728
2.52221
2.59029
2.66844
2.75153
2.83493
2.91276
2.97952
3.03737
3.07246
0.123224
0.114451
0.107739
0.0940595
0.0750649
0.104719
0.406471
0.984969
1.4622
1.78645
1.97793
2.08726
2.15425
2.20013
2.23076
2.24898
2.25982
2.26897
2.28142
2.30176
2.3337
2.3794
2.44009
2.51159
2.59175
2.67449
2.7544
2.82595
2.89022
2.93297
0.123227
0.114466
0.107777
0.0903988
0.0727992
0.121264
0.460861
1.04277
1.50821
1.79051
1.93627
2.02287
2.07398
2.10837
2.12691
2.13187
2.12899
2.12506
2.12514
2.13427
2.15647
2.19469
2.2488
2.31714
2.3963
2.48044
2.56418
2.64191
2.71358
2.76439
0.123227
0.114483
0.107829
0.0865848
0.0709989
0.137933
0.498991
1.0817
1.53569
1.77012
1.88773
1.94673
1.97541
1.99389
1.99177
1.97589
1.95354
1.93321
1.91946
1.91736
1.93151
1.96438
2.01584
2.08503
2.167
2.25595
2.34631
2.43239
2.51342
2.57321
0.123237
0.114501
0.107925
0.0825835
0.0696012
0.152705
0.520737
1.09924
1.54847
1.76862
1.83798
1.81477
1.8172
1.84079
1.80196
1.7553
1.71033
1.67298
1.64201
1.62725
1.63436
1.66433
1.71793
1.79195
1.88093
1.97896
2.08157
2.18209
2.28378
2.3575
0.123251
0.114538
0.108141
0.0786343
0.0683575
0.162934
0.526783
1.06788
1.58499
1.25169
1.30921
1.28658
1.26149
1.30906
1.46401
1.39447
1.33888
1.29684
1.26963
1.26449
1.28358
1.32761
1.39408
1.47883
1.57694
1.68223
1.79013
1.8952
2.00171
2.08269
0.123258
0.114576
0.106002
0.0747312
0.067183
0.167669
0.517425
0.988534
1.07968
1.07453
1.1771
0.89116
0.813334
0.92729
0.962094
0.949718
0.934712
0.930859
0.945526
0.977873
1.02693
1.09068
1.16714
1.25512
1.35094
1.4507
1.55224
1.65193
1.75328
1.82761
0.123263
0.114605
0.100519
0.070666
0.0652106
0.167139
0.505689
0.914435
0.921763
0.521741
0.632954
0.182802
0.263591
0.275114
0.596858
0.668767
0.738125
0.807119
0.874013
0.940648
1.00889
1.07759
1.14396
1.20634
1.26748
1.33149
1.40148
1.47691
1.56056
1.62166
0.123268
0.114634
0.0951864
0.0667791
0.0629121
0.162323
0.475456
0.848193
0.828523
0.336796
0.0474674
0.639169
0.746435
0.839122
0.931504
1.01605
1.09095
1.15735
1.21218
1.25195
1.27659
1.2914
1.30563
1.32982
1.36777
1.42278
1.46599
0.123273
0.114664
0.0900085
0.0630334
0.0602045
0.153798
0.435557
0.822855
0.891362
0.575748
0.468588
0.253979
0.293395
0.398172
0.876996
0.966975
1.06357
1.15807
1.2407
1.30794
1.35533
1.38316
1.3864
1.36986
1.34273
1.31654
1.30299
1.30743
1.33341
1.35694
0.123276
0.11468
0.085451
0.0595839
0.0577181
0.147262
0.411391
0.831545
1.25687
0.937284
0.793018
0.641254
0.596075
0.687544
1.13325
1.23932
1.33222
1.40316
1.45165
1.48157
1.4941
1.49133
1.46057
1.40912
1.35219
1.30297
1.27152
1.26094
1.27083
1.28153
0.123271
0.114697
0.0812493
0.0563902
0.055666
0.141969
0.389056
0.824345
1.2944
1.3038
1.19463
1.089
1.10353
1.21429
1.34521
1.45134
1.52335
1.56216
1.57498
1.56853
1.54653
1.51003
1.45017
1.37216
1.29849
1.24408
1.21525
1.20916
1.21969
1.22786
0.123269
0.114735
0.0774244
0.0536603
0.0542337
0.138494
0.375068
0.815727
1.24868
1.28093
1.23657
1.19123
1.23195
1.35749
1.48379
1.57986
1.63119
1.64226
1.62439
1.58635
1.533
1.46589
1.36978
1.26982
1.19039
1.14546
1.13561
1.15014
1.17499
1.18837
0.123277
0.11479
0.0741995
0.0513861
0.0530645
0.13647
0.365538
0.809522
1.21295
1.25488
1.24704
1.24916
1.3205
1.44552
1.57073
1.65686
1.68734
1.67058
1.62342
1.55604
1.47238
1.36613
1.23911
1.12631
1.05218
1.02782
1.04753
1.0925
1.13715
1.15655
0.123281
0.114866
0.0716493
0.0496118
0.0519497
0.133595
0.35566
0.798949
1.18085
1.22595
1.24224
1.27832
1.3668
1.49955
1.62491
1.70209
1.70968
1.66462
1.58928
1.49434
1.38337
1.23552
1.08968
0.973434
0.912517
0.916872
0.972499
1.05014
1.10931
1.12936
0.123285
0.114971
0.0697342
0.04825
0.050374
0.127881
0.339984
0.77276
1.15029
1.19887
1.22979
1.28452
1.38665
1.53271
1.65892
1.72059
1.708
1.63686
1.5362
1.41646
1.26795
1.10157
0.951591
0.840412
0.797618
0.833901
0.929055
1.03282
1.08695
1.11272
0.123286
0.115092
0.0684757
0.0472465
0.0480526
0.117475
0.312018
0.717916
1.12234
1.1749
1.21223
1.26863
1.39069
1.55786
1.6843
1.72735
1.69379
1.60032
1.47874
1.33553
1.15787
0.988717
0.844823
0.728236
0.726129
0.801228
0.924296
1.02772
1.07435
1.11389
0.12329
0.115182
0.0676179
0.0465045
0.0449766
0.100966
0.266063
0.636827
1.10279
1.15989
1.19606
1.25052
1.39162
1.5754
1.70052
1.7297
1.67901
1.57121
1.43623
1.25908
1.0712
0.906351
0.71459
0.619302
0.704888
0.797338
0.92846
1.02661
1.07677
1.13013
0.134493
0.134015
0.13354
0.0990784
0.0790808
0.123267
0.491515
1.01855
1.52234
2.31153
3.62709
5.14033
5.23861
5.30269
5.34692
5.38081
5.41464
5.45476
5.51103
5.59211
5.70095
5.83701
5.99494
6.16507
6.33397
6.49267
6.62351
6.72191
6.78735
6.80411
0.134494
0.134019
0.133549
0.0980478
0.0802739
0.16905
0.65344
1.26487
1.87285
2.76616
4.13364
5.06954
5.17478
5.24198
5.28483
5.31475
5.34253
5.37567
5.42418
5.49658
5.59675
5.72488
5.87638
6.04149
6.21032
6.36773
6.50188
6.60572
6.67811
6.70312
0.134497
0.134028
0.133568
0.09532
0.0821125
0.223481
0.772073
1.4177
2.17637
3.28819
4.77144
4.96143
5.06323
5.12325
5.15611
5.17315
5.18708
5.20313
5.23532
5.29169
5.37694
5.49233
5.63383
5.7941
5.96305
6.1218
6.26382
6.37876
6.46448
6.50343
0.1345
0.13404
0.12993
0.0918318
0.086394
0.282477
0.859919
1.53951
2.47153
3.81861
4.6596
4.82653
4.91025
4.94856
4.95824
4.95097
4.93972
4.93229
4.94283
4.97983
5.04888
5.15206
5.28549
5.44525
5.61514
5.78208
5.93625
6.06692
6.17035
6.22649
0.134505
0.134056
0.124739
0.0880958
0.0934891
0.34073
0.926142
1.65576
2.76142
4.24261
4.53361
4.65905
4.70098
4.70233
4.67267
4.62836
4.58306
4.54648
4.53345
4.55254
4.61022
4.70727
4.84238
5.00624
5.18455
5.36613
5.53778
5.68865
5.81332
5.8888
0.13451
0.134075
0.11909
0.0844358
0.103337
0.390044
0.975621
1.76131
2.9952
4.18198
4.39326
4.44307
4.40415
4.33739
4.24727
4.15583
4.07277
4.01166
3.98357
3.99545
4.05178
4.15642
4.30616
4.48466
4.68331
4.88694
5.08206
5.25763
5.40695
5.50365
0.134516
0.134097
0.113222
0.081011
0.1145
0.427332
1.00929
1.83551
3.09258
4.10683
4.23752
4.09169
3.89164
3.74399
3.56505
3.44055
3.34403
3.28576
3.26897
3.29686
3.37425
3.50246
3.6781
3.88789
4.1172
4.35002
4.57348
4.7772
4.95526
5.07548
0.134523
0.134122
0.107395
0.0780364
0.125137
0.451937
1.02185
1.84085
2.98825
3.91903
3.69296
3.272
2.87151
2.7001
2.4768
2.42894
2.39792
2.40058
2.44373
2.52978
2.66045
2.83284
3.03972
3.2777
3.53025
3.78329
4.02613
4.24933
4.45041
4.58935
0.134531
0.134151
0.101912
0.0752547
0.134523
0.464907
1.01385
1.75989
2.14675
2.9146
3.09586
2.27378
1.5541
1.56075
1.38467
1.45943
1.54722
1.65917
1.80107
1.97139
2.16944
2.38639
2.61644
2.85395
3.09754
3.33727
3.56776
3.78303
3.98114
4.11767
0.134538
0.13418
0.0966288
0.0724179
0.138878
0.463882
0.992142
1.68933
1.88946
1.91577
1.91625
0.412412
0.362938
0.439584
0.813805
1.00501
1.20454
1.41572
1.6407
1.87342
2.10717
2.33187
2.54002
2.72993
2.90803
3.08137
3.25394
3.42518
3.59327
3.70992
0.134545
0.134208
0.0914895
0.0697873
0.142298
0.45989
0.964875
1.65211
1.77025
1.34807
0.667454
0.164402
0.803437
1.08105
1.36718
1.64645
1.91375
2.15854
2.37519
2.55445
2.69626
2.80481
2.89203
2.97401
3.06504
3.17087
3.29085
3.37659
0.134552
0.134234
0.0865339
0.0670041
0.142883
0.448447
0.934696
1.66398
1.89692
1.95913
1.75999
0.492387
0.458809
0.558815
1.42072
1.67433
1.94608
2.19735
2.4118
2.58955
2.72932
2.82595
2.8836
2.9086
2.91388
2.91875
2.94
2.98646
3.05844
3.11147
0.134558
0.13425
0.0818862
0.0642804
0.142362
0.437715
0.910901
1.70041
2.69038
2.77188
1.83123
1.7938
1.61608
1.69691
2.24876
2.42569
2.59846
2.7387
2.84315
2.91651
2.9637
2.9834
2.96603
2.92383
2.8723
2.83263
2.81651
2.82957
2.87021
2.89892
0.134564
0.128898
0.0777465
0.0621221
0.142777
0.428301
0.887924
1.71437
2.78837
2.99087
2.77378
2.25462
2.4759
2.7019
2.82375
2.94081
3.02485
3.06678
3.07709
3.06434
3.0328
2.98347
2.90455
2.81324
2.73263
2.68017
2.66174
2.67361
2.70571
2.72293
0.13457
0.12317
0.0741797
0.0603558
0.143527
0.421843
0.873083
1.72775
2.66242
2.8856
2.89786
2.60762
2.62951
2.96455
3.10389
3.1956
3.2264
3.20096
3.14258
3.06277
2.96505
2.84932
2.71378
2.58804
2.50159
2.46532
2.47391
2.51111
2.55462
2.57092
0.134576
0.118433
0.0712048
0.0589439
0.14422
0.416976
0.861785
1.73879
2.56174
2.79569
2.86284
2.85675
2.85621
3.09193
3.22894
3.30132
3.29325
3.21221
3.09492
2.95451
2.79456
2.61111
2.42688
2.28651
2.21763
2.22184
2.27846
2.356
2.4181
2.43583
0.134581
0.114578
0.068775
0.0575997
0.143186
0.408331
0.843897
1.73018
2.47379
2.7151
2.81572
2.8674
2.91455
3.03444
3.16614
3.3371
3.28645
3.15035
2.97668
2.7782
2.55688
2.31268
2.09805
1.96444
1.93503
1.99923
2.11567
2.23416
2.30417
2.3184
0.134584
0.111684
0.0669111
0.0559315
0.138149
0.392158
0.807666
1.67908
2.39081
2.64029
2.76052
2.85202
2.7126
2.71468
2.88311
3.13292
3.23843
3.04925
2.8226
2.57066
2.28686
2.00686
1.78758
1.67806
1.70775
1.84486
2.02003
2.15745
2.21208
2.22354
0.13459
0.109795
0.0656206
0.0537578
0.127588
0.361633
0.740701
1.56855
2.31153
2.5715
2.69361
2.62662
2.3258
2.39469
2.68386
2.9965
3.1745
2.94065
2.66876
2.3648
2.03682
1.74582
1.5418
1.4754
1.58411
1.79543
1.99135
2.10704
2.14296
2.15877
0.134587
0.108379
0.0647259
0.0511434
0.109448
0.307616
0.644595
1.44747
2.24882
2.51946
2.63955
2.26618
2.01344
2.20342
2.62052
2.98872
3.12712
2.8678
2.56735
2.21373
1.86103
1.571
1.38928
1.38517
1.56201
1.79707
1.98007
2.07589
2.10717
2.12991
0.134768
0.134767
0.134893
0.0967489
0.0889295
0.287273
0.868352
1.46309
2.26006
3.68757
5.93513
7.20784
7.4742
7.65374
7.77797
7.87006
7.94931
8.03337
8.13254
8.25923
8.4177
8.60647
8.81769
9.03882
9.25412
9.44668
9.60677
9.71972
9.78325
9.78757
0.13477
0.134771
0.134873
0.0956614
0.101812
0.405011
1.11712
1.81434
2.72664
4.24627
6.43571
7.13829
7.39967
7.5703
7.68497
7.76624
7.83405
7.90637
7.99411
8.11071
8.26097
8.44397
8.65219
8.87286
9.08975
9.28799
9.45418
9.574
9.64679
9.66026
0.134773
0.134782
0.130982
0.0932369
0.121042
0.513229
1.27193
2.06924
3.22468
4.99027
6.61661
7.01086
7.252
7.39932
7.48877
7.54349
7.58456
7.63184
7.69633
7.79339
7.92857
8.10184
8.30643
8.5288
8.75227
8.96362
9.14316
9.28093
9.37288
9.40415
0.134778
0.134798
0.125877
0.0909258
0.149755
0.613141
1.38747
2.30412
3.7357
5.74182
6.48619
6.836
7.03286
7.1369
7.18016
7.18976
7.1898
7.19958
7.23472
7.30919
7.42944
7.59588
7.80181
8.03257
8.27252
8.50334
8.70486
8.86898
8.98772
9.04255
0.134785
0.13482
0.120126
0.0896995
0.18806
0.705161
1.49434
2.54756
4.21628
5.80158
6.32963
6.6107
6.72762
6.75149
6.72044
6.66552
6.61383
6.58309
6.59103
6.64964
6.76465
6.93553
7.15377
7.4072
7.67319
7.9313
8.16443
8.36157
8.51281
8.595
0.134792
0.134847
0.114059
0.0899617
0.230868
0.784029
1.5931
2.7797
4.638
5.69327
6.13642
6.28301
6.25731
6.15976
6.01979
5.89121
5.79327
5.73974
5.74216
5.80784
5.9399
6.13562
6.38495
6.67474
6.97883
7.27354
7.5454
7.78063
7.96811
8.07975
0.134801
0.13488
0.108223
0.0918585
0.272256
0.844592
1.67507
2.95743
4.8449
5.56474
5.892
5.7632
5.47125
5.21188
4.93124
4.77006
4.68043
4.65746
4.70222
4.81625
4.9988
5.24404
5.54346
5.87828
6.22612
6.56242
6.87367
7.14693
7.37083
7.51151
0.134811
0.134917
0.102663
0.0950391
0.308267
0.885105
1.72963
3.0681
4.78093
5.41907
5.37817
4.87178
4.18329
3.80113
3.38538
3.35953
3.38814
3.47327
3.61837
3.82314
4.08439
4.39564
4.7436
5.11328
5.48799
5.85006
6.18587
6.4846
6.73656
6.89938
0.134821
0.134957
0.0977787
0.0983855
0.335909
0.907551
1.76055
3.1119
4.71265
5.18997
4.79884
3.60352
2.39022
2.11671
2.01216
2.15055
2.32947
2.55517
2.82643
3.13679
3.47975
3.84201
4.2092
4.57157
4.92791
5.27009
5.59032
5.88095
6.13237
6.29677
0.134832
0.134992
0.0930286
0.101779
0.354039
0.913231
1.76362
3.11335
4.57524
4.58687
3.83484
1.07656
0.648361
0.585677
1.35063
1.61239
1.91668
2.25807
2.62419
3.00002
3.37193
3.72563
4.05038
4.34766
4.62502
4.88995
5.14485
5.38711
5.60703
5.75242
0.134844
0.135015
0.0884731
0.104685
0.368017
0.913929
1.75277
3.13082
4.36406
4.06986
3.08686
0.644089
0.484976
0.329049
1.43387
1.78886
2.17936
2.57659
2.96163
3.31936
3.64068
3.91817
4.14939
4.34285
4.51042
4.66972
4.83257
5.00215
5.16979
5.28217
0.134855
0.129648
0.0838789
0.106969
0.375248
0.904239
1.73257
3.17532
4.10971
4.29281
2.64769
1.23715
0.828735
0.924315
2.26886
2.59084
2.93049
3.25335
3.54067
3.79258
4.00412
4.17245
4.29327
4.38062
4.4483
4.51421
4.59313
4.6928
4.8057
4.88139
0.134867
0.122642
0.0798539
0.109173
0.380621
0.896206
1.70877
3.14489
3.86023
4.27425
3.42121
2.7433
2.69141
2.66805
3.29155
3.49465
3.69555
3.87346
4.02395
4.14721
4.24244
4.30728
4.33518
4.33795
4.33422
4.33916
4.36551
4.41883
4.49065
4.53575
0.134878
0.116707
0.0764641
0.111125
0.384374
0.887159
1.69349
3.02078
3.66601
4.07376
4.1948
3.33051
3.35681
3.92462
3.99568
4.09352
4.18343
4.24448
4.28218
4.29963
4.29696
4.27274
4.22278
4.16699
4.12315
4.10357
4.11427
4.15196
4.20395
4.22929
0.134889
0.111515
0.0735502
0.112941
0.387037
0.87911
1.68553
2.9172
3.5148
3.9165
4.09715
3.48651
3.38467
3.91346
4.29349
4.36842
4.40399
4.38716
4.33988
4.27072
4.18287
4.07684
3.96178
3.86891
3.81548
3.80619
3.83456
3.88422
3.93435
3.94914
0.134898
0.107138
0.0710327
0.114163
0.387516
0.868853
1.67513
2.82889
3.39104
3.78537
3.98766
3.48932
3.35221
3.56265
3.81644
4.15405
4.46216
4.37757
4.25381
4.10365
3.93376
3.75056
3.58764
3.4813
3.44954
3.48018
3.55085
3.62814
3.68257
3.69018
0.134907
0.103562
0.0689233
0.113726
0.383356
0.85069
1.64668
2.74833
3.28339
3.6702
3.88144
3.3684
3.137
3.19875
3.47969
3.93506
4.40063
4.27376
4.07316
3.84225
3.59037
3.34442
3.15759
3.06918
3.08699
3.18232
3.30426
3.40652
3.45683
3.45563
0.134914
0.100832
0.0670158
0.110128
0.370609
0.814782
1.58058
2.66855
3.18404
3.56327
3.77907
3.07441
2.77203
2.8907
3.30931
3.84889
4.28133
4.12059
3.84356
3.53507
3.20884
2.92575
2.74536
2.70526
2.79825
2.96592
3.12873
3.23192
3.26195
3.2533
0.134916
0.0988927
0.0652508
0.10204
0.34254
0.747205
1.45944
2.58776
3.09289
3.46328
3.45018
2.59984
2.38008
2.67061
3.25304
3.83429
4.1679
3.96308
3.61774
3.23472
2.85811
2.56667
2.42301
2.45973
2.64129
2.85902
3.02094
3.09649
3.10605
3.09347
0.13492
0.0974883
0.0639685
0.0883089
0.287949
0.641717
1.31846
2.51768
3.02494
3.38613
2.96434
2.19439
2.13501
2.64467
3.43427
4.07473
4.19705
3.86332
3.47089
3.03075
2.6224
2.33604
2.24672
2.35702
2.59357
2.81715
2.95866
3.01372
3.01456
3.00141
0.134784
0.13481
0.133008
0.0955851
0.135553
0.554721
1.24441
2.05516
3.42818
5.74975
7.78893
8.45137
8.91311
9.24125
9.48103
9.66533
9.82029
9.96846
10.1247
10.3018
10.5054
10.7336
10.9783
11.2263
11.4615
11.6678
11.8319
11.9451
12.0026
11.998
0.134787
0.134818
0.131123
0.0957671
0.179364
0.744656
1.58007
2.52239
4.01421
6.30253
7.75613
8.39644
8.83775
9.14714
9.36875
9.53526
9.67329
9.80613
9.94946
10.1168
10.3143
10.5403
10.7864
11.0386
11.2802
11.4941
11.6666
11.7899
11.8565
11.861
0.134791
0.134834
0.126591
0.0964304
0.234246
0.886616
1.80802
2.94641
4.70532
6.79227
7.67823
8.27594
8.67736
8.94719
9.12891
9.25628
9.35767
9.45803
9.57491
9.72281
9.90857
10.1309
10.3808
10.6434
10.9001
11.132
11.3259
11.4711
11.5592
11.5831
0.134799
0.134859
0.121125
0.100398
0.306946
1.01909
2.00291
3.34758
5.39518
6.74712
7.56258
8.0963
8.43252
8.63547
8.7504
8.8149
8.86134
8.91646
8.99866
9.12459
9.30039
9.52415
9.78574
10.0681
10.3505
10.6115
10.8376
11.0142
11.1342
11.1845
0.134808
0.134896
0.11547
0.109757
0.392105
1.14803
2.20028
3.74167
5.5899
6.67652
7.40633
7.84781
8.08013
8.17769
8.19226
8.17062
8.14973
8.15606
8.20912
8.32265
8.50089
8.73967
9.02636
9.34124
9.66057
9.96226
10.2283
10.4443
10.6029
10.6841
0.134819
0.134945
0.110224
0.125262
0.479341
1.26755
2.39214
4.12076
5.57979
6.56996
7.19917
7.49512
7.55731
7.49515
7.37398
7.25648
7.17742
7.1552
7.20493
7.33308
7.53907
7.81464
8.14377
8.50424
8.8703
9.21904
9.5292
9.78929
9.98913
10.1027
0.134832
0.135008
0.105754
0.145896
0.559529
1.37082
2.55907
4.26647
5.52938
6.42438
6.92512
6.96394
6.74535
6.4704
6.20446
6.02807
5.943
5.94772
6.04435
6.22953
6.49613
6.83091
7.21514
7.62542
8.0386
8.42996
8.78001
9.08057
9.31871
9.46208
0.134846
0.13508
0.10196
0.169569
0.627398
1.45048
2.69339
4.27052
5.43882
6.23857
6.56912
6.14287
5.5347
5.07167
4.73527
4.61131
4.6118
4.71558
4.91231
5.19097
5.53959
5.9378
6.37013
6.81534
7.2515
7.66104
8.03126
8.35533
8.61983
8.78411
0.134862
0.135152
0.0988105
0.19143
0.679548
1.50661
2.79556
4.2259
5.31047
6.0061
6.04972
5.10303
4.03305
3.49047
3.34503
3.39672
3.54923
3.79276
4.11338
4.49425
4.91313
5.34635
5.78642
6.21471
6.62321
7.0069
7.36098
7.6773
7.94205
8.10928
0.134879
0.132336
0.0961546
0.210605
0.711256
1.53534
2.85806
4.13805
5.1381
5.72894
5.45814
4.00617
2.92585
2.45324
2.67247
2.84757
3.12763
3.48395
3.89095
4.32042
4.74786
5.15595
5.54104
5.89355
6.21942
6.52819
6.82071
7.09245
7.32884
7.48009
0.134897
0.124851
0.0941288
0.228346
0.738283
1.55231
2.89137
4.01995
4.93179
5.4597
5.00982
3.62002
2.67928
2.2341
2.76746
3.0351
3.38504
3.77439
4.17548
4.56278
4.92372
5.24566
5.52599
5.76759
5.98697
6.19445
6.40033
6.60456
6.7927
6.91426
0.134915
0.117925
0.0923164
0.244104
0.755665
1.55743
2.85893
3.88856
4.71316
5.228
5.00935
3.84163
3.01615
2.80407
3.49952
3.75478
4.05388
4.36237
4.66248
4.94119
5.18839
5.39775
5.56584
5.69867
5.81621
5.92908
6.05319
6.18895
6.32356
6.41043
0.134933
0.111843
0.0909636
0.256078
0.763669
1.55614
2.82023
3.76102
4.50606
5.01287
5.16469
4.42138
4.31516
4.37555
4.3885
4.52704
4.70728
4.88956
5.06519
5.22269
5.355
5.45848
5.52995
5.57661
5.61704
5.66341
5.72848
5.81224
5.90326
5.95858
0.13495
0.106558
0.0896857
0.264673
0.767717
1.55282
2.78282
3.64734
4.32844
4.81605
5.05982
4.27604
4.02091
4.53258
4.92866
5.01509
5.11548
5.20293
5.27492
5.32817
5.36066
5.3724
5.36272
5.34822
5.34291
5.35614
5.39316
5.45072
5.51382
5.54504
0.134964
0.101957
0.0886073
0.271722
0.769176
1.54864
2.74919
3.54978
4.18122
4.64836
4.91747
4.08061
3.85937
4.14533
4.50444
4.88841
5.29923
5.3154
5.30043
5.26167
5.20436
5.13293
5.06041
5.00803
4.98678
5.0004
5.03981
5.09399
5.14323
5.15696
0.134974
0.097977
0.0874967
0.275945
0.766561
1.53836
2.71803
3.46517
4.0575
4.50427
4.75996
3.79084
3.60466
3.73912
4.07971
4.6213
5.24571
5.28152
5.18123
5.05287
4.90935
4.76367
4.6486
4.58581
4.57982
4.62002
4.68477
4.74805
4.78921
4.78956
0.134977
0.0947222
0.0860731
0.27521
0.755156
1.51186
2.68554
3.3878
3.94851
4.37464
4.28037
3.46603
3.25808
3.41543
3.91018
4.59514
5.22292
5.14905
4.95953
4.74091
4.51298
4.31355
4.18314
4.14107
4.17838
4.26417
4.36031
4.43093
4.45938
4.44766
0.134974
0.0921539
0.083472
0.265796
0.725942
1.45225
2.64698
3.31226
3.84791
4.25107
3.82659
3.04705
2.88694
3.22062
3.90586
4.67441
5.18562
4.96215
4.683
4.37636
4.07939
3.85337
3.74015
3.74889
3.84873
3.98275
4.09514
4.15673
4.16418
4.1424
0.134974
0.0902339
0.0793305
0.242884
0.664644
1.33878
2.59948
3.23768
3.75664
4.12974
3.27392
2.56363
2.57216
3.15719
4.02866
4.8012
5.07483
4.77381
4.41335
4.02809
3.6868
3.46595
3.40237
3.48211
3.64186
3.79762
3.89747
3.93463
3.92315
3.89107
0.134962
0.0889826
0.0737584
0.199117
0.557156
1.18689
2.54737
3.17456
3.69064
4.0356
2.74303
2.20052
2.45551
3.36881
4.52357
5.26365
5.00722
4.65648
4.23673
3.7959
3.43745
3.23701
3.2232
3.357
3.54703
3.69977
3.7818
3.80097
3.78
3.74177
0.134796
0.134838
0.129468
0.100686
0.244165
0.857561
1.70563
2.92196
4.9873
7.3119
8.42618
9.24116
9.84264
10.2934
10.6391
10.9145
11.1474
11.3621
11.5746
11.7982
12.0386
12.2946
12.5584
12.8175
13.0572
13.2627
13.4223
13.5284
13.5773
13.5689
0.134799
0.134849
0.127336
0.105832
0.332726
1.10699
2.13364
3.49368
5.61412
7.3409
8.41235
9.19434
9.76792
10.1936
10.5156
10.7686
10.9814
11.1789
11.3781
11.593
11.8298
12.0867
12.3552
12.6217
12.8703
13.0854
13.2548
13.3709
13.4301
13.4304
0.134805
0.134876
0.122781
0.11616
0.429706
1.26556
2.44983
4.05436
5.97423
7.34279
8.3502
9.07856
9.60193
9.97807
10.2511
10.4571
10.6273
10.7888
10.9607
11.1581
11.3874
11.6464
11.925
12.2079
12.4767
12.7143
12.9072
13.0471
13.1301
13.1497
0.134815
0.134923
0.117863
0.138045
0.552336
1.43938
2.71159
4.4256
6.05011
7.31764
8.24502
8.89954
9.34725
9.6451
9.83992
9.9728
10.0796
10.1905
10.3273
10.5049
10.7293
10.9966
11.2943
11.604
11.9045
12.176
12.4038
12.5792
12.6958
12.7423
0.134828
0.134996
0.113785
0.174342
0.688767
1.61952
2.91961
4.59235
6.09805
7.25948
8.09446
8.65125
8.98905
9.17134
9.25426
9.2894
9.31995
9.37626
9.4811
9.6481
9.87956
10.1681
10.4974
10.8452
11.1874
11.5018
11.7723
11.9906
12.1469
12.225
0.134844
0.135111
0.111385
0.222901
0.823186
1.79259
3.10915
4.713
6.10329
7.15979
7.89053
8.31271
8.48865
8.5077
8.44597
8.37136
8.33133
8.35004
8.44635
8.62721
8.88817
9.21608
9.58998
9.98434
10.373
10.7331
11.0489
11.3112
11.5084
11.6188
0.134864
0.135281
0.111348
0.278634
0.94489
1.94618
3.26335
4.78144
6.06028
7.01367
7.62313
7.84751
7.78754
7.59887
7.38243
7.22094
7.14842
7.17616
7.308
7.53867
7.85541
8.23822
8.66206
9.10017
9.52811
9.92518
10.2781
10.5769
10.8102
10.9487
0.134886
0.135491
0.113479
0.335601
1.04779
2.07357
3.37352
4.79588
5.96866
6.82086
7.28523
7.21997
6.85697
6.46799
6.14383
5.96861
5.93601
6.03273
6.24501
6.5544
6.93936
7.37882
7.83788
8.29564
8.73588
9.1443
9.51219
9.82857
10.0844
10.2411
0.134911
0.129797
0.117556
0.388011
1.12907
2.17359
3.43889
4.76103
5.83328
6.58547
6.87914
6.46422
5.82212
5.33385
4.99529
4.90154
4.97775
5.1881
5.50263
5.89124
6.32896
6.78581
7.23735
7.66902
8.07781
8.45662
8.80438
9.11301
9.36888
9.52877
0.134938
0.122453
0.122703
0.43077
1.18393
2.24784
3.46561
4.68627
5.66217
6.32035
6.4382
5.83059
5.06506
4.60279
4.34709
4.36684
4.55934
4.86701
5.24774
5.66837
6.09949
6.51642
6.90577
7.26309
7.59545
7.90642
8.19885
8.46891
8.70025
8.84766
0.134965
0.116045
0.128868
0.469199
1.22887
2.30359
3.4642
4.58531
5.47022
6.05882
6.12451
5.53231
4.84865
4.4849
4.3449
4.45655
4.70876
5.03914
5.40628
5.78195
6.14273
6.47204
6.76329
7.01813
7.25222
7.47438
7.69212
7.90386
8.09335
8.21624
0.134989
0.110235
0.13495
0.499084
1.25596
2.34595
3.44539
4.47304
5.27557
5.82367
5.97624
5.57778
5.11644
4.88189
4.81887
4.94708
5.17087
5.44221
5.72969
6.00842
6.26355
6.48729
6.676
6.83206
6.97292
7.10955
7.25298
7.40372
7.54286
7.63595
0.135005
0.105051
0.140683
0.520382
1.27326
2.37861
3.41866
4.36248
5.09379
5.61172
5.85306
5.61762
5.09295
5.37841
5.36456
5.4607
5.62327
5.8095
5.99868
6.17344
6.32444
6.44845
6.54671
6.62095
6.68852
6.75938
6.84512
6.94493
7.04068
7.10507
0.135006
0.100417
0.145564
0.535829
1.28352
2.40601
3.39042
4.26171
4.93481
5.42457
5.70626
5.01281
4.61316
4.86
5.27711
5.65619
5.90733
6.02596
6.12638
6.20508
6.26174
6.2991
6.32066
6.33459
6.35502
6.38795
6.44082
6.50887
6.57447
6.61488
0.129414
0.0965212
0.149293
0.546789
1.28854
2.4295
3.36341
4.17308
4.79993
5.26301
5.54287
4.49096
4.24822
4.41964
4.77241
5.26219
5.87597
6.08987
6.10426
6.09171
6.06151
6.02276
5.98373
5.96135
5.96182
5.9849
6.02896
6.0837
6.1305
6.14765
0.12441
0.0932479
0.151402
0.551047
1.28385
2.4483
3.3371
4.09445
4.68411
5.12037
4.86096
4.02923
3.87805
4.08125
4.56144
5.23322
5.92141
6.02657
5.95119
5.84837
5.73656
5.63097
5.55567
5.52168
5.52747
5.56436
5.61639
5.6668
5.69806
5.69725
0.120348
0.0904956
0.150469
0.544902
1.26173
2.45961