/*--------------------------------*- C++ -*----------------------------------*\
| =========                 |                                                 |
| \\      /  F ield         | OpenFOAM: The Open Source CFD Toolbox           |
|  \\    /   O peration     | Version:  2512                                  |
|   \\  /    A nd           | Website:  www.openfoam.com                      |
|    \\/     M anipulation  |                                                 |
\*---------------------------------------------------------------------------*/
FoamFile
{
    version     2.0;
    format      ascii;
    arch        "LSB;label=32;scalar=64";
    class       volScalarField;
    location    "120";
    object      nut;
}
// * * * * * * * * * * * * * * * * * * * * * * * * * * * * * * * * * * * * * //

dimensions      [0 2 -1 0 0 0 0];

internalField   nonuniform List<scalar> 
84826
(
0.0144195
0.014177
0.0139456
0.0137243
0.0135124
0.0133094
0.0131152
0.0129292
0.0127523
0.012583
0.0124224
0.012266
0.0121214
0.0119878
0.0118539
0.0117234
0.0115946
0.0114694
0.0113479
0.0112295
0.0111147
0.0110036
0.0108962
0.0107929
0.010694
0.0106006
0.0105146
0.0104371
0.0103504
0.0102195
0.0144195
0.0141771
0.0139457
0.0137245
0.0135127
0.01331
0.0131162
0.0129308
0.0127544
0.0125856
0.0124258
0.0122701
0.0121263
0.0119932
0.0118596
0.0117291
0.0116001
0.0114747
0.011353
0.0112347
0.0111193
0.0110077
0.0108999
0.0107962
0.0106971
0.0106035
0.0105172
0.0104376
0.0103401
0.010325
0.0144195
0.0141771
0.0139458
0.0137247
0.0135132
0.0133107
0.0131169
0.0129323
0.0127572
0.0125897
0.0124315
0.0122771
0.0121351
0.0120035
0.0118704
0.0117399
0.0116104
0.0114846
0.0113632
0.0112449
0.0111295
0.0110175
0.0109095
0.0108059
0.0107074
0.0106148
0.0105295
0.010449
0.0103474
0.0106308
0.0144195
0.0141771
0.0139459
0.0137249
0.0135135
0.0133113
0.0131181
0.0129343
0.0127605
0.012595
0.0124396
0.012289
0.0121498
0.0120194
0.0118871
0.0117568
0.0116268
0.0115006
0.0113789
0.0112606
0.0111454
0.0110334
0.0109241
0.0108193
0.0107203
0.0106281
0.0105436
0.0104615
0.0103741
0.0112025
0.0144195
0.0141771
0.0139459
0.013725
0.0135138
0.0133119
0.013119
0.0129363
0.0127644
0.0126016
0.0124475
0.0123231
0.0121894
0.0120384
0.0119077
0.0117777
0.0116474
0.0115208
0.011399
0.0112807
0.0111657
0.0110538
0.0109447
0.0108405
0.0107433
0.0106542
0.0105734
0.0104929
0.0104589
0.0120706
0.0144195
0.0141771
0.0139459
0.013725
0.0135141
0.0133123
0.01312
0.0129386
0.0127688
0.0126059
0.0124549
0.0123162
0.0121866
0.0120606
0.0119319
0.0118022
0.0116716
0.011546
0.0114263
0.0113102
0.0111968
0.0110849
0.0109762
0.0108709
0.0107687
0.0106741
0.0105911
0.0105085
0.0105017
0.0127862
0.0144195
0.0141771
0.0139459
0.0137251
0.0135142
0.0133128
0.0131212
0.0129408
0.0127713
0.0126109
0.0108189
0.0102726
0.0117811
0.012136
0.0120229
0.0119149
0.0118946
0.0119289
0.011985
0.0120403
0.0120706
0.0120405
0.0119092
0.0116915
0.0114957
0.0113187
0.0111763
0.0110627
0.0109869
0.0130203
0.0144195
0.0141771
0.0139458
0.0137252
0.0135143
0.0133131
0.0131222
0.0129426
0.0127721
0.011951
0.00473307
0.00351689
0.00424263
0.00540466
0.0150715
0.0140102
0.0140137
0.0146094
0.015057
0.0152631
0.0153223
0.0152721
0.0151221
0.0148866
0.0146198
0.014601
0.0151429
0.0164575
0.0180539
0.0177602
0.0144195
0.014177
0.0139458
0.0137251
0.0135143
0.0133134
0.013123
0.0129449
0.0127749
0.00819647
0.00309378
0.00220806
0.00268296
0.00610291
0.0208554
0.0217577
0.0234016
0.0247409
0.0251267
0.0248372
0.0242887
0.023705
0.0231922
0.0228184
0.0226215
0.0226765
0.0228342
0.0236268
0.0240022
0.0300818
0.0144195
0.0141769
0.0139456
0.0137247
0.0135139
0.013313
0.0131229
0.0129441
0.0127737
0.0061769
0.00209372
0.00085901
0.00193655
0.00261522
0.0235409
0.0252436
0.0268745
0.0281779
0.0286578
0.0285118
0.0281149
0.027658
0.0272285
0.0269071
0.0267352
0.0267764
0.0269008
0.0276931
0.0274626
0.0323983
0.0144194
0.0141768
0.0139454
0.0137245
0.0135135
0.0133127
0.0131229
0.0129441
0.0127738
0.00614777
0.00197532
0.00137289
0.00990614
0.0306723
0.0286165
0.0283178
0.0283408
0.0279692
0.0273102
0.0265915
0.0258717
0.0251473
0.0244512
0.0238293
0.0233904
0.0230659
0.0234282
0.0230998
0.0270398
0.0144194
0.0141768
0.0139456
0.0137249
0.0135139
0.0133131
0.0131231
0.0129449
0.0127751
0.00808695
0.00251642
0.000967504
0.0011276
0.00281106
0.0415679
0.0379331
0.0372483
0.0372827
0.036597
0.0354253
0.034059
0.0326336
0.0311287
0.0296055
0.0280646
0.0265939
0.0250321
0.0240772
0.0222545
0.0232688
0.0144194
0.014177
0.0139459
0.0137252
0.0135143
0.0133131
0.0131223
0.0129429
0.0127725
0.0116841
0.00390271
0.00281876
0.00316964
0.00396692
0.0142325
0.0147665
0.0153179
0.0159394
0.0166386
0.0174207
0.0184035
0.0194862
0.0206161
0.0217502
0.0228501
0.0239292
0.0249543
0.0254269
0.0243186
0.0234579
0.0144194
0.0141771
0.0139459
0.0137251
0.0135142
0.0133128
0.0131213
0.0129411
0.0127716
0.0126115
0.0103412
0.00930632
0.0102811
0.012175
0.0120628
0.0119464
0.0118354
0.0117382
0.0116597
0.0116126
0.011629
0.0117272
0.0119264
0.0122468
0.012709
0.0133224
0.0140881
0.015007
0.0160362
0.0172399
0.0144195
0.0141771
0.0139459
0.013725
0.013514
0.0133123
0.0131201
0.0129388
0.0127694
0.0126067
0.0124565
0.0123199
0.0121941
0.0120729
0.0119488
0.0118226
0.011695
0.0115712
0.0114537
0.011341
0.0112349
0.0111381
0.0110541
0.0109889
0.0109532
0.010961
0.0110324
0.011189
0.0114837
0.0125056
0.0144195
0.0141771
0.0139459
0.013725
0.0135138
0.0133119
0.0131191
0.0129365
0.0127648
0.0126025
0.0124486
0.0123243
0.0121922
0.0120448
0.0119176
0.0117906
0.0116631
0.0115395
0.011421
0.0113063
0.0111957
0.0110896
0.010988
0.0108919
0.0108018
0.0107199
0.0106473
0.0105779
0.0107554
0.013784
0.0144195
0.0141771
0.0139458
0.0137249
0.0135135
0.0133113
0.0131181
0.0129344
0.0127608
0.0125956
0.0124409
0.0122916
0.0121544
0.0120266
0.0118971
0.0117693
0.0116418
0.0115182
0.0113994
0.0112844
0.0111732
0.0110663
0.0109634
0.010865
0.010771
0.0106814
0.0105914
0.0104805
0.0109602
0.015158
0.0144195
0.0141771
0.0139458
0.0137247
0.0135131
0.0133107
0.0131169
0.0129323
0.0127573
0.0125901
0.0124323
0.0122789
0.0121384
0.012009
0.0118782
0.01175
0.0116228
0.0114996
0.011381
0.0112663
0.0111554
0.0110486
0.0109458
0.0108473
0.0107531
0.0106628
0.0105704
0.010452
0.0109101
0.0147442
0.0144195
0.0141771
0.0139457
0.0137245
0.0135127
0.01331
0.0131162
0.0129307
0.0127543
0.0125856
0.0124261
0.0122711
0.0121286
0.0119975
0.0118659
0.0117376
0.011611
0.0114882
0.0113695
0.011255
0.0111442
0.0110375
0.0109349
0.0108366
0.0107423
0.0106521
0.0105612
0.0104441
0.0106086
0.0131304
0.0144195
0.0141771
0.0139457
0.0137244
0.0135125
0.0133094
0.0131152
0.0129291
0.0127521
0.0125828
0.0124224
0.0122667
0.0121232
0.0119914
0.0118595
0.0117312
0.0116047
0.0114821
0.0113636
0.0112492
0.0111386
0.011032
0.0109295
0.0108311
0.0107368
0.0106467
0.0105584
0.0104562
0.0103838
0.011391
0.12312
0.114074
0.106851
0.100895
0.0958514
0.0914889
0.087657
0.0842303
0.0810706
0.0781908
0.0755848
0.0732631
0.0712028
0.0694348
0.0679211
0.0665985
0.0653853
0.0642963
0.0633072
0.0624014
0.0615601
0.060785
0.0600801
0.0594531
0.0589178
0.058495
0.058272
0.0585441
0.0633737
0.0933795
0.123119
0.114071
0.106845
0.100883
0.0958328
0.0914569
0.087602
0.0841523
0.0809498
0.0780154
0.0753495
0.0729683
0.0708721
0.0690876
0.0675764
0.0662602
0.0650483
0.0639644
0.0629785
0.0620782
0.0612555
0.0604959
0.0598035
0.0591859
0.0586572
0.0582416
0.0580505
0.0587726
0.0679227
0.124648
0.123122
0.114065
0.106834
0.100863
0.0957962
0.091391
0.0874805
0.0839816
0.0806851
0.0776298
0.0748301
0.0723222
0.0701478
0.068331
0.0668227
0.0655159
0.0643004
0.0632274
0.0622527
0.0613742
0.0605848
0.0598743
0.0592278
0.0586555
0.0581713
0.0578063
0.0577364
0.0593825
0.0759689
0.157433
0.123127
0.11406
0.106818
0.100835
0.0957449
0.0912999
0.0873209
0.083728
0.0802806
0.077025
0.0739515
0.0712372
0.068903
0.0670355
0.0655259
0.0642235
0.0630043
0.0619291
0.0609516
0.060078
0.0593093
0.0586493
0.0580907
0.0576158
0.057224
0.0569561
0.0571168
0.0603985
0.0879402
0.193804
0.123124
0.11406
0.106802
0.1008
0.0956818
0.0911846
0.0871173
0.0833869
0.0797203
0.0761086
0.0602178
0.0590048
0.0671784
0.065201
0.0636607
0.0623251
0.0610676
0.0599706
0.0590005
0.058165
0.0574573
0.0568763
0.0564115
0.0560468
0.0557617
0.0556071
0.056049
0.0615017
0.101839
0.232643
0.123122
0.114059
0.106791
0.100763
0.0956108
0.0910542
0.0868789
0.0829628
0.0789668
0.0574767
0.0388868
0.0427043
0.0500369
0.0617219
0.0600183
0.0585453
0.0571248
0.0558359
0.0546711
0.0536491
0.0527699
0.0520435
0.0514798
0.0510871
0.0508676
0.0507963
0.0512245
0.0568945
0.101674
0.252738
0.12312
0.114051
0.106781
0.100735
0.0955399
0.0909208
0.0866238
0.0824523
0.068531
0.0376063
0.0237152
0.022968
0.0336163
0.0449866
0.0503986
0.0484277
0.0466484
0.0450467
0.0436094
0.0423249
0.0411892
0.0402093
0.0393926
0.0387577
0.038345
0.0382067
0.0384879
0.0412447
0.0674157
0.176917
0.123119
0.114044
0.106766
0.100711
0.0954844
0.0908061
0.0863829
0.0819054
0.048131
0.0235256
0.0168158
0.012371
0.0156178
0.0189293
0.0192094
0.0185528
0.0184842
0.0187753
0.0193283
0.0200969
0.0210562
0.0221966
0.0235287
0.0250886
0.0269457
0.0291976
0.0319716
0.0357084
0.0451037
0.082561
0.123117
0.114037
0.106752
0.100685
0.0954412
0.0907134
0.0861901
0.0799618
0.036029
0.0143275
0.00803292
0.00491214
0.00738772
0.010483
0.0247259
0.0286539
0.0326576
0.036638
0.040546
0.0443685
0.0480475
0.0515041
0.0546907
0.0576121
0.06033
0.0628242
0.065036
0.0671893
0.0716108
0.0878565
0.12311
0.114024
0.106732
0.100655
0.0953966
0.0906396
0.0860609
0.0707048
0.0281521
0.010517
0.00392043
0.00153969
0.00474797
0.0171319
0.0553301
0.0653547
0.0733191
0.0791488
0.0837171
0.0875495
0.0908519
0.0936949
0.0960963
0.0980265
0.0994313
0.10025
0.100529
0.100575
0.102759
0.113753
0.123104
0.114014
0.106719
0.100641
0.095381
0.0906424
0.0860625
0.0704733
0.0280411
0.0105009
0.00365557
0.024084
0.0874111
0.092455
0.0960972
0.0986969
0.101017
0.103264
0.105429
0.107466
0.109357
0.111075
0.112586
0.113833
0.114836
0.115782
0.118842
0.130151
0.123104
0.114028
0.106732
0.100672
0.0954225
0.0907088
0.086176
0.0791677
0.035689
0.014243
0.00504825
0.00183859
0.00964387
0.0620478
0.0733116
0.0846437
0.09389
0.10123
0.10701
0.11158
0.115098
0.117688
0.1194
0.120332
0.120582
0.12023
0.119395
0.118279
0.117702
0.124061
0.123102
0.114042
0.106756
0.100707
0.0954738
0.0907863
0.0863466
0.081837
0.0474186
0.0230941
0.011269
0.00860915
0.0158098
0.0162677
0.0184234
0.022609
0.0286053
0.0355431
0.0422246
0.0498332
0.0576725
0.0654654
0.0728396
0.079637
0.0857141
0.0909347
0.0952186
0.0985626
0.101329
0.10642
0.123109
0.114047
0.106777
0.100726
0.0955238
0.0908937
0.0865783
0.0823764
0.0668132
0.0366842
0.0228234
0.0214867
0.029808
0.0406944
0.0453451
0.0405618
0.0363045
0.0331067
0.03142
0.0312697
0.0324176
0.0346036
0.0376354
0.0414627
0.0461322
0.0516658
0.0576544
0.0636492
0.0702199
0.0840413
0.12312
0.114056
0.106786
0.100752
0.0955921
0.0910236
0.0868286
0.0828809
0.0788258
0.0554214
0.0370125
0.0382306
0.0439319
0.0605013
0.0603897
0.0593529
0.0582512
0.0570917
0.0557749
0.0542451
0.052584
0.0509586
0.0494885
0.0481798
0.0472357
0.0471143
0.048218
0.0517891
0.0668472
0.130703
0.123124
0.114057
0.106795
0.100788
0.0956612
0.0911514
0.0870644
0.0833036
0.0795921
0.0759121
0.0566585
0.0529969
0.062336
0.0652683
0.0640591
0.0630794
0.0621458
0.0612697
0.0604127
0.0595622
0.0586949
0.057806
0.0568883
0.0559276
0.0549223
0.0539791
0.0540212
0.0654783
0.134972
0.313582
0.123126
0.114056
0.106811
0.100822
0.0957232
0.0912654
0.0872674
0.0836462
0.0801592
0.0768413
0.0736956
0.0709293
0.0685983
0.0668546
0.0655188
0.0644086
0.0633626
0.0624202
0.0615236
0.060666
0.0598388
0.0590388
0.0582576
0.0574882
0.0567231
0.056102
0.0577847
0.0831545
0.187141
0.399012
0.123121
0.114061
0.106826
0.10085
0.0957739
0.0913561
0.0874275
0.0839027
0.0805712
0.0774727
0.0746176
0.0720535
0.0698752
0.0680977
0.0666659
0.0654512
0.0643166
0.0632975
0.0623406
0.0614352
0.0605714
0.0597433
0.0589419
0.0581591
0.0573883
0.0567917
0.0587236
0.0854707
0.18585
0.384502
0.123118
0.114067
0.106837
0.100869
0.0958098
0.0914216
0.0875492
0.0840754
0.0808414
0.0778694
0.0751637
0.0727498
0.0706363
0.068859
0.0673809
0.0661105
0.0649368
0.0638707
0.0628769
0.0619386
0.0610451
0.0601902
0.0593657
0.0585602
0.0577636
0.0570941
0.0581132
0.0768468
0.151001
0.313059
0.123119
0.114071
0.106843
0.10088
0.0958285
0.0914536
0.0876045
0.0841543
0.0809644
0.0780495
0.0754072
0.0730548
0.0709748
0.0692039
0.0677067
0.0664109
0.0652174
0.0641292
0.0631173
0.0621635
0.0612562
0.0603902
0.059556
0.0587424
0.057932
0.0571895
0.0571334
0.0662736
0.104179
0.213895
0.134469
0.13388
0.133112
0.132197
0.131157
0.130015
0.128807
0.127445
0.126041
0.124605
0.123153
0.121705
0.120222
0.118804
0.117478
0.116246
0.115101
0.113907
0.112808
0.11177
0.110776
0.109829
0.10894
0.108128
0.107413
0.106862
0.106797
0.110395
0.111968
0.167314
0.134469
0.13388
0.133112
0.132195
0.131154
0.130007
0.128788
0.127412
0.125998
0.124541
0.123068
0.121611
0.120074
0.118633
0.117294
0.116046
0.114893
0.113691
0.112584
0.111539
0.110552
0.109611
0.108726
0.107913
0.107202
0.106676
0.107013
0.115439
0.15484
0.266058
0.134469
0.133879
0.13311
0.132192
0.131146
0.129988
0.128741
0.127362
0.125918
0.124416
0.122894
0.121391
0.11978
0.118291
0.11692
0.115639
0.114439
0.113238
0.112114
0.111057
0.110067
0.109144
0.108277
0.107486
0.106804
0.106378
0.107693
0.125694
0.201551
0.353006
0.134469
0.133879
0.133109
0.132188
0.131136
0.129966
0.128687
0.127287
0.125793
0.124232
0.0982161
0.0966041
0.11927
0.117672
0.116237
0.114897
0.113614
0.112362
0.111181
0.110077
0.109057
0.108125
0.107279
0.106511
0.105854
0.105593
0.10875
0.142581
0.257867
0.442135
0.134469
0.133879
0.133107
0.132182
0.131124
0.129939
0.128629
0.127191
0.125638
0.0937625
0.067195
0.0665725
0.0822292
0.115796
0.114557
0.113122
0.111708
0.110327
0.109013
0.107782
0.106636
0.10557
0.104579
0.103634
0.102752
0.102378
0.107482
0.158776
0.317969
0.539949
0.134469
0.133879
0.133106
0.132176
0.13111
0.12991
0.128569
0.127085
0.106123
0.0638871
0.0431481
0.0480448
0.0577382
0.0772728
0.104892
0.107523
0.105381
0.103104
0.100757
0.0983776
0.0959764
0.0935742
0.0911628
0.088746
0.0863141
0.0842252
0.0871181
0.135998
0.341944
0.619138
0.134469
0.133879
0.133105
0.132173
0.131097
0.12988
0.12851
0.126983
0.0756728
0.0415817
0.0260319
0.0264154
0.0398182
0.0493168
0.0640733
0.0814182
0.0733859
0.0662658
0.0601607
0.0550115
0.0507938
0.0474115
0.0448457
0.0430165
0.0418813
0.0414705
0.0429586
0.0613661
0.187532
0.513967
0.134469
0.133879
0.133104
0.132171
0.131088
0.129859
0.12846
0.107136
0.0531451
0.0256701
0.0182263
0.0126957
0.0250593
0.0297228
0.0213807
0.0252034
0.0251923
0.0258449
0.0269791
0.028517
0.0304313
0.0327009
0.0353106
0.038228
0.0414066
0.0447797
0.048566
0.0563732
0.0992159
0.248363
0.134469
0.133878
0.133103
0.132167
0.131083
0.129845
0.128433
0.0871443
0.0392269
0.0154564
0.00787615
0.00396113
0.0134536
0.0124683
0.0428319
0.0455904
0.0480224
0.0504976
0.0531528
0.0560257
0.0591068
0.0623533
0.0656735
0.0689519
0.0720416
0.0748587
0.0775443
0.0820828
0.10369
0.182674
0.134469
0.133877
0.133101
0.132164
0.131077
0.129833
0.128421
0.0767927
0.0306036
0.0109119
0.00364589
0.00153881
0.0241956
0.0416845
0.0538868
0.0609198
0.0673615
0.0729876
0.0780106
0.0826603
0.0870125
0.0910512
0.0947377
0.0980294
0.100879
0.103253
0.105357
0.109033
0.126137
0.183964
0.134469
0.133877
0.133101
0.132162
0.131074
0.129829
0.128417
0.0765508
0.0305763
0.0109383
0.00337985
0.0739533
0.0982986
0.104747
0.108882
0.111625
0.114047
0.116509
0.119041
0.121552
0.123974
0.126223
0.128221
0.129893
0.131393
0.134247
0.148452
0.196277
0.134468
0.133877
0.1331
0.132165
0.131078
0.129837
0.128424
0.0862083
0.0389424
0.015464
0.00490599
0.00199295
0.0299249
0.100326
0.0957298
0.102508
0.108566
0.114105
0.119218
0.123931
0.128077
0.131594
0.134436
0.136657
0.138294
0.139431
0.140248
0.141719
0.150611
0.188253
0.134468
0.133878
0.133102
0.13217
0.131084
0.129853
0.128449
0.10522
0.0523683
0.0253256
0.0117614
0.00902186
0.0224619
0.0228349
0.0370467
0.0428506
0.0485454
0.0543226
0.0602158
0.0662742
0.072491
0.0788955
0.085234
0.0913942
0.0972301
0.102664
0.10764
0.112599
0.122073
0.158648
0.134468
0.133879
0.133106
0.132171
0.131093
0.129873
0.128498
0.126963
0.0736293
0.0406636
0.0251109
0.0242748
0.0327674
0.0434679
0.0585173
0.0474194
0.0410992
0.0375211
0.0358569
0.035818
0.0369971
0.0391074
0.0419425
0.0454625
0.0496364
0.0544388
0.0599364
0.0675961
0.0901882
0.175058
0.134469
0.133879
0.133105
0.132174
0.131106
0.129902
0.128555
0.127062
0.102217
0.0614079
0.0411522
0.0423311
0.0492813
0.0668279
0.104027
0.102548
0.0989828
0.0942192
0.0875071
0.0799499
0.072563
0.0659872
0.0604721
0.0562029
0.0532243
0.0516494
0.0531
0.0737355
0.182128
0.453318
0.134469
0.133879
0.133106
0.13218
0.131119
0.129931
0.128614
0.127165
0.125599
0.0891157
0.0630434
0.0591331
0.0699333
0.0986817
0.114027
0.112676
0.111289
0.109793
0.108104
0.106156
0.103905
0.101308
0.0983446
0.0950215
0.0914008
0.0885816
0.100185
0.212287
0.527834
1.01202
0.134469
0.133879
0.133108
0.132185
0.131131
0.129957
0.128671
0.12726
0.125753
0.121684
0.0912994
0.0857469
0.102401
0.117517
0.116147
0.114883
0.113667
0.112452
0.111258
0.110068
0.108866
0.107641
0.106367
0.105037
0.10376
0.104874
0.137385
0.333614
0.755865
1.10386
0.134469
0.133879
0.133109
0.13219
0.131141
0.129979
0.128725
0.127336
0.125878
0.124362
0.122589
0.116663
0.11972
0.118235
0.116886
0.115637
0.114465
0.113272
0.112126
0.111007
0.109907
0.108823
0.107749
0.106688
0.105785
0.107536
0.141936
0.34262
0.755393
1.02994
0.134469
0.13388
0.133111
0.132193
0.131149
0.129998
0.128773
0.127386
0.125958
0.124487
0.123004
0.121542
0.119999
0.118551
0.117216
0.115979
0.114835
0.113627
0.112491
0.111387
0.110306
0.109244
0.1082
0.10717
0.106257
0.107177
0.131045
0.286353
0.636643
0.832652
0.134469
0.13388
0.133112
0.132195
0.131153
0.130006
0.128791
0.127419
0.126003
0.124553
0.12309
0.121636
0.120145
0.118716
0.117385
0.116155
0.115007
0.113796
0.112659
0.111557
0.110477
0.109419
0.108378
0.107354
0.106389
0.106311
0.117868
0.211994
0.396634
0.497382
0.134738
0.134631
0.134509
0.134369
0.134207
0.134024
0.133818
0.133585
0.133343
0.133093
0.132834
0.13254
0.132186
0.131792
0.131387
0.130984
0.130591
0.130174
0.129756
0.129345
0.128935
0.128534
0.128153
0.127809
0.127531
0.127429
0.128598
0.140265
0.158044
0.28841
0.134738
0.134631
0.134509
0.134369
0.134207
0.134024
0.133818
0.133586
0.133347
0.133106
0.132861
0.132595
0.132236
0.131845
0.131441
0.131036
0.130639
0.130219
0.129796
0.129381
0.12897
0.128567
0.128182
0.127833
0.127557
0.127599
0.130736
0.163039
0.260655
0.467654
0.134738
0.134631
0.134509
0.134368
0.134207
0.134023
0.133821
0.133588
0.133359
0.133141
0.132935
0.13272
0.132356
0.13197
0.131562
0.131148
0.130742
0.130294
0.129859
0.129431
0.129011
0.128601
0.128209
0.127855
0.127601
0.128039
0.135818
0.199037
0.354721
0.620649
0.134738
0.134631
0.134509
0.134368
0.134207
0.134023
0.133821
0.133598
0.133391
0.13322
0.112806
0.111578
0.13247
0.132083
0.131662
0.131221
0.130773
0.130288
0.129809
0.129334
0.128866
0.12841
0.127965
0.127547
0.127282
0.128491
0.144989
0.251616
0.446697
0.766325
0.134739
0.134631
0.134509
0.134368
0.134207
0.134024
0.133824
0.133619
0.133454
0.107093
0.0789512
0.0781614
0.096493
0.131564
0.131124
0.130629
0.130085
0.129478
0.128832
0.128143
0.1274
0.126591
0.125698
0.124715
0.123843
0.125505
0.152736
0.304038
0.539635
0.929445
0.134739
0.134631
0.134509
0.134368
0.134207
0.134026
0.133834
0.133658
0.120413
0.0747381
0.0525898
0.0555577
0.0675689
0.0903246
0.125498
0.127361
0.125925
0.124118
0.121958
0.119439
0.11654
0.113238
0.109527
0.105472
0.101408
0.100433
0.129544
0.302079
0.622403
1.10773
0.134739
0.134631
0.134509
0.134369
0.134208
0.13403
0.13385
0.133724
0.087521
0.0506211
0.0328866
0.034824
0.0472187
0.0612963
0.0770177
0.106286
0.096363
0.0867819
0.0781009
0.0705788
0.0643093
0.0592211
0.0552857
0.0523837
0.0504754
0.0502357
0.0629887
0.170987
0.568819
1.18573
0.134739
0.134632
0.134509
0.134369
0.134209
0.134035
0.133873
0.122159
0.0638651
0.032243
0.0216855
0.016417
0.0333612
0.0406543
0.0332868
0.0367607
0.0342842
0.0333715
0.0334544
0.0342417
0.0355674
0.0373108
0.039366
0.0416348
0.044035
0.0467036
0.0525107
0.0902157
0.292443
0.71335
0.134739
0.134632
0.13451
0.134369
0.134211
0.13404
0.133899
0.100563
0.0481259
0.0207945
0.010238
0.00571924
0.0265393
0.019515
0.0339784
0.0356071
0.037292
0.0391399
0.0412241
0.0435949
0.0462828
0.0492833
0.052557
0.0560232
0.059559
0.0631077
0.0679536
0.08744
0.195486
0.464388
0.134739
0.134632
0.13451
0.13437
0.134213
0.134045
0.133919
0.0897403
0.0392425
0.0150272
0.00510985
0.00261369
0.00803651
0.020552
0.0313765
0.0363453
0.0413318
0.0464221
0.051689
0.0571521
0.0627814
0.0684869
0.074137
0.079553
0.0845433
0.088984
0.0938186
0.108279
0.182055
0.374583
0.134739
0.134632
0.13451
0.13437
0.134212
0.134045
0.13392
0.0894744
0.0391854
0.0151052
0.00465224
0.00173946
0.0181742
0.021307
0.0795875
0.0856897
0.091007
0.0956704
0.100044
0.104278
0.108421
0.112376
0.116066
0.119377
0.122205
0.124475
0.126926
0.136525
0.19148
0.343321
0.134738
0.134631
0.134509
0.134369
0.13421
0.134041
0.133901
0.0994265
0.0477222
0.0207964
0.0072597
0.00236199
0.0823691
0.0572855
0.0819089
0.0850308
0.0886524
0.0927311
0.0972372
0.102057
0.107015
0.111877
0.116504
0.120776
0.124581
0.127792
0.130903
0.13934
0.186445
0.326452
0.134738
0.134631
0.134509
0.134369
0.13421
0.134036
0.133876
0.119891
0.062815
0.0317426
0.0150905
0.012345
0.0245543
0.0336417
0.0382022
0.0407893
0.0436013
0.0467377
0.0501899
0.053958
0.0580252
0.0623551
0.0669203
0.0716922
0.0766522
0.0819438
0.0879681
0.100308
0.159021
0.335054
0.134738
0.134631
0.134509
0.134369
0.134208
0.134031
0.133853
0.133733
0.0849848
0.0492549
0.0313884
0.0302616
0.0369953
0.0485039
0.0756074
0.0608965
0.0518923
0.0460936
0.0423086
0.0398677
0.038475
0.0380812
0.0386088
0.0399667
0.0421379
0.0452924
0.051554
0.0826227
0.22573
0.555619
0.134739
0.134631
0.134509
0.134368
0.134207
0.134027
0.133835
0.133665
0.115855
0.0716144
0.0495626
0.0481961
0.0559282
0.0755025
0.113605
0.12146
0.117697
0.112092
0.104978
0.0975178
0.0898467
0.0823245
0.0752888
0.0690107
0.0637639
0.0618656
0.0850623
0.236384
0.619063
1.14739
0.134738
0.134631
0.134509
0.134368
0.134207
0.134024
0.133825
0.133623
0.133468
0.101579
0.0737458
0.0687439
0.0808417
0.112263
0.13047
0.129864
0.129131
0.128164
0.12694
0.125446
0.123594
0.121325
0.118571
0.115307
0.112066
0.118332
0.216083
0.583599
0.977151
1.53762
0.134738
0.134631
0.134509
0.134368
0.134207
0.134023
0.133821
0.1336
0.1334
0.133249
0.104631
0.0984713
0.116678
0.132038
0.131615
0.131164
0.130697
0.130177
0.129638
0.129065
0.128444
0.127761
0.127001
0.126188
0.126282
0.142235
0.280124
0.699425
1.04632
1.61144
0.134738
0.134631
0.134509
0.134368
0.134207
0.134023
0.133821
0.133589
0.133365
0.13316
0.13298
0.132573
0.13246
0.132084
0.131675
0.131256
0.130838
0.130375
0.129913
0.129443
0.128961
0.128468
0.127966
0.127506
0.128016
0.143413
0.276069
0.683499
1.02771
1.48835
0.134738
0.134631
0.134509
0.134369
0.134207
0.134024
0.133818
0.133586
0.13335
0.133118
0.132894
0.132658
0.132325
0.131944
0.131542
0.131137
0.130736
0.130305
0.129865
0.129419
0.128966
0.128507
0.128047
0.127621
0.12785
0.13805
0.237812
0.579671
0.881666
1.20471
0.134739
0.134632
0.13451
0.134369
0.134208
0.134025
0.133819
0.133586
0.133346
0.133104
0.132861
0.132593
0.132261
0.131875
0.131473
0.131069
0.130671
0.130244
0.129807
0.129368
0.128922
0.12847
0.128018
0.127586
0.12749
0.13246
0.191866
0.448848
0.563038
0.758892
0.134745
0.134655
0.134565
0.134474
0.134383
0.134292
0.134203
0.13412
0.13405
0.133999
0.133961
0.133913
0.133832
0.13372
0.133599
0.133476
0.133351
0.133223
0.133092
0.132963
0.132836
0.132718
0.132617
0.132551
0.132555
0.132857
0.136377
0.146198
0.226557
0.429209
0.134745
0.134655
0.134565
0.134474
0.134383
0.134293
0.134204
0.134124
0.13406
0.13402
0.134002
0.133976
0.133911
0.13381
0.133696
0.133577
0.133456
0.133331
0.133202
0.133075
0.13295
0.132833
0.132731
0.132665
0.1327
0.133474
0.142756
0.223056
0.390528
0.67653
0.134745
0.134655
0.134565
0.134474
0.134384
0.134294
0.134208
0.134135
0.134085
0.134074
0.134103
0.134128
0.134099
0.134021
0.133918
0.133805
0.133685
0.13356
0.13343
0.133301
0.133174
0.133054
0.132949
0.132885
0.133017
0.135101
0.157012
0.30297
0.519427
0.903034
0.134745
0.134655
0.134565
0.134475
0.134385
0.134297
0.134215
0.134153
0.134131
0.134178
0.134065
0.132933
0.134392
0.134336
0.13424
0.134121
0.13399
0.133847
0.1337
0.133551
0.133403
0.133257
0.133122
0.133036
0.133371
0.138399
0.18382
0.408066
0.632485
1.1185
0.134745
0.134655
0.134565
0.134475
0.134386
0.1343
0.134226
0.134183
0.134212
0.12705
0.0964975
0.0956229
0.116751
0.134342
0.13426
0.13413
0.13397
0.133778
0.133566
0.133329
0.133057
0.132745
0.132392
0.132053
0.132472
0.142114
0.220211
0.523692
0.750923
1.36114
0.134745
0.134655
0.134565
0.134475
0.134387
0.134305
0.134242
0.134232
0.13434
0.0921768
0.0662585
0.0671709
0.08213
0.109545
0.133222
0.133014
0.132673
0.132163
0.131447
0.130445
0.129083
0.127397
0.125418
0.123241
0.121984
0.134821
0.241569
0.609434
0.885802
1.65653
0.134745
0.134655
0.134565
0.134476
0.134389
0.134311
0.134263
0.134302
0.106976
0.0637641
0.0442008
0.0522175
0.0608897
0.0752426
0.0964706
0.127389
0.124882
0.121378
0.116799
0.110955
0.103976
0.0968862
0.0902069
0.0841785
0.0799174
0.0879461
0.1864
0.573492
1.07715
2.00064
0.134745
0.134655
0.134566
0.134477
0.134391
0.134318
0.134289
0.134392
0.0796092
0.044402
0.0273529
0.0284941
0.0415824
0.0496114
0.0654645
0.0945536
0.0825847
0.072411
0.0641542
0.0576154
0.0525749
0.0488246
0.0461779
0.0445184
0.0439328
0.0475582
0.0884711
0.325733
0.946928
1.6506
0.134745
0.134655
0.134566
0.134477
0.134393
0.134325
0.134313
0.121972
0.0627187
0.031098
0.0180673
0.015946
0.0324662
0.0307274
0.0315661
0.0336996
0.0317968
0.0311859
0.0313989
0.0322254
0.0335253
0.0352104
0.0372065
0.0394299
0.0418757
0.0455399
0.0630643
0.181322
0.610158
1.21498
0.134745
0.134655
0.134566
0.134478
0.134395
0.134329
0.13433
0.110399
0.0528982
0.0244336
0.010959
0.00845291
0.0331831
0.0225414
0.0245926
0.0238923
0.0243579
0.0255143
0.0272307
0.0294324
0.0321169
0.0352497
0.0387627
0.042566
0.0465879
0.0513694
0.0645588
0.143177
0.452735
0.952991
0.134745
0.134655
0.134566
0.134478
0.134395
0.13433
0.134331
0.109901
0.0528278
0.0244233
0.0105458
0.00855043
0.0213769
0.0283912
0.0402303
0.0430128
0.045807
0.0487322
0.0517938
0.0550313
0.0584164
0.0619202
0.0654736
0.0690324
0.072479
0.0761347
0.0849782
0.13927
0.376133
0.804534
0.134745
0.134655
0.134566
0.134477
0.134393
0.134326
0.134316
0.120457
0.0620653
0.0308683
0.0141828
0.0117131
0.0372293
0.0416334
0.0430755
0.0458085
0.0485004
0.0513267
0.0542895
0.0573998
0.0606549
0.0640444
0.0675546
0.0711633
0.0747915
0.0786642
0.0872145
0.13871
0.36423
0.782409
0.134745
0.134655
0.134565
0.134477
0.134392
0.134319
0.134293
0.134404
0.0779553
0.0436615
0.0260964
0.0239626
0.0305662
0.0390604
0.0522341
0.0438295
0.0393968
0.0370231
0.0359089
0.0357374
0.0363179
0.037493
0.039151
0.0412349
0.0437928
0.0476014
0.0612946
0.14769
0.458283
0.965305
0.134745
0.134655
0.134565
0.134476
0.13439
0.134312
0.134267
0.134314
0.103337
0.0617485
0.0420441
0.0432098
0.0498304
0.0632813
0.0853185
0.107796
0.0979399
0.0882838
0.0794709
0.0717002
0.0650236
0.0593864
0.0547039
0.0510263
0.0485886
0.0524297
0.102886
0.336042
0.794943
1.47689
0.134745
0.134655
0.134565
0.134476
0.134388
0.134306
0.134245
0.134241
0.134362
0.0878823
0.062199
0.057952
0.0677925
0.0922748
0.131562
0.130626
0.129249
0.12733
0.124881
0.121935
0.118328
0.113721
0.107648
0.10075
0.0962791
0.118262
0.303668
0.795121
1.12605
1.97726
0.134745
0.134655
0.134565
0.134475
0.134386
0.134301
0.134229
0.134191
0.134233
0.120229
0.0899233
0.0839868
0.0983982
0.133172
0.133969
0.13377
0.133508
0.133176
0.132775
0.132278
0.131627
0.130738
0.129474
0.127963
0.130059
0.18074
0.452283
1.02969
1.29658
2.23271
0.134745
0.134655
0.134565
0.134475
0.134385
0.134297
0.134218
0.134158
0.134147
0.134214
0.124022
0.117308
0.134438
0.134402
0.1343
0.134165
0.134011
0.133839
0.133654
0.133456
0.133238
0.132994
0.132725
0.132651
0.136947
0.193361
0.485623
1.08606
1.32519
2.20531
0.134745
0.134655
0.134565
0.134475
0.134384
0.134295
0.13421
0.134139
0.134097
0.134102
0.13416
0.134225
0.134236
0.134179
0.13408
0.133964
0.133836
0.1337
0.133555
0.133405
0.13325
0.133094
0.132948
0.133011
0.136718
0.184861
0.453317
1.02729
1.26831
1.96909
0.134745
0.134655
0.134565
0.134474
0.134384
0.134294
0.134206
0.134128
0.13407
0.134042
0.134047
0.134055
0.134022
0.133942
0.133836
0.133722
0.1336
0.133474
0.133339
0.133203
0.133064
0.132926
0.132801
0.132817
0.135163
0.167963
0.377671
0.874994
1.08078
1.55466
0.134745
0.134655
0.134565
0.134475
0.134384
0.134294
0.134205
0.134125
0.13406
0.134019
0.134001
0.133982
0.133928
0.133834
0.133721
0.133603
0.133479
0.133352
0.133216
0.13308
0.132942
0.132807
0.132681
0.132636
0.13381
0.152028
0.294016
0.696912
0.702551
1.0085
0.134745
0.134656
0.134567
0.134479
0.134392
0.134307
0.134226
0.134154
0.134095
0.134054
0.134027
0.133998
0.133948
0.133881
0.133807
0.133735
0.133663
0.133591
0.133522
0.133457
0.133399
0.133354
0.133332
0.133354
0.133469
0.134129
0.141426
0.160494
0.306761
0.554286
0.134745
0.134656
0.134567
0.134479
0.134392
0.134308
0.134228
0.134158
0.134104
0.134072
0.134059
0.134046
0.134011
0.133954
0.133887
0.13382
0.133753
0.133686
0.13362
0.133559
0.133504
0.133462
0.133441
0.133468
0.133665
0.135444
0.154922
0.274771
0.523666
0.861978
0.134745
0.134656
0.134567
0.134479
0.134392
0.134309
0.134231
0.134166
0.134124
0.134114
0.134137
0.134165
0.134162
0.134127
0.134075
0.134017
0.133956
0.133894
0.133834
0.133777
0.133726
0.133686
0.133668
0.133714
0.134172
0.139133
0.186341
0.406776
0.688733
1.17602
0.134745
0.134656
0.134567
0.134479
0.134393
0.134311
0.134237