/*--------------------------------*- C++ -*----------------------------------*\
| =========                 |                                                 |
| \\      /  F ield         | OpenFOAM: The Open Source CFD Toolbox           |
|  \\    /   O peration     | Version:  2512                                  |
|   \\  /    A nd           | Website:  www.openfoam.com                      |
|    \\/     M anipulation  |                                                 |
\*---------------------------------------------------------------------------*/
FoamFile
{
    version     2.0;
    format      ascii;
    arch        "LSB;label=32;scalar=64";
    class       volScalarField;
    location    "120";
    object      omega;
}
// * * * * * * * * * * * * * * * * * * * * * * * * * * * * * * * * * * * * * //

dimensions      [0 0 -1 0 0 0 0];

internalField   nonuniform List<scalar> 
90398
(
16.0853
15.8202
15.5742
15.3513
15.153
15.0349
16.6784
30.8985
63.999
113.49
169.951
217.723
253.992
280.813
300.905
316.189
328.279
338.36
347.548
356.739
366.694
377.969
390.851
405.26
420.755
436.557
451.854
465.604
478.368
489.319
16.0854
15.8206
15.5751
15.3525
15.1563
15.1092
18.4018
37.6312
75.1681
124.294
176.02
219.97
254.121
279.965
299.612
314.628
326.456
336.188
344.888
353.415
362.521
372.782
384.539
397.811
412.295
427.327
442.188
455.879
468.893
480.408
16.0856
15.8211
15.5764
15.3545
15.1618
15.2502
20.7084
44.281
83.875
132.766
180.597
220.558
252.056
276.438
295.264
309.681
320.93
330.002
337.868
345.377
353.269
362.14
372.395
384.183
397.335
411.34
425.605
439.192
452.496
464.579
16.0858
15.8217
15.5783
15.3566
15.1706
15.486
23.3173
50.5034
91.8746
139.49
182.709
218.638
247.229
269.895
287.593
301.08
311.408
319.498
326.251
332.503
338.994
346.344
355.01
365.252
377.013
389.935
403.549
416.998
430.574
443.173
16.086
15.8224
15.5802
15.359
15.1839
15.8336
25.9535
56.0443
98.2044
142.7
181.469
213.341
238.841
259.992
276.346
288.609
297.669
304.427
309.759
314.53
319.504
325.319
332.487
341.303
351.804
363.744
376.76
390.095
403.934
417.012
16.0863
15.8232
15.5817
15.3625
15.2056
16.2742
28.3096
60.4041
102.102
142.674
177.064
204.78
227.352
246.515
261.539
272.254
279.579
284.532
288.052
291.071
294.393
298.718
304.549
312.19
321.721
332.945
345.563
358.91
373.088
386.689
16.0865
15.8239
15.5826
15.3648
15.2308
16.7374
30.1897
63.1415
103.339
140.188
171.061
195.549
215.448
232.97
246.064
254.016
258.296
260.33
261.504
262.585
264.308
267.308
272.065
278.88
287.812
298.665
311.073
324.483
338.682
352.704
16.0867
15.8242
15.5807
15.3605
15.2513
17.1161
31.3261
63.7327
102.335
200.939
225.123
273.168
311.542
347.893
251.405
247.383
243.389
239.633
236.455
234.312
233.727
235.134
238.84
245.013
253.642
264.485
277.114
290.964
305.474
319.69
16.0868
15.8248
15.5811
15.3594
15.2708
17.3619
31.5692
61.7352
128.332
165.971
234.762
383.103
439.446
419.932
254.146
236.491
223.697
214.044
207.161
203.084
201.76
203.053
206.795
212.95
221.458
232.153
244.731
258.728
273.55
288.25
16.0869
15.8257
15.585
15.368
15.2996
17.5118
31.3651
58.9597
121.746
260.898
617.132
1030.13
694.007
533.163
201.25
192.597
185.951
182.418
181.916
183.247
185.788
189.165
193.251
198.091
204.04
211.669
221.278
232.883
246.114
260.039
16.087
15.8263
15.586
15.3716
15.3253
17.6119
30.8668
56.5368
116.362
244.458
1038.08
630.439
465.908
221.815
206.089
197.279
193.283
193.169
195.27
198.338
201.621
204.66
207.254
209.491
211.805
215.23
220.755
228.837
238.989
16.0871
15.8263
15.5843
15.3701
15.3459
17.6595
30.2592
55.2802
113.848
137.368
442.035
762.292
738.223
816.27
219.752
205.773
201.05
201.919
205.507
209.842
213.843
216.796
218.586
219.225
218.985
218.337
217.956
218.718
221.624
226.727
16.0872
15.8267
15.586
15.3783
15.3806
17.7601
29.9495
54.8879
82.0646
158.683
179.353
234.498
263.983
254.454
174.599
184.496
196.468
208.159
217.837
224.689
228.489
229.104
228.142
226.026
223.241
220.407
218.097
216.793
217.17
219.134
16.0872
15.8273
15.5897
15.3895
15.4188
17.8677
29.6256
54.1198
79.0827
99.2875
116.544
129.177
138.828
150.857
168.238
188.554
207.437
222.232
232.167
237.365
238.272
235.366
230.77
225.545
220.437
216.249
213.399
211.865
211.662
212.568
16.0872
15.8274
15.5909
15.3939
15.4524
17.9737
29.4502
53.3386
76.7261
95.0026
110.278
122.452
135.305
152.518
176.471
201.102
221.42
235.239
242.612
244.302
241.087
234.051
226.259
218.317
211.679
207.45
205.649
205.516
206.391
208.057
16.0871
15.8273
15.5912
15.3967
15.4815
18.0734
29.3842
52.5655
74.6536
92.0186
106.734
120.21
135.937
159.313
187.607
213.994
233.363
244.414
248.086
245.573
237.878
227.768
216.953
206.909
199.915
197.255
198.368
201.614
205.247
208.035
16.087
15.827
15.5908
15.3994
15.5057
18.1204
29.1377
51.5214
72.5079
89.389
104.117
119.073
139.019
167.038
198.262
224.834
241.973
249.498
249.137
242.347
231.044
218.493
205.466
194.438
188.425
188.993
194.53
201.618
207.1
209.69
16.0868
15.8266
15.5901
15.4008
15.5098
18.0183
28.445
49.8412
69.9465
86.4741
101.46
118.13
142.395
174.798
207.855
233.227
247.414
251.2
246.902
236.24
223.078
208.7
194.521
183.514
179.457
184.385
194.237
203.211
207.447
209.209
16.0872
15.827
15.5906
15.4007
15.4852
17.6915
27.0575
47.1484
66.6476
82.9804
98.3954
117.065
145.493
181.81
215.743
239.139
250.13
250.349
242.441
229.581
215.184
199.975
185.439
175.139
173.382
184.785
197.72
203.536
206.078
208.871
16.0866
15.8261
15.5897
15.3982
15.4334
17.1601
25.0336
43.612
62.8061
79.327
95.2015
115.835
147.91
186.966
220.975
242.446
250.748
248.085
237.246
223.892
208.791
192.386
177.945
168.822
171.402
187.54
196.842
201.782
204.808
208.647
1.93876
2.07846
2.20231
2.30722
2.38797
2.49951
3.1778
5.88855
12.2888
23.5481
37.9385
51.0555
62.4221
71.8869
79.7444
86.3156
91.8742
96.6759
100.905
104.756
108.41
112.024
115.719
119.567
123.556
127.627
131.635
135.436
138.857
141.563
1.93877
2.07849
2.20236
2.30648
2.38813
2.54469
3.55478
7.0379
14.7311
26.4188
39.8131
52.3439
63.313
72.5221
80.2043
86.6473
92.0948
96.7892
100.914
104.653
108.186
111.674
115.245
118.968
122.867
126.863
130.843
134.659
138.134
140.924
1.93879
2.07852
2.20247
2.3044
2.38763
2.6138
3.99798
8.23841
16.7001
28.5486
41.2912
53.3029
63.8013
72.6842
80.1559
86.4424
91.7522
96.284
100.226
103.76
107.065
110.305
113.618
117.1
120.784
124.615
128.513
132.335
135.895
138.853
1.93882
2.07858
2.20267
2.30165
2.38873
2.71035
4.47096
9.44852
18.5342
30.2812
42.4554
53.8087
63.7994
72.3525
79.6039
85.7196
90.8597
95.1852
98.8841
102.136
105.121
108.016
110.97
114.117
117.492
121.101
124.874
128.687
132.345
135.524
1.93887
2.07866
2.20295
2.29851
2.3931
2.82891
4.93185
10.5487
20.0337
31.4509
43.0885
53.9179
63.4333
71.6998
78.7587
84.7052
89.6411
93.7001
97.0713
99.9381
102.497
104.933
107.443
110.151
113.153
116.482
120.09
123.874
127.631
131.058
1.93898
2.0788
2.20314
2.29507
2.40143
2.95571
5.33529
11.4366
21.0745
32.1464
43.4654
54.0711
63.4638
71.5313
78.4903
84.242
88.8581
92.4773
95.3313
97.628
99.5746
101.401
103.315
105.477
108.026
111.015
114.411
118.131
121.952
125.618
1.93895
2.07897
2.20264
2.29055
2.41177
3.07846
5.64795
12.0267
21.6398
32.3947
44.8464
57.5655
67.6131
75.3352
82.2327
87.3284
90.9833
93.5305
95.5206
96.9917
98.0933
99.0748
100.176
101.626
103.585
106.112
109.123
112.574
116.037
119.746
1.93885
2.07888
2.19978
2.28453
2.42271
3.18136
5.84009
12.1798
21.5343
34.9803
52.7979
72.8256
88.3523
97.3357
104.284
104.394
103.841
103.01
102.012
100.829
99.695
98.861
98.567
98.9722
100.194
102.268
105.08
108.541
112.084
115.958
1.93888
2.0788
2.1941
2.27775
2.43573
3.26268
5.90345
11.723
21.1295
36.4476
68.2311
122.057
171.29
162.642
157.953
138.894
125.756
116.03
108.651
103.134
99.1395
96.475
95.0462
94.8413
95.7346
97.6593
100.458
104.024
107.825
112.239
1.93892
2.07894
2.18886
2.27087
2.44523
3.31542
5.89925
11.2337
19.6233
38.4991
147.967
1079.62
695.822
560.221
171.765
140.521
122.078
109.715
101.302
95.7228
92.2143
90.2742
89.5617
89.8596
91.1241
93.2587
96.13
99.698
103.56
108.241
1.93896
2.0791
2.18426
2.26562
2.45688
3.36109
5.86417
10.833
18.5703
37.6136
1012.57
162.771
129.402
110.265
98.4263
91.6302
88.1699
86.7081
86.5112
87.1647
88.4249
90.1202
92.1823
94.6175
97.5512
100.819
105.077
1.939
2.07931
2.18028
2.26179
2.47051
3.4024
5.83093
10.6694
18.0821
33.8519
128.98
526.447
610.482
401.343
119.529
100.549
90.3435
85.5125
83.7868
83.7132
84.5046
85.7399
87.3702
89.3089
91.4162
93.5362
95.5631
97.7232
100.071
103.417
1.93906
2.07978
2.17692
2.25858
2.48321
3.44431
5.83516
10.7223
17.639
28.4603
52.3907
88.8481
107.892
102.558
74.7567
73.7303
75.1135
77.8343
80.8611
83.5636
85.6803
87.1984
88.9472
91.0542
93.2533
95.3114
97.0705
98.6593
100.298
102.811
1.93923
2.0802
2.17354
2.25649
2.50053
3.49281
5.8459
10.6187
17.1334
24.6191
34.9388
45.3221
52.3271
56.1846
60.1439
65.6166
71.7985
77.6351
82.4356
85.9663
88.3031
89.7027
91.2098
93.2252
95.3018
97.107
98.4573
99.4907
100.59
102.524
1.93932
2.08023
2.17037
2.25529
2.52086
3.54408
5.87671
10.5148
16.5473
22.8143
30.2961
37.7692
44.2869
50.0228
57.2281
65.5103
73.6355
80.4761
85.5549
88.9317
90.9211
91.9979
93.7405
95.8355
97.8907
99.4591
100.293
100.605
101.108
102.539
1.93927
2.07989
2.16713
2.25431
2.53848
3.59357
5.91214
10.433
16.0981
21.7666
28.0958
34.6688
41.1119
48.7655
58.0808
68.0226
77.0114
83.9789
88.7398
91.6488
93.2599
94.7316
96.93
99.3438
101.57
102.838
102.85
102.13
101.939
102.789
1.93926
2.07908
2.16388
2.25309
2.55231
3.62457
5.91835
10.3079
15.6788
21.0509
26.8515
33.0231
40.1674
49.3606
60.326
71.3313
80.6052
87.2936
91.5624
94.0499
95.5488
98.1291
101.007
104.118
106.461
106.574
104.762
102.417
101.441
101.618
1.93927
2.07762
2.16095
2.25122
2.55422
3.6146
5.84991
10.0524
15.1757
20.3504
25.8875
32.0628
40.0988
50.7665
63.1225
74.7938
83.9492
90.1948
94.0217
96.345
98.8991
102.312
106.062
109.977
111.201
108.01
102.943
98.8424
97.6996
97.1994
1.93925
2.07563
2.15835
2.24782
2.53936
3.5441
5.66221
9.58658
14.5049
19.5471
25.0031
31.4311
40.3651
52.4249
65.8847
77.8946
86.7663
92.6065
96.1947
98.8577
102.762
106.975
111.687
115.665
112.288
103.258
96.2708
92.2006
91.2779
90.7157
1.93925
2.07424
2.15659
2.24306
2.50733
3.4101
5.35096
8.94128
13.7221
18.7207
24.2185
30.8912
40.5458
53.62
67.7633
79.8836
88.5589
94.2146
97.8618
102.051
106.779
111.276
116.398
118.012
105.921
95.4164
89.0304
85.9085
85.2607
84.6319
1.77798
1.77977
1.78602
1.79589
1.82756
2.47265
5.11047
8.52667
11.6356
17.229
24.4061
31.5108
37.7394
43.2153
48.0033
52.1992
55.8892
59.1717
62.1177
64.804
67.3127
69.7161
72.0742
74.4273
76.802
79.1594
81.4987
83.7505
85.814
87.4679
1.77801
1.77984
1.78613
1.79646
1.84884
2.83377
5.77035
8.66829
12.3716
18.3519
25.4683
32.2938
38.4043
43.7842
48.5021
52.6407
56.2779
59.5064
62.395
65.0252
67.477
69.8249
72.1324
74.4518
76.791
79.1477
81.4931
83.7696
85.872
87.5688
1.77805
1.77996
1.78638
1.79784
1.89905
3.27023
6.4533
8.98332
13.2968
19.5277
26.4561
32.9778
38.9193
44.1948
48.8407
52.9224
56.4982
59.6574
62.4597
64.9843
67.3141
69.5293
71.7089
73.9037
76.1349
78.4351
80.7547
83.0545
85.2203
87.0131
1.7781
1.78015
1.78676
1.80085
2.0232
3.78393
7.13775
9.69513
14.3358
20.5907
27.1842
33.4994
39.2822
44.4895
49.1023
53.1572
56.692
59.7714
62.455
64.8226
66.9622
68.9647
70.932
72.9084
74.9752
77.1445
79.3985
81.7033
83.9388
85.8568
1.77818
1.78038
1.7873
1.8063
2.17565
4.32158
7.74423
10.4303
15.2464
21.3679
27.7243
33.93
39.746
44.9814
49.6595
53.7462
57.2546
60.2324
62.7372
64.8565
66.6948
68.3744
69.9989
71.6712
73.4722
75.4354
77.5681
79.8426
82.1338
84.1834
1.77826
1.78066
1.78799
1.81436
2.3534
4.83372
8.21902
11.0562
15.9257
21.8852
28.3221
34.8878
41.1136
46.7616
51.7214
55.8724
59.2862
62.0046
64.12
65.7575
67.065
68.1877
69.2733
70.4792
71.8795
73.5386
75.4737
77.6626
79.9714
82.1328
1.77836
1.781
1.78886
1.82526
2.54823
5.30041
8.57436
11.5082
16.3616
22.3755
29.8335
38.5703
46.8689
53.7622
59.2434
62.9391
65.571
67.269
68.2755
68.8106
69.063
69.2056
69.4267
69.8875
70.6888
71.9026
73.5348
75.5552
77.7957
80.0117
1.77846
1.78137
1.7899
1.83968
2.74404
5.71352
8.85746
11.7911
16.6508
23.2869
31.496
47.9132
63.8291
75.3001
86.7995
84.314
82.0581
79.7591
77.4347
75.2235
73.2719
71.7214
70.671
70.1721
70.2722
70.9905
72.2951
74.1397
76.284
78.5451
1.77857
1.78177
1.79101
1.85862
2.9419
6.07764
9.10798
11.9073
15.1773
24.0886
43.3272
83.6445
146.991
160.225
150.879
125.333
108.199
96.0879
87.1876
80.6953
75.9993
72.757
70.6671
69.5435
69.2663
69.7493
70.9209
72.7222
74.9131
77.3584
1.77868
1.78222
1.79234
1.88063
3.11409
6.38598
9.32999
11.9654
14.944
24.8711
84.6035
722.483
695.832
649.956
184.309
140.264
113.741
96.5196
85.0947
77.6168
72.8136
69.8455
68.1561
67.4057
67.4322
68.1353
69.4381
71.3115
73.5748
76.1824
1.77879
1.7827
1.79405
1.90681
3.27604
6.65928
9.54596
12.0155
14.6274
24.5209
305.072
591.473
176.758
125.861
98.8544
83.7887
75.1428
70.2485
67.5284
66.1519
65.6328
65.7255
66.2952
67.3096
68.7256
70.5672
72.7452
75.3174
1.77891
1.78318
1.79614
1.94203
3.4398
6.9263
9.76708
12.0836
14.4278
23.232
64.0044
469.218
455.771
416.314
104.372
84.4323
73.6429
68.1607
65.5623
64.4261
64.0391
64.1258
64.5735
65.3486
66.3906
67.6385
69.0806
70.7661
72.6973
75.033
1.77901
1.7836
1.79854
1.98228
3.58304
7.16169
9.9593
12.1492
15.3273
20.0067
30.8075
57.2361
72.9977
74.6802
59.6232
58.4489
58.7325
59.849
61.1571
62.3212
63.237
63.9915
64.9236
66.1016
67.4421
68.8082
70.183
71.6385
73.2595
75.2713
1.77911
1.78403
1.80101
2.02313
3.73665
7.39353
10.1428
12.1944
14.9725
18.5907
23.9873
30.9489
37.352
41.7569
45.9024
50.162
54.3379
57.9097
60.6448
62.5977
63.9657
65.01
66.2657
67.7636
69.2916
70.6505
71.808
72.901
74.1564
75.8118
1.77921
1.78446
1.80382
2.06461
3.88542
7.61253
10.308
12.2422
14.7167
17.7126
21.7626
26.5079
31.6982
37.0087
42.9454
49.1045
54.5882
58.8225
61.8122
63.8509
65.3199
66.6577
68.3948
70.3115
72.0091
73.2081
73.9341
74.4476
75.2219
76.468
1.77929
1.78487
1.80667
2.10217
4.02218
7.80235
10.4511
12.2879
14.5473
17.2257
20.7167
24.9207
29.9477
36.1647
43.4251
50.5968
56.4491
60.6354
63.4658
65.4351
67.0597
69.0324
71.4613
73.8395
75.5381
76.2231
76.146
75.8215
76.0506
76.8575
1.77937
1.78522
1.80903
2.12985
4.11978
7.92998
10.5713
12.3129
14.4032
16.9008
20.134
24.1895
29.521
36.7619
45.1365
52.8812
58.6548
62.5554
65.1962
67.231
69.3576
72.2659
75.4789
78.1074
79.1792
78.5429
77.101
75.7856
75.637
76.0574
1.77942
1.78548
1.81047
2.1376
4.13698
7.96488
10.6681
12.298
14.2312
16.5999
19.6896
23.7491
29.6784
38.0202
47.2886
55.1879
60.7008
64.3255
66.9386
69.321
72.4638
76.3187
80.0281
82.1582
81.1816
78.0946
74.9767
73.1142
73.0327
73.1741
1.77952
1.78573
1.81061
2.11554
4.0475
7.87026
10.7327
12.2237
13.9957
16.2618
19.2561
23.4055
30.0939
39.5746
49.3992
57.1285
62.3279
65.8115
68.624
71.7913
76.0625
80.5948
84.0061
84.034
79.1027
73.3791
69.8401
68.5063
68.6456
68.8658
1.77946
1.78568
1.80903
2.06095
3.84177
7.63077
10.7101
12.0586
13.691
15.9002
18.8295
23.0806
30.4385
40.675
50.5973
58.0308
63.053
66.5675
69.6635
73.8644
78.896
83.3794
85.2534
81.4989
73.3735
67.5313
64.7888
64.1314
64.5372
64.9432
1.77469
1.77071
1.76965
1.77558
1.97011
3.65309
7.56696
11.7539
14.6662
18.7564
23.4041
28.0461
32.3437
36.2505
39.7681
42.9298
45.7788
48.3614
50.7193
52.8997
54.9492
56.9091
58.8142
60.6889
62.5461
64.3931
66.2008
67.9535
69.578
70.858
1.77471
1.77078
1.76986
1.77969
2.12702
4.28125
8.38187
12.1981
15.1559
19.3634
24.0484
28.6195
32.8858
36.7521
40.2356
43.3665
46.1834
48.7324
51.0509
53.1889
55.1943
57.1119
58.9814
60.8314
62.6812
64.5274
66.3522
68.1363
69.7953
71.1102
1.77477
1.77094
1.77041
1.7885
2.35276
4.97926
9.21173
12.5612
15.753
20.0253
24.6581
29.1521
33.3624
37.1919
40.6522
43.7628
46.5535
49.0552
51.3094
53.3628
55.2674
57.0756
58.8381
60.5954
62.3803
64.1848
66.0111
67.8265
69.5456
70.937
1.77485
1.7712
1.77134
1.80867
2.66238
5.74761
10.0232
12.9227
16.3915
20.6574
25.1721
29.6175
33.7923
37.6365
41.1291
44.2652
47.0542
49.5144
51.6793
53.6017
55.3414
56.9647
58.5392
60.1303
61.7734
63.4866
65.2761
67.1069
68.8906
70.3769
1.77495
1.77153
1.77288
1.86112
3.05257
6.53989
10.7663
13.4247
16.9712
21.157
25.614
30.0865
34.418
38.4194
42.0755
45.3229
48.1412
50.5362
52.5508
54.2492
55.7136
57.0361
58.3138
59.629
61.0409
62.5936
64.2876
66.0993
67.931
69.5097
1.77508
1.77193
1.77511
1.93758
3.48131
7.29359
11.3828
13.9862
17.4574
21.5534
26.1602
31.1151
36.0045
40.5778
44.6737
48.1056
50.8802
53.0376
54.6717
55.8991
56.8501
57.658
58.455
59.338
60.4028
61.6978
63.2243
64.9648
66.8101
68.4602
1.77522
1.77242
1.77829
2.03133
3.91701
7.96992
11.8642
14.4234
17.8061
21.9753
27.4584
34.3364
41.2955
47.3412
52.3008
55.4955
57.5303
58.682
59.2121
59.349
59.2942
59.221
59.2604
59.5213
60.0957
61.0225
62.3039
63.9149
65.7279
67.4176
1.77538
1.77298
1.78289
2.14238
4.34122
8.56568
12.25
14.7511
18.0759
22.7048
28.1023
41.1466
55.441
66.3652
75.3511
73.7108
71.6164
69.289
66.9437
64.7976
62.9841
61.5844
60.6385
60.1689
60.1911
60.7143
61.7264
63.189
64.9436
66.6602
1.77555
1.77361
1.7884
2.25971
4.74206
9.08073
12.5719
14.9936
18.3084
24.3578
33.8974
66.4807
118.595
141.933
121.444
104.066
91.2029
81.5922
74.4021
69.1983
65.4654
62.8956
61.241
60.3212
60.0316
60.3339
61.2007
62.5924
64.3512
66.1447
1.77573
1.77431
1.79493
2.37612
5.09217
9.51435
12.8421
15.1591
18.3246
23.6616
46.4282
304.424
535.524
489.353
154.75
119.763
97.4511
83.087
73.8085
67.8476
64.0247
61.6167
60.1847
59.4562
59.3078
59.7009
60.6149
62.0349
63.8381
65.7204
1.77592
1.77508
1.80316
2.49897
5.42533
9.90903
13.0856
15.2694
18.1284
23.7163
54.0694
544.573
480.367
563.488
135.345
102.624
83.7011
72.8248
66.4499
62.7067
60.4895
59.2198
58.5771
58.3959
58.616
59.2411
60.2738
61.7317
63.5438
65.456
1.7761
1.77593
1.81294
2.62688
5.75799
10.2965
13.3264
15.3538
17.822
22.7587
37.3818
210.652
334.458
298.805
83.2082
71.4771
64.8152
61.209
59.3024
58.2874
57.7556
57.537
57.6051
57.9239
58.4844
59.3114
60.4288
61.8668
63.6085
65.4565
1.77629
1.77686
1.82554
2.75697
6.05832
10.6405
13.5511
15.4284
17.4846
20.5797
26.3726
45.3141
60.8712
64.7418
53.9523
53.7073
54.2221
55.0017
55.7091
56.2482
56.6563
57.0307
57.5351
58.212
59.0251
59.9764
61.1011
62.4387
64.0309
65.7262
1.77648
1.77781
1.83907
2.87885
6.34784
10.9623
13.7665
15.511
17.264
19.5632
23.2272
28.4511
34.1639
39.0269
43.4703
47.4023
50.7053
53.1254
54.7581
55.8416
56.6298
57.3436
58.2107
59.2023
60.2145
61.2053
62.2276
63.3535
64.7092
66.1692
1.77667
1.7788
1.85676
3.00268
6.62572
11.2623
13.9672
15.5991
17.1494
19.061
21.8285
25.443
30.0934
35.5218
41.2655
46.5268
50.578
53.2732
54.9994
56.1793
57.1618
58.233
59.5406
60.87
62.0209
62.9243
63.6788
64.4382
65.4626
66.6064
1.77684
1.77977
1.87583
3.11495
6.87083
11.5212
14.1433
15.6794
17.0887
18.8107
21.2306
24.5129
29.2138
35.3134
41.9868
47.6906
51.6288
54.0487
55.6139
56.833
58.0926
59.7056
61.5184
63.1358
64.2198
64.771
65.0149
65.2556
65.9103
66.6948
1.77699
1.78061
1.88959
3.1954
7.04656
11.7192
14.2842
15.735
17.0335
18.6515
20.9297
24.2695
29.4598
36.5908
43.885
49.4052
52.8231
54.8658
56.324
57.7308
59.5143
61.7554
63.982
65.5592
66.0913
65.8166
65.3057
65.0251
65.4208
65.8806
1.77713
1.78126
1.89395
3.21924
7.11761
11.8294
14.3754
15.7464
16.9433
18.4861
20.7035
24.2693
30.3983
38.5963
46.0095
50.9085
53.7664
55.5523
57.0906
58.9074
61.4023
64.1474
66.3535
67.1459
66.3212
64.793
63.5703
63.097
63.4719
63.7248
1.77718
1.78145
1.8838
3.15746
7.03462
11.8163
14.3927
15.6862
16.7863
18.2611
20.4512
24.4188
31.7387
40.7194
47.6982
51.8469
54.3021
56.0227
57.8214
60.2914
63.4021
66.22
67.5566
66.5252
63.7585
61.2893
60.0691
59.9016
60.3747
60.7272
1.77727
1.78146
1.85938
3.00349
6.78655
11.6496
14.2755
15.5043
16.5414
17.9587
20.1557
24.612
32.8403
41.9272
48.227
51.8998
54.2123
55.9803
58.0326
61.0433
64.4213
66.7552
66.5181
63.5785
59.7344
57.3585
56.5718
56.8012
57.4813
58.0546
1.77477
1.77075
1.76979
1.78979
2.40558
5.26168
10.1097
14.4348
17.5447
21.0864
24.6983
28.2812
31.677
34.8096
37.6688
40.2731
42.6515
44.8412
46.8686
48.7675
50.5694
52.3018
53.987
55.6425
57.2784
58.8955
60.4824
62.0134
63.4271
64.5079
1.77481
1.77087
1.77041
1.81988
2.74535
6.07519
10.974
14.8983
18.0232
21.5731
25.2116
28.7968
32.1764
35.2858
38.1218
40.7029
43.0563
45.2173
47.2102
49.0714
50.8346
52.5314
54.189
55.8287
57.4625
59.091
60.7027
62.2654
63.716
64.8304
1.77489
1.77111
1.7718
1.87989
3.19107
6.99453
11.9154
15.4041
18.5574
22.0836
25.7231
29.2874
32.6422
35.7334
38.558
41.1269
43.4578
45.5793
47.5124
49.2945
50.9648
52.5639
54.1303
55.696
57.2815
58.8943
60.5185
62.124
63.6378
64.8231
1.775
1.77146
1.77438
1.98075
3.75896
7.99998
12.845
15.9479
19.1154
22.5855
26.1882
29.7278
33.0867
36.2108
39.0814
41.6861
44.0233
46.1093
47.9607
49.621
51.1398
52.5732
53.9772
55.4009
56.8783
58.4293
60.0363
61.6727
63.2522
64.5217
1.77515
1.77195
1.77953
2.13706
4.41496
9.00971
13.6793
16.5157
19.6323
23.03
26.5902
30.1799
33.6783
36.9846
40.0343
42.7645
45.1465
47.1805
48.8957
50.3529
51.6255
52.7951
53.9423
55.137
56.4319
57.8548
59.3978
61.0321
62.6602
64.0053
1.77532
1.77259
1.78875
2.34706
5.10881
9.95483
14.3767
17.0666
20.0666
23.3836
27.024
30.9641
34.9733
38.812
42.2821
45.2269
47.6103
49.4603
50.8582
51.916
52.7565
53.5004
54.2549
55.1073
56.1248
57.3426
58.7611
60.3457
61.9912
63.3884
1.77553
1.77343
1.80621
2.59908
5.79809
10.8024
14.9351
17.5218
20.4008
23.7036
27.83
32.988
38.4742
43.5827
47.7503
50.7403
52.7131
53.8754
54.4612
54.6978
54.7791
54.8605
55.0552
55.4464
56.0914
57.0313
58.2658
59.7557
61.3846
62.8065
1.77576
1.77454
1.84048
2.88129
6.45557
11.5479
15.3923
17.8793
20.6452
24.1187
29.7776
38.5646
47.9218
55.6669
59.9967
61.5492
61.6154
60.8283
59.6642
58.4576
57.405
56.629
56.1674
56.0522
56.3047
56.9516
57.9862
59.3688
60.9659
62.3996
1.77601
1.77582
1.87878
3.16366
7.06118
12.2001
15.7849
18.1583
20.8224
24.7027
30.3602
48.0292
68.8165
83.3175
80.6761
76.5429
72.0159
67.748
64.1177
61.2744
59.1781
57.7498
56.8573
56.4364
56.4539
56.9156
57.8202
59.1353
60.7265
62.1887
1.77628
1.77728
1.9211
3.43738
7.59905
12.7758
16.14
18.3756
20.8852
25.2013
33.9213
64.6119
96.7837
115.164
92.5558
83.221
75.0053
68.6369
64.0296
60.8567
58.7403
57.3916
56.5905
56.2366
56.283
56.7462
57.6411
58.9533
60.5674
62.0699
1.77657
1.77904
1.97046
3.71465
8.11054
13.2883
16.469
18.5478
20.8091
24.8455
34.8283
67.2522
97.5482
114.767
83.6725
74.6676
67.8082
63.1328
60.075
58.1276
56.9028
56.176
55.8109
55.7495
55.9868
56.5714
57.5306
58.8702
60.5052
62.0304
1.77687
1.78112
2.0262
3.99914
8.62458
13.7729
16.7876
18.7008
20.6465
23.6741
30.4913
54.5536
76.9095
84.0536
63.7074
60.3336
58.1356
56.8128
56.0124
55.5268
55.2434
55.1265
55.1804
55.4219
55.8721
56.5954
57.6247
58.9749
60.5917
62.0911
1.77719
1.78358
2.08584
4.27475
9.0914
14.2181
17.0926
18.8544
20.4966
22.6711
26.9924
34.6043
41.8714
46.5697
49.243
50.9258
52.2208
53.1366
53.711
54.0644
54.3262
54.5974
54.96
55.4586
56.099
56.9315
57.9922
59.2992
60.8365
62.2413
1.7775
1.78612
2.14504
4.52835
9.52557
14.6286
17.378
19.0073
20.4219
22.1174
24.8671
28.9998
34.044
39.1108
43.6672
47.3876
50.0907
51.7879
52.7958
53.4392
53.9589
54.5006
55.1541
55.9041
56.7117
57.6035
58.624
59.8005
61.1771
62.4039
1.77782
1.78877
2.20429
4.77394
9.93133
15.0017
17.6357
19.152
20.4091
21.8785
24.0561
27.251
31.8129
37.3061
42.71
47.0369
49.8891
51.5215
52.4905
53.2039
53.9168
54.7642
55.7566
56.756
57.6776
58.5311
59.3947
60.3281
61.4597
62.4252
1.77812
1.79132
2.2587
4.99139
10.2894
15.3268
17.8548
19.2732
20.4187
21.7873
23.7692
26.954
31.9183
38.1065
43.8697
47.9221
50.2473
51.5074
52.3464
53.1525
54.1428
55.4026
56.7344
57.8991
58.7783
59.4181
59.9673
60.5603
61.4037
62.0622
1.77838
1.79351
2.29916
5.15351
10.5692
15.5866
18.0212
19.3506
20.4099
21.733
23.7027
27.2715
33.1187
40.0581
45.6538
48.8673
50.5016
51.4291
52.2457
53.2739
54.6868
56.3402
57.8655
58.9305
59.4555
59.641
59.7607
60.0246
60.6334
61.0077
1.77859
1.79463
2.31121
5.21963
10.7257
15.7576
18.1163
19.3602
20.3472
21.6409
23.7231
27.9635
34.9667
42.3781
47.1558
49.3812
50.4843
51.2504
52.197
53.5893
55.4382
57.287
58.6192
59.1033
58.8816
58.464
58.2565
58.3876
58.8926
59.105
1.77882
1.79416
2.27968
5.14361
10.7112
15.8069
18.1097
19.2699
20.2018
21.454
23.8052
28.9873
37.1035
44.2924
47.9067
49.3721
50.1911
50.9555
52.1379
53.9632
56.0726
57.705
58.2632
57.6921
56.6123
55.8521
55.67
55.932
56.4579
56.7921
1.77879
1.79182
2.20191
4.91258
10.5064
15.6671
17.9357
19.0355
19.9623
21.1763
23.8788
29.9468
38.5647
44.9031
47.6741
48.8707
49.5997
50.4071
51.789
53.8837
55.9325
57.0295
56.6733
55.2316
53.7357
53.0268
53.0655
53.57
54.2502
54.7931
1.77496
1.77116
1.77145
1.87158
3.1564
7.11164
12.5918
16.9268
20.094
23.3796
26.6228
29.7593
32.6964
35.3989
37.8708
40.1347
42.2196
44.1596
45.976
47.696
49.3443
50.9418
52.506
54.0506
55.5815
57.0943
58.5713
59.9846
61.274
62.2233
1.775
1.77129
1.77307
1.95627
3.67076
8.03897
13.4901
17.4984
20.625
23.9015
27.1589
30.2839
33.1969
35.8717
38.3167
40.5544
42.6121
44.5225
46.3053
47.9905
49.6052
51.1749
52.7212
54.2608
55.8003
57.3343
58.8425
60.2939
61.6225
62.6076
1.7751
1.77164
1.77734
2.10533
4.33972
9.1468
14.5243
18.143
21.2339
24.482
27.7114
30.798
33.6744
36.3205
38.7438
40.96
42.9879
44.8539
46.5756
48.1846
49.7148
51.2009
52.6753
54.1632
55.6773
57.2141
58.7519
60.2567
61.6528
62.7094
1.77526
1.77221
1.78802
2.3493
5.1741
10.3659
15.5832
18.8393
21.8786
25.0604
28.2181
31.2547
34.1145
36.7736
39.2243
41.4613
43.4848
45.3108
46.9537
48.451
49.8483
51.1956
52.5409
53.9232
55.3646
56.8671
58.4109
59.9578
61.4233
62.5594
1.77546
1.77315
1.81826
2.69175
6.10203
11.5721
16.5496
19.521
22.4906
25.5574
28.6308
31.6644
34.6063
37.4004
39.9932
42.3335
44.394
46.1778
47.7053
49.0341
50.2312
51.3697
52.5178
53.7298
55.0388
56.4544
57.9619
59.5202
61.0345
62.2342
1.7757
1.77448
1.86709
3.10782
7.05061
12.6873
17.3705
20.1404
22.9962
25.9304
28.9783
32.1861
35.4617
38.6461
41.5729
44.1099
46.2056
47.873
49.177
50.2153
51.0968
51.9261
52.791
53.757
54.8648
56.1328
57.5508
59.0771
60.6076
61.8417
1.776
1.77638
1.93831
3.56882
7.96997
13.6799
18.0448
20.6708
23.3754
26.1975
29.4067
33.2174
37.3503
41.3647
44.8477
47.5679
49.5208
50.8178
51.6338
52.1557
52.5492
52.9465
53.4401
54.0912
54.9376
56.0029
57.2845
58.7381
60.2529
61.4915
1.77633
1.77913
2.03262
4.05184
8.833
14.5501
18.6017
21.0991
23.6378
26.414
30.166
35.4174
41.2973
46.6923
50.7455
53.2495
54.5053
54.9069
54.8313
54.5733
54.3315
54.223
54.3175
54.642
55.2158
56.0632
57.1908
58.5575
60.0441
61.2703
1.7767
1.78297
2.14454
4.53496
9.6281
15.3124
19.077
21.4416
23.8057
26.6045
31.3313
39.0881
47.6135
54.4651
58.5617
59.8437
59.5713
58.5815
57.4255
56.4072
55.6457
55.1859
55.0167
55.1239
55.5063
56.1961
57.2112
58.5152
59.9842
61.2012
1.77712
1.78804
2.26757
4.99355
10.3425
15.9817
19.5008
21.7212
23.8864
26.6698
32.195
41.7768
52.2941
59.5179
62.8444
62.683
61.124
59.3228
57.7689
56.6021
55.8176
55.3718
55.2035
55.2853
55.6208
56.2609
57.2334
58.5128
59.983
61.1993
1.77758
1.79537
2.40465
5.4457
11.0135
16.5868
19.8945
21.9604
23.8904
26.4185
31.7959
41.2539
51.2245
57.5515
59.8857
59.447
58.2346
57.0625
56.1534
55.5201
55.1349
54.9641
54.9759
55.1655
55.5661
56.2462
57.2377
58.5258
60.0062
61.2179
1.77809
1.80547
2.55231
5.90718
11.68
17.1572
20.2693
22.1794
23.8582
25.9214
30.1223
37.5595
45.0749
50.2063
52.7527
53.6754
54.0609
54.2073
54.2407
54.2518
54.2928
54.4063
54.6186
54.9573
55.4746
56.2361
57.2753
58.5754
60.0486
61.2295
1.77866
1.82034
2.70571
6.33853
12.2833
17.6731
20.6219
22.3885
23.8441
25.4955
28.383
33.2065
38.6595
43.4439
47.0229
49.5917
51.3151
52.3549
52.9417
53.2983
53.5891
53.9089
54.3053
54.8125
55.4662
56.3192
57.3953
58.672
60.0936
61.1894
1.77923
1.83501
2.85318
6.74979
12.8496
18.1462
20.9496
22.5885
23.8753
25.2863
27.4583
30.8822
35.4047
40.3171
44.7118
48.0525
50.2196
51.4444
52.1214
52.5785
53.0143
53.5181
54.119
54.8181
55.6079
56.5266
57.5888
58.7749
60.0709
61.0056
1.77979
1.84915
2.99254
7.13352
13.3714
18.572
21.2432
22.7703
23.9391
25.2481
27.166
30.2877
34.8706
40.1552
44.8192
48.0526
49.9106
50.8707
51.4401
51.9423
52.5396
53.2751
54.1273
55.0092
55.8893
56.7973
57.7537
58.7562
59.8477
60.5573
1.78032
1.86224
3.11781
7.47107
13.8298
18.9389
21.4881
22.916
24.0029
25.2868
27.2064
30.6722
35.9123
41.6341
45.9738
48.4377
49.6358
50.2506
50.7457
51.3646
52.202
53.2383
54.3193
55.3081
56.1642
56.9291
57.666
58.409
59.2536
59.7137
1.78078
1.87214
3.20925
7.73024
14.1987
19.2287
21.6648
23.0017
24.029
25.3178
27.4484
31.6433
37.8298
43.6584
47.0858
48.5233
49.132
49.524
50.0621
50.8963
52.0475
53.3342
54.5091
55.4173
56.0602
56.5462
56.9965
57.484
58.1067
58.3558
1.78115
1.875
3.24009
7.86188
14.4369
19.415
21.7468
22.9993
23.9856
25.2847
27.8424
33.0833
40.1693
45.4388
47.6195
48.1991
48.4349
48.7581
49.4436
50.5597
51.9705
53.317
54.3072
54.8543
55.0935
55.2627
55.5028
55.857
56.342
56.5356
1.78124
1.86657
3.17882
7.80993
14.4996
19.4586
21.6971
22.8756
23.8522
25.1972
28.4716
34.8837
42.3687
46.4504
47.4835
47.5701
47.6297
47.9921
48.8745
50.2521
51.7142
52.8043
53.2918
53.2776
53.1089
53.1119
53.3381
53.7337
54.2181
54.5467
1.78128
1.84733
3.01711
7.55926
14.3362
19.2823
21.4563
22.5942
23.5836
25.0488
29.1471
36.303
43.3681
46.3088
46.8369
46.7821
46.7874
47.2014
48.203
49.6566
50.989
51.7097
51.693
51.2494
50.8833
50.8963
51.243
51.7933
52.3999
52.9126
1.7751
1.77152
1.7751
2.04576
4.13248
9.01795
14.9024
19.2578
22.4288
25.6644
28.7878
31.7141
34.4019
36.8486
39.0764
41.1178
43.0059
44.7756
46.4469
48.0446
49.5911
51.1055
52.6038
54.0967
55.5844
57.0545
58.4802
59.8256
61.0269
61.8779
1.77517
1.77177
1.78093
2.21848
4.79544
10.0384
15.8601
19.9669
23.074
26.291
29.3881
32.2775
34.9231
37.3277
39.5166
41.5221
43.3759
45.1115
46.7484
48.314
49.8335
51.3301
52.823
54.3246
55.8348
57.3383
58.8051
60.1945
61.4395
62.3295
1.77531
1.77241
1.80098
2.51009
5.69998
11.3397
17.039
20.8048
23.8553
27.0029
30.0277
32.8446
35.4242
37.7735
39.9165
41.8797
43.6877
45.3689
46.9412
48.4349
49.8817
51.3139
52.7595
54.2367
55.748
57.2772
58.7905
60.2426
61.5598
62.5236
1.77552
1.77352
1.84465