/*--------------------------------*- C++ -*----------------------------------*\
| =========                 |                                                 |
| \\      /  F ield         | OpenFOAM: The Open Source CFD Toolbox           |
|  \\    /   O peration     | Version:  2512                                  |
|   \\  /    A nd           | Website:  www.openfoam.com                      |
|    \\/     M anipulation  |                                                 |
\*---------------------------------------------------------------------------*/
FoamFile
{
    version     2.0;
    format      ascii;
    arch        "LSB;label=32;scalar=64";
    class       volScalarField;
    location    "120";
    object      omega;
}
// * * * * * * * * * * * * * * * * * * * * * * * * * * * * * * * * * * * * * //

dimensions      [0 0 -1 0 0 0 0];

internalField   nonuniform List<scalar> 
84826
(
16.0845
15.8152
15.5581
15.3123
15.0769
14.8508
14.6335
14.4237
14.2242
14.0353
13.8562
13.6925
13.5314
13.3726
13.2241
13.0795
12.9387
12.8018
12.668
12.538
12.412
12.2902
12.1733
12.0619
11.9576
11.8626
11.7817
11.7288
11.8273
13.2441
16.0845
15.8153
15.5584
15.3127
15.0776
14.8519
14.6349
14.4255
14.2266
14.0384
13.8602
13.6974
13.5373
13.3789
13.2307
13.0861
12.9452
12.8084
12.6745
12.5441
12.4179
12.2958
12.1787
12.0672
11.963
11.8682
11.7883
11.747
11.966
14.2429
16.0846
15.8154
15.5586
15.3131
15.0782
14.853
14.637
14.4282
14.2298
14.0431
13.8668
13.7064
13.5483
13.3909
13.2433
13.099
12.9584
12.8216
12.6873
12.5567
12.4305
12.3088
12.1925
12.0822
11.9795
11.8869
11.8112
11.7943
12.2174
15.6948
16.0846
15.8155
15.5587
15.3134
15.0788
14.854
14.6387
14.4306
14.2336
14.0491
13.876
13.7183
13.5634
13.409
13.2627
13.1187
12.9781
12.8412
12.7069
12.5762
12.4495
12.327
12.2106
12.101
11.9998
11.9096
11.8402
11.8643
12.5946
17.5192
16.0846
15.8155
15.5589
15.3137
15.0792
14.8549
14.6404
14.4331
14.238
14.0566
13.8849
13.7028
13.5548
13.4305
13.2862
13.143
13.0024
12.8658
12.7315
12.6013
12.4754
12.3545
12.2407
12.1349
12.039
11.9553
11.8981
11.9862
13.1335
19.5628
16.0846
15.8155
15.5589
15.3139
15.0795
14.8557
14.6419
14.4358
14.2431
14.0615
13.8933
13.7407
13.597
13.4568
13.3155
13.1731
13.0326
12.8964
12.7626
12.6327
12.5068
12.3855
12.2694
12.1606
12.0634
11.9822
11.932
12.0543
13.5022
20.9094
16.0846
15.8155
15.559
15.3139
15.0798
14.8563
14.643
14.44
14.2472
14.0671
13.9157
13.8071
13.6915
13.5532
13.4623
13.349
13.2999
13.2668
13.2252
13.1648
13.0683
12.9298
12.7802
12.6519
12.55
12.4869
12.4749
12.6164
13.9469
20.5337
16.0846
15.8156
15.559
15.314
15.08
14.8568
14.6443
14.4444
14.2501
14.0747
27.8197
27.2812
26.832
26.507
17.9279
19.7844
21.4785
22.7014
23.5059
23.9689
24.1129
23.9283
23.4072
22.5811
21.5696
20.6812
19.9788
19.5449
19.7762
22.7087
16.0846
15.8155
15.559
15.314
15.0802
14.8572
14.6453
14.4468
14.2554
14.0936
27.8845
27.8744
29.98
43.169
51.3506
50.9477
50.5035
49.8472
48.9893
47.9985
46.9211
45.7695
44.531
43.1742
41.6454
39.8568
37.9511
36.1809
34.789
34.6293
16.0847
15.8159
15.5595
15.3147
15.0812
14.8584
14.647
14.4478
14.261
14.1252
28.037
57.2676
110.867
187.113
72.2771
70.4627
67.7555
64.9933
62.4981
60.2858
58.3141
56.5636
55.0131
53.6205
52.3207
51.0231
49.6217
47.9829
46.3313
45.266
16.0848
15.8162
15.56
15.3154
15.082
14.8587
14.647
14.4478
14.2611
14.1259
28.1014
59.6828
366.133
82.58
75.4247
70.2654
66.221
62.9505
60.2216
57.8604
55.7847
53.963
52.385
51.0413
49.9015
48.936
48.0869
47.4244
47.3528
16.0848
15.8159
15.5594
15.3146
15.081
14.8575
14.6454
14.4468
14.2558
14.0947
27.9228
55.776
67.6057
82.964
60.2389
59.0532
58.117
57.1541
56.1319
55.042
53.8587
52.5518
51.1604
49.7155
48.2483
46.8212
45.4859
44.3089
43.3409
43.1155
16.0847
15.8156
15.5589
15.3139
15.08
14.8569
14.6444
14.4448
14.2508
14.076
27.844
27.4827
27.35
27.2198
17.1875
18.0274
18.8761
19.8201
20.8766
22.0083
23.2165
24.5187
25.84
27.1306
28.3775
29.5645
30.6355
31.59
32.3589
33.3374
16.0846
15.8156
15.559
15.3139
15.0798
14.8564
14.6432
14.4404
14.2476
14.0682
13.9194
13.8224
13.7331
13.6101
13.4993
13.3925
13.2991
13.2276
13.1875
13.203
13.3322
13.5989
14.0279
14.6404
15.4446
16.4353
17.5921
18.8825
20.2712
22.094
16.0846
15.8155
15.5589
15.3139
15.0796
14.8558
14.6421
14.4362
14.244
14.0627
13.8957
13.746
13.6078
13.4733
13.3374
13.1996
13.0636
12.9334
12.8071
12.6883
12.5803
12.4889
12.4233
12.3992
12.4367
12.5627
12.8101
13.2352
14.1967
17.7504
16.0846
15.8155
15.5589
15.3137
15.0792
14.855
14.6406
14.4335
14.2388
14.0582
13.8867
13.7051
13.5589
13.4392
13.299
13.1593
13.022
12.8898
12.7602
12.635
12.5144
12.399
12.2902
12.1894
12.1002
12.029
11.9993
12.2327
14.2723
22.1589
16.0846
15.8155
15.5587
15.3134
15.0788
14.8541
14.6388
14.4309
14.2343
14.0504
13.8783
13.7224
13.5702
13.4192
13.2762
13.1352
12.9975
12.8639
12.7333
12.6069
12.4852
12.3681
12.2561
12.1495
12.049
11.958
11.9156
12.3917
15.477
24.914
16.0846
15.8154
15.5586
15.3131
15.0782
14.853
14.6371
14.4284
14.2303
14.044
13.8685
13.7096
13.5537
13.3991
13.2546
13.1132
12.9756
12.8423
12.7119
12.586
12.4646
12.3476
12.2356
12.1287
12.0274
11.9349
11.8942
12.4114
15.3983
24.2181
16.0845
15.8153
15.5584
15.3127
15.0776
14.8519
14.6349
14.4256
14.2268
14.0389
13.8614
13.6998
13.5415
13.3858
13.2404
13.0987
12.9609
12.8277
12.6981
12.5724
12.4512
12.3345
12.2227
12.1158
12.0143
11.9208
11.8638
12.1949
14.2914
21.2385
16.0845
15.8153
15.5582
15.3124
15.077
14.8509
14.6336
14.4238
14.2244
14.0357
13.8571
13.6944
13.5351
13.3787
13.2329
13.0912
12.9536
12.8204
12.6909
12.5654
12.4443
12.3277
12.2159
12.1092
12.0075
11.9126
11.8361
11.9433
12.9413
17.1529
1.93986
2.08187
2.20874
2.32338
2.42812
2.52483
2.61477
2.69965
2.78277
2.86311
2.93979
3.0099
3.07141
3.12213
3.16366
3.19836
3.22923
3.25539
3.27765
3.29666
3.31323
3.3273
3.33875
3.34741
3.35298
3.35547
3.35351
3.35066
3.36336
3.44577
1.93987
2.08193
2.20887
2.32363
2.42859
2.52571
2.61642
2.70226
2.78724
2.87039
2.95076
3.02489
3.08952
3.14216
3.18442
3.21947
3.25081
3.27721
3.29973
3.31884
3.33482
3.34839
3.35941
3.36767
3.37292
3.37497
3.37263
3.36928
3.39156
3.54633
1.93983
2.08204
2.2091
2.32409
2.42952
2.52755
2.62012
2.70802
2.79722
2.88686
2.97608
3.05957
3.13146
3.18843
3.23247
3.26845
3.30108
3.32791
3.35075
3.36956
3.38456
3.39626
3.40544
3.41187
3.4153
3.41539
3.41102
3.40661
3.4466
3.69865
1.93977
2.08214
2.20941
2.32474
2.43083
2.53011
2.62505
2.71679
2.81311
2.91453
3.02242
3.12357
3.21042
3.27502
3.32236
3.36033
3.39493
3.42336
3.44765
3.46734
3.48222
3.49204
3.49716
3.49895
3.49789
3.49368
3.48499
3.47845
3.54557
3.92346
1.9398
2.08215
2.20976
2.32555
2.43244
2.53337
2.63148
2.72901
2.83655
2.96011
3.09082
3.22105
3.33614
3.4155
3.4695
3.51233
3.55152
3.58333
3.60922
3.6285
3.64133
3.6477
3.64837
3.64468
3.63851
3.62981
3.61768
3.61369
3.72508
4.26657
1.93984
2.08218
2.21
2.32642
2.43428
2.53712
2.63922
2.745
2.87068
3.01607
3.20036
3.39293
3.56881
3.68453
3.76132
3.82202
3.87968
3.93075
3.97562
4.01298
4.04273
4.06429
4.07732
4.08184
4.07903
4.07439
4.07352
4.09543
4.27971
5.00879
1.93987
2.08231
2.21022
2.3271
2.43613
2.54103
2.64783
2.76556
2.90861
3.10357
3.42751
3.86653
4.2546
4.48417
4.68338
4.85589
5.02606
5.18883
5.34219
5.48829
5.62921
5.7659
5.89973
6.03178
6.16155
6.2898
6.42162
6.56889
6.85815
7.56825
1.93989
2.08245
2.21054
2.32769
2.43763
2.54454
2.65639
2.78945
2.95066
3.26298
3.65896
5.11161
6.91309
8.75016
16.9002
18.4673
19.6611
20.5652
21.2223
21.6771
21.9454
22.0153
21.8765
21.5285
20.9827
20.2677
19.4323
18.5475
17.6589
16.7096
1.93991
2.08257
2.21082
2.3283
2.43882
2.54742
2.66368
2.80913
3.00318
3.55756
4.58533
12.6665
30.3884
61.8217
107.675
89.4703
77.1131
68.224
61.6082
56.5251
52.4787
49.1134
46.1698
43.455
40.8068
38.1481
35.4785
32.8169
30.2169
27.5654
1.94002
2.08281
2.21125
2.329
2.43999
2.54964
2.66862
2.8164
3.04996
3.89027
7.54737
587.562
1464
552.006
135.691
104.749
87.4127
75.7962
67.4293
61.096
56.0841
51.9886
48.5648
45.6392
43.0647
40.696
38.4241
36.138
33.8833
31.5197
1.94013
2.083
2.21152
2.32932
2.44039
2.54958
2.66864
2.8165
3.05151
3.89696
8.08891
398.768
88.1762
74.0564
64.0941
56.6683
51.0304
46.6462
43.1386
40.2746
37.9094
35.9536
34.3454
33.0232
31.9398
30.9985
30.1899
29.4419
1.94013
2.08274
2.21121
2.3286
2.4393
2.54759
2.66425
2.80998
3.007
3.57143
5.7455
309.918
1127.41
334.137
126.624
104.804
89.6154
78.2128
69.2575
62.1049
56.2592
51.3644
47.2262
43.6685
40.5742
37.8532
35.4467
33.2728
31.4758
29.8368
1.94015
2.08248
2.21071
2.32777
2.4379
2.54512
2.65764
2.79231
2.95655
3.27945
3.89943
8.38842
22.8259
37.864
31.4422
34.7496
36.9284
38.1385
38.6675
38.6242
38.3833
38.0136
37.5258
36.9249
36.2345
35.4807
34.6699
33.7512
32.8533
31.6289
1.94003
2.08239
2.21031
2.32731
2.43654
2.54182
2.64934
2.76859
2.91362
3.11557
3.45961
3.97368
4.57946
4.88314
5.44856
6.18538
7.09926
8.24851
9.5724
10.9804
12.4177
13.8297
15.1585
16.3625
17.3791
18.1625
18.8401
19.5256
20.1668
20.6699
1.93987
2.08223
2.2101
2.32667
2.43475
2.53799
2.64083
2.74806
2.87701
3.02635
3.22178
3.43273
3.62633
3.73391
3.78602
3.82519
3.87068
3.92735
4.01003
4.13541
4.31568
4.55883
4.87936
5.30747
5.85486
6.49239
7.18016
7.86307
8.63707
9.57111
1.93982
2.08221
2.2099
2.32583
2.43296
2.5343
2.63313
2.73196
2.84195
2.97016
3.10584
3.242
3.35843
3.43366
3.473
3.49827
3.52081
3.54127
3.56229
3.58534
3.61287
3.64705
3.69133
3.75161
3.83581
3.9513
4.11036
4.32932
4.82693
5.92033
1.93978
2.08221
2.20956
2.32504
2.43138
2.53106
2.62669
2.71958
2.81788
2.92299
3.03657
3.1447
3.23616
3.29827
3.33882
3.36813
3.39453
3.41655
3.43702
3.45639
3.4752
3.49384
3.51305
3.53402
3.55866
3.58858
3.63075
3.72158
4.15847
5.27687
1.93985
2.08211
2.20926
2.32441
2.43008
2.52851
2.62171
2.71065
2.8015
2.89372
2.98698
3.07565
3.1508
3.20805
3.2497
3.2821
3.31142
3.33613
3.35858
3.37928
3.39872
3.41727
3.43546
3.45398
3.47406
3.49568
3.52459
3.59144
3.97817
4.97157
1.93989
2.08201
2.20904
2.32396
2.42918
2.52669
2.61801
2.70479
2.79121
2.87649
2.95982
3.03738
3.10484
3.15857
3.20023
3.23385
3.264
3.2901
3.31355
3.33512
3.35531
3.37444
3.39303
3.41175
3.43182
3.45289
3.48095
3.52622
3.80872
4.55202
1.93988
2.08195
2.20892
2.32373
2.42873
2.52584
2.61638
2.70218
2.78665
2.86894
2.94823
3.02134
3.08541
3.13739
3.17896
3.2131
3.24364
3.27031
3.29423
3.31619
3.33668
3.35603
3.37475
3.39355
3.41373
3.4348
3.46408
3.48906
3.66438
4.10053
1.77771
1.77825
1.7811
1.78587
1.79229
1.80017
1.80914
1.82069
1.8337
1.84846
1.86468
1.88094
1.89641
1.90983
1.92171
1.93239
1.94186
1.95219
1.96118
1.96938
1.9771
1.98437
1.99116
1.99742
2.00327
2.00885
2.01476
2.03004
2.10659
2.34741
1.77771
1.77825
1.78111
1.78589
1.79234
1.8003
1.80946
1.82131
1.83476
1.8504
1.86788
1.88531
1.90247
1.91683
1.92925
1.94041
1.95018
1.96079
1.97008
1.97854
1.98628
1.99357
2.00035
2.00664
2.0124
2.01792
2.02452
2.04845
2.17411
2.51939
1.77771
1.77826
1.78113
1.78594
1.79246
1.80061
1.81027
1.82245
1.837
1.85472
1.87539
1.89612
1.91646
1.93287
1.94647
1.95853
1.96929
1.98017
1.98995
1.99882
2.00682
2.01401
2.0207
2.02684
2.03239
2.03784
2.04592
2.08663
2.27802
2.7267
1.77771
1.77827
1.78115
1.78601
1.79263
1.80101
1.81129
1.8243
1.84091
1.86249
1.88786
1.91373
1.94055
1.96114
1.97711
1.99086
2.00337
2.01548
2.02659
2.03666
2.04557
2.05332
2.06006
2.06626
2.07211
2.07824
2.09049
2.16039
2.43048
2.98786
1.77771
1.77827
1.78118
1.78609
1.79284
1.80152
1.81254
1.82702
1.847
1.87393
1.91098
1.94889
1.98856
2.0168
2.03744
2.05456
2.07041
2.08569
2.10013
2.11357
2.12602
2.1377
2.14895
2.1607
2.1738
2.18948
2.21895
2.34332
2.7173
3.41008
1.77772
1.77828
1.78121
1.78619
1.79309
1.80213
1.81407
1.83079
1.85517
1.89438
1.9681
2.04129
2.10819
2.1487
2.18198
2.21538
2.25166
2.29171
2.33545
2.383
2.43503
2.49205
2.55537
2.62626
2.70708
2.79959
2.91254
3.13296
3.63785
4.4817
1.77772
1.77829
1.78123
1.78627
1.79335
1.8028
1.81588
1.8358
1.8676
1.94058
2.12232
2.35451
2.5152
2.5919
2.78312
3.07898
3.43009
3.82122
4.24485
4.69759
5.17017
5.65707
6.14168
6.61202
7.04968
7.43243
7.72234
7.79866
7.83265
7.99828
1.77772
1.77831
1.78127
1.78634
1.79357
1.80343
1.81781
1.84082
1.88773
2.05577
2.25289
3.47463
4.4302
4.97073
13.0668
15.5772
17.3203
18.553
19.4225
20.0334
20.4398
20.6554
20.7014
20.5806
20.2943
19.8494
19.231
18.4139
17.2195
15.5966
1.77772
1.77832
1.78131
1.78642
1.79375
1.80394
1.81952
1.84607
1.91911
2.33422
3.30229
15.0573
47.2623
42.7909
93.7961
79.2918
68.7961
60.8667
54.6334
49.6406
45.5161
42.0479
39.037
36.367
33.9805
31.8053
29.767
27.7721
25.6433
23.108
1.77772
1.77833
1.78134
1.7865
1.7939
1.80431
1.8206
1.84942
1.95559
2.73655
6.54779
502.084
532.145
303.145
144.608
105.759
85.2995
72.3267
63.1351
56.3163
51.0009
46.7116
43.144
40.0995
37.4445
35.0782
32.925
30.8871
28.9268
26.7653
1.77773
1.77833
1.78133
1.7865
1.79393
1.80437
1.8207
1.8496
1.95615
2.73563
7.10075
284.022
112.365
89.5341
75.554
65.6515
58.2389
52.5305
47.9776
44.2728
41.1781
38.5433
36.2665
34.2684
32.4974
30.8709
29.4444
28.0047
1.77772
1.77832
1.78131
1.78644
1.7938
1.80407
1.81977
1.84654
1.92078
2.33691
4.3889
368.011
510.537
278.89
115.345
93.1076
78.3681
67.9663
60.2713
54.4043
49.7566
45.9675
42.8051
40.0935
37.7272
35.6257
33.7376
32.0064
30.5079
29.1092
1.77772
1.77831
1.78127
1.78636
1.79363
1.80357
1.81812
1.84148
1.88975
2.06283
2.51934
6.22594
14.2442
30.2465
33.2579
36.1522
37.5482
38.1018
38.0847
37.6526
37.0009
36.2318
35.4067
34.5245
33.6224
32.7153
31.8069
30.8655
29.9136
28.5972
1.77772
1.7783
1.78123
1.7863
1.79342
1.80294
1.8162
1.83659
1.86942
1.94599
2.14168
2.43522
2.85755
3.30707
4.69415
6.14206
7.60127
9.02619
10.4165
11.7943
13.1108
14.3523
15.4785
16.5107
17.4372
18.2443
18.9133
19.348
19.4101
19.1572
1.77772
1.77828
1.78122
1.78622
1.79316
1.80227
1.81439
1.83152
1.8567
1.89825
1.97924
2.07168
2.17147
2.23718
2.2963
2.36331
2.45046
2.58069
2.79308
3.08955
3.46599
3.91815
4.44914
5.05554
5.73699
6.49287
7.25889
7.78088
8.3348
9.1393
1.77771
1.77828
1.7812
1.78612
1.79291
1.80166
1.81285
1.82769
1.84845
1.87685
1.91725
1.96154
2.00849
2.04002
2.06073
2.07742
2.09422
2.11369
2.13822
2.17009
2.21154
2.26545
2.33545
2.42625
2.5453
2.70168
2.92274
3.29071
4.02081
5.14476
1.77771
1.77827
1.78117
1.78604
1.7927
1.80115
1.81158
1.82489
1.84211
1.86456
1.89174
1.92057
1.94966
1.97201
1.98775
2.00057
2.01225
2.02403
2.03575
2.04789
2.06089
2.0752
2.09162
2.11108
2.13539
2.16907
2.24784
2.5205
3.09334
4.00103
1.77771
1.77827
1.78114
1.78597
1.79254
1.80075
1.81055
1.82298
1.83802
1.85665
1.8786
1.90087
1.92324
1.94071
1.95439
1.96606
1.97643
1.98726
1.9975
2.00757
2.01767
2.02796
2.03866
2.05014
2.06306
2.07984
2.13042
2.34573
2.80845
3.52832
1.77771
1.77826
1.78112
1.78592
1.79242
1.80045
1.80973
1.82181
1.83567
1.85204
1.87072
1.88972
1.90842
1.92368
1.93641
1.94758
1.95738
1.96826
1.97818
1.98778
1.9973
2.00688
2.01667
2.02698
2.03831
2.052
2.08813
2.24498
2.60907
3.16389
1.77771
1.77826
1.78112
1.78591
1.79238
1.80033
1.80943
1.82119
1.83459
1.85001
1.86727
1.88491
1.9017
1.91596
1.92825
1.93913
1.94883
1.95962
1.96942
1.97888
1.98824
1.99762
2.00719
2.01717
2.02815
2.04058
2.06533
2.15801
2.39674
2.79468
1.77422
1.76858
1.76317
1.75803
1.75321
1.74875
1.74474
1.74145
1.73893
1.73743
1.73687
1.73661
1.73593
1.73474
1.73341
1.73213
1.73074
1.72961
1.72854
1.7275
1.72658
1.72581
1.72526
1.72503
1.72537
1.72702
1.73464
1.80687
2.22744
2.82783
1.77422
1.76858
1.76317
1.75803
1.75322
1.74878
1.74481
1.7416
1.73927
1.73812
1.73815
1.73838
1.73845
1.73765
1.73657
1.73547
1.73425
1.73327
1.73238
1.73148
1.73066
1.72999
1.7295
1.7293
1.72965
1.73161
1.74646
1.9065
2.55228
3.30272
1.77422
1.76858
1.76317
1.75804
1.75324
1.74884
1.74492
1.74195
1.74006
1.7398
1.74129
1.7429
1.74465
1.74474
1.74422
1.74351
1.74253
1.74202
1.74139
1.74077
1.74017
1.7397
1.73943
1.73944
1.74005
1.74327
1.77415
2.06202
2.89501
3.6582
1.77422
1.76858
1.76317
1.75805
1.75327
1.74892
1.74518
1.74252
1.74146
1.74297
1.74722
1.75206
1.75621
1.75801
1.75859
1.75863
1.75833
1.7584
1.75846
1.75857
1.75877
1.75911
1.75979
1.76101
1.76321
1.77052
1.83203
2.26849
3.24743
3.99642
1.77422
1.76858
1.76318
1.75806
1.75331
1.74905
1.74553
1.74342
1.74384
1.74844
1.75978
1.77134
1.78164
1.78667
1.78935
1.79099
1.79238
1.79449
1.79723
1.80082
1.80556
1.81183
1.82012
1.83117
1.84578
1.8703
1.98622
2.57493
3.63378
4.40387
1.77422
1.76858
1.76318
1.75808
1.75336
1.7492
1.74601
1.74482
1.74762
1.75992
1.79081
1.82197
1.84386
1.85452
1.86332
1.87515
1.89153
1.9142
1.94386
1.9817
2.02933
2.08882
2.16238
2.25169
2.35668
2.46886
2.64603
3.2746
4.27139
5.20674
1.77422
1.76859
1.76319
1.7581
1.75342
1.74939
1.74662
1.74683
1.75445
1.78591
1.8726
1.96945
2.02369
2.05073
2.14662
2.34099
2.59574
2.90322
3.25902
3.65712
4.08815
4.54375
5.00555
5.45626
5.87227
6.22479
6.36176
6.41534
6.81915
7.43676
1.77423
1.7686
1.7632
1.75812
1.75348
1.74959
1.74733
1.7494
1.7663
1.85035
1.95618
2.45035
2.73285
2.92327
7.00571
8.84487
10.3435
11.6231
12.7281
13.6866
14.4995
15.1502
15.636
15.9447
16.083
16.0099
15.6122
14.7036
13.3352
12.201
1.77423
1.7686
1.76321
1.75814
1.75356
1.74977
1.74802
1.75244
1.78452
1.99475
2.49375
6.08347
9.7156
20.3715
57.7012
52.7877
48.5614
45.0134
41.9124
39.2175
36.7856
34.5782
32.5487
30.6746
28.9161
27.223
25.4737
23.3963
20.7789
18.0901
1.77423
1.76861
1.76323
1.75818
1.75362
1.74991
1.74853
1.75481
1.80473
2.21407
3.96789
260.109
389.225
464.389
97.7747
82.1357
70.7471
62.2079
55.5498
50.3195
46.0388
42.4677
39.4505
36.8346
34.5183
32.4039
30.3565
28.1023
25.4989
22.5442
1.77423
1.76861
1.76323
1.75817
1.75359
1.74991
1.74855
1.7549
1.80507
2.21123
4.31185
421.514
389.012
293.761
110.855
90.2856
76.4126
66.4234
58.9246
53.1123
48.4718
44.6957
41.5417
38.8437
36.5003
34.4023
32.4409
30.4051
28.2185
25.5086
1.77422
1.76859
1.76321
1.75814
1.75354
1.74979
1.7481
1.75271
1.7855
1.99623
2.89152
63.2422
372.753
267.135
94.919
79.6655
69.0017
61.1011
55.0147
50.2203
46.3337
43.124
40.4109
38.061
36.0111
34.1609
32.4345
30.6635
28.8397
26.51
1.77422
1.76859
1.76319
1.75812
1.75349
1.74962
1.74743
1.7497
1.76741
1.85459
2.09155
3.32384
13.0938
33.6062
24.4185
26.9735
28.5454
29.5502
30.176
30.5068
30.6
30.474
30.1856
29.7623
29.2463
28.663
27.9696
26.9463
25.4616
23.5295
1.77422
1.76859
1.76319
1.7581
1.75343
1.74942
1.74672
1.74715
1.75549
1.78923
1.88603
2.02863
2.222
2.48746
3.52005
4.55916
5.60321
6.64235
7.66795
8.68507
9.68113
10.6837
11.6707
12.6411
13.5788
14.4455
15.0855
15.09
14.9444
14.8695
1.77422
1.76858
1.76318
1.75808
1.75337
1.74923
1.7461
1.74509
1.74835
1.76219
1.79805
1.84316
1.88476
1.91219
1.94807
1.99513
2.06103
2.16873
2.32395
2.51489
2.75257
3.04311
3.39205
3.80554
4.29298
4.81799
5.2489
5.81267
6.87912
8.2154
1.77422
1.76858
1.76318
1.75807
1.75332
1.74908
1.74561
1.74364
1.74444
1.74991
1.76357
1.77997
1.79611
1.80422
1.80911
1.81301
1.81779
1.82613
1.83868
1.85609
1.88038
1.91348
1.95813
2.01801
2.09969
2.22077
2.48918
3.15559
4.18207
5.48491
1.77422
1.76858
1.76317
1.75805
1.75328
1.74895
1.74525
1.7427
1.74191
1.74397
1.74934
1.75621
1.76223
1.76554
1.76674
1.76712
1.76719
1.76786
1.76888
1.77055
1.77318
1.77712
1.78288
1.79131
1.8049
1.8469
2.11483
2.83636
3.69889
4.56723
1.77422
1.76858
1.76317
1.75804
1.75325
1.74886
1.74498
1.7421
1.74041
1.74058
1.74285
1.74555
1.74856
1.74943
1.74923
1.74864
1.74779
1.74746
1.74715
1.74704
1.74726
1.74789
1.74908
1.7511
1.7553
1.77999
1.9979
2.64254
3.42956
4.09427
1.77422
1.76858
1.76317
1.75804
1.75323
1.74881
1.74487
1.74173
1.73956
1.73876
1.7394
1.74051
1.74149
1.74124
1.74044
1.7395
1.7384
1.73762
1.737
1.73652
1.73627
1.73633
1.7368
1.73785
1.7403
1.75508
1.89798
2.43591
3.1622
3.71105
1.77422
1.76858
1.76318
1.75805
1.75324
1.7488
1.74482
1.74159
1.73922
1.73802
1.73799
1.73849
1.73856
1.73786
1.73681
1.7357
1.73448
1.73357
1.73283
1.7322
1.73179
1.73167
1.73195
1.73275
1.73457
1.74213
1.81552
2.18042
2.78922
3.29572
1.77414
1.76828
1.76248
1.75673
1.75106
1.74549
1.74005
1.73489
1.73013
1.72587
1.72207
1.71833
1.71424
1.7098
1.70531
1.7009
1.69657
1.69228
1.68813
1.68409
1.68022
1.67656
1.67324
1.67046
1.66863
1.66938
1.68918
1.90121
2.62991
3.49486
1.77414
1.76828
1.76247
1.75673
1.75106
1.7455
1.74008
1.73497
1.73031
1.72626
1.72281
1.71946
1.71568
1.71146
1.70711
1.7028
1.69856
1.69435
1.69029
1.68633
1.68252
1.67892
1.67563
1.67284
1.67102
1.67339
1.72191
2.10088
3.08935
4.06571
1.77414
1.76828
1.76248
1.75673
1.75107
1.74552
1.74015
1.73516
1.73076
1.72723
1.72465
1.72227
1.71928
1.71558
1.71157
1.70748
1.70341
1.69934
1.69546
1.69166
1.68802
1.68458
1.68146
1.67883
1.67739
1.68439
1.79504
2.36004
3.53394
4.49042
1.77414
1.76828
1.76248
1.75674
1.75108
1.74557
1.74028
1.73549
1.73158
1.72912
1.72838
1.72799
1.72653
1.72384
1.72045
1.71678
1.713
1.70928
1.70572
1.70229
1.69905
1.69608
1.69351
1.69157
1.69153
1.70922
1.90972
2.65998
3.95301
4.88421
1.77414
1.76828
1.76248
1.75674
1.7511
1.74563
1.74047
1.73602
1.73301
1.73261
1.73606
1.74016
1.74177
1.741
1.73887
1.73607
1.73298
1.73017
1.72766
1.72563
1.72428
1.72384
1.72459
1.72694
1.73328
1.77343
2.08708
3.00318
4.348
5.30831
1.77414
1.76828
1.76248
1.75675
1.75113
1.74572
1.74075
1.73685
1.73541
1.73947
1.75339
1.76799
1.7765
1.77921
1.77964
1.77939
1.77959
1.78194
1.78723
1.79695
1.81253
1.83398
1.86152
1.8958
1.93911
2.01875
2.43144
3.45678
4.79015
5.88987
1.77414
1.76828
1.76248
1.75676
1.75116
1.74582
1.74111
1.73809
1.73951
1.75414
1.79528
1.83113
1.85464
1.86671
1.87874
1.90331
1.94058
1.99617
2.07542
2.1883
2.34257
2.52622
2.7317
2.95533
3.17885
3.3439
3.62762
4.4303
5.70542
6.98934
1.77414
1.76828
1.7625
1.75677
1.7512
1.74594
1.74156
1.73971
1.7466
1.78401
1.90457
2.04114
2.10401
2.1301
2.34757
2.69829
3.12486
3.61735
4.16463
4.75954
5.39075
6.04268
6.69461
7.31336
7.85486
8.19533
8.18748
8.22229
8.67749
9.25344
1.77415
1.76829
1.76251
1.75679
1.75124
1.74605
1.74197
1.74162
1.75609
1.84234
1.99455
2.68961
3.07027
3.55582
8.14528
10.1142
11.6687
12.9657
14.0775
15.0216
15.8202
16.477
16.9554
17.2563
17.3551
17.1409
16.2737
14.8636
13.3627
12.5561
1.77415
1.7683
1.76252
1.75683
1.75129
1.74615
1.74228
1.74305
1.76579
1.91851
2.3781
5.94273
8.7339
13.8769
15.5623
18.0492
19.827
21.1821
22.1948
22.9406
23.4817
23.8317
23.9716
23.9255
23.6821
23.1307
21.9391
19.8592
17.5302
15.7773
1.77415
1.76829
1.76251
1.75681
1.75128
1.74615
1.74229
1.74313
1.76599
1.91899
2.42779
6.15674
16.997
36.0565
37.7698
38.4882
38.2447
37.5852
36.6827
35.6807
34.6089
33.5048
32.3585
31.2021
30.0109
28.708
26.943
24.2454
21.2161
18.5963
1.77414
1.76828
1.76249
1.75678
1.75123
1.74606
1.74202
1.74181
1.75678
1.84473
2.10346
3.64673
24.3302
52.7421
30.9676
32.5376
33.1401
33.2084
32.9535
32.5047
31.9276
31.2644
30.5444
29.7849
28.9818
28.0571
26.6615
24.3298
21.701
19.2209
1.77414
1.76828
1.76249
1.75677
1.7512
1.74596
1.74162
1.73993
1.74741
1.7867
1.91933
2.16458
2.77394
3.79677
5.67267
7.37639
8.97153
10.4641
11.8534
13.1787
14.4358
15.5959
16.6181
17.4877
18.2004
18.6752
18.4417
17.4152
16.5682
15.8556
1.77414
1.76828
1.76248
1.75676
1.75117
1.74584
1.74118
1.73829
1.74025
1.75641
1.80367
1.8643
1.93273
1.9884
2.11408
2.31418
2.57047
2.88404
3.24844
3.66206
4.12261
4.63324
5.21144
5.85742
6.5738
7.17115
7.58767
8.27445
9.55846
10.831
1.77414
1.76828
1.76248
1.75675
1.75114
1.74573
1.7408
1.73703
1.73594
1.74105
1.75802
1.78085
1.79888
1.80813
1.81638
1.82821
1.84533
1.87128
1.90694
1.95314
2.01466
2.10138
2.23031
2.404
2.59736
2.83555
3.35087
4.43664
5.95784
7.61625
1.77414
1.76828
1.76248
1.75675
1.75111
1.74564
1.74052
1.73616
1.73339
1.73362
1.73858
1.74584
1.75073
1.7521
1.75134
1.74973
1.74816
1.74748
1.7479
1.7499
1.75452
1.76316
1.77835
1.80237
1.84162
1.99769
2.6519
3.7991
4.98402
6.17143
1.77414
1.76828
1.76248
1.75674
1.75109
1.74558
1.74032
1.73559
1.73186
1.7298
1.72987
1.73091
1.73091
1.72922
1.72632
1.72294
1.71945
1.71607
1.71296
1.71016
1.70784
1.70621
1.70561
1.70684
1.71827
1.86321
2.46604
3.53335
4.63603
5.49877
1.77414
1.76828
1.76248
1.75674
1.75108
1.74554
1.74019
1.73524
1.73097
1.72773
1.72569
1.72414
1.722
1.71886
1.7151
1.71115
1.70717
1.70322
1.69947
1.69586
1.69247
1.68938
1.6867
1.68484
1.68988
1.79918
2.31753
3.2913
4.33406
5.04611
1.77414
1.76828
1.76248
1.75673
1.75107
1.74551
1.74011
1.73505
1.73049
1.72666
1.7236
1.72085
1.71767
1.71384
1.70969
1.70551
1.70134
1.69721
1.69326
1.68942
1.68577
1.68236
1.67929
1.67682
1.6784
1.74258
2.15187
3.00566
3.99764
4.6564
1.77414
1.76829
1.76249
1.75674
1.75108
1.74552
1.7401
1.73498
1.7303
1.72624
1.72279
1.71956
1.71596
1.71186
1.70756
1.70327
1.69902
1.69481
1.69077
1.68684
1.68309
1.67957
1.67638
1.67368
1.67307
1.70134
1.97337
2.65568
3.53386
4.19718
1.77414
1.76827
1.76245
1.75668
1.75096
1.74531
1.73974
1.73437
1.72927
1.7245
1.72001
1.71553
1.71079
1.7058
1.70077
1.69578
1.69086
1.68596
1.68116
1.67646
1.67191
1.66759
1.66363
1.66032
1.65826
1.66095
1.71005
2.08324
3.1096
4.18833
1.77414
1.76827
1.76245
1.75668
1.75096
1.74531
1.73976
1.73443
1.7294
1.72477
1.72051
1.71628
1.71175
1.70691
1.70197
1.69706
1.69218
1.68733
1.68258
1.67793
1.67341
1.6691
1.66514
1.66177
1.65985
1.6675
1.78777
2.39876
3.70445
4.86048
1.77414
1.76827
1.76245
1.75668
1.75096
1.74533
1.73981
1.73456
1.72972
1.72544
1.72173
1.71815
1.71415
1.70966
1.70495
1.70018
1.69541
1.69065
1.68599
1.68144
1.67702
1.67281
1.66893
1.66564
1.66451
1.68465
1.9111
2.763
4.24646
5.34815
1.77414
1.76827
1.76245
1.75668
1.75097
1.74536
1.7399
1.73479
1.73028
1.72669
1.72415
1.72185
1.71885
1.71502
1.71072
1.70621
1.70164
1.69704
1.69258
1.68821
1.684
1.68001
1.67637
1.67344
1.67448
1.72204
2.0882
3.15055
4.7271
5.79148
1.77414
1.76827
1.76246
1.75669
1.75099
1.74541
1.74005
1.73517
1.73124
1.72894
1.72877
1.72901
1.72789
1.72529
1.72176
1.71776
1.71354
1.70933
1.70529
1.70142
1.69782
1.69461
1.69198
1.69053
1.69684
1.79637
2.31686
3.54292
5.13713
6.22457
1.77414
1.76827
1.76246
1.75669
1.75101
1.74547
1.74024
1.73573
1.7328
1.73295
1.73798
1.7437
1.74629
1.74588
1.74386
1.74095
1.73764
1.73477
1.73243
1.73105
1.73101
1.73269
1.73649
1.74336
1.76406
1.9248
2.59886
3.94041
5.49476
6.66712
1.77414
1.76828
1.76246
1.7567
1.75103
1.74555
1.74049
1.73653
1.73523
1.74039
1.75756
1.77449
1.78443
1.78804
1.78889
1.78947
1.79115
1.79628
1.80706
1.82542
1.85252
1.88814
1.93218
1.98457
2.05059
2.22187
2.99713
4.38759
5.86681
7.23774
1.77414
1.76828
1.76247
1.75671
1.75106
1.74563
1.74079
1.73757
1.73891
1.75434
1.79897
1.83634
1.86152
1.87352
1.88785
1.91599
1.95908
2.02426
2.12462
2.25937
2.42212
2.60939
2.81902
3.0419
3.23047
3.42273
3.98383
5.23354
6.83121
8.19973
1.77414
1.76829
1.76249
1.75673
1.75108
1.74571
1.74107
1.73864
1.74374
1.77548
1.8741
1.97995
2.04432
2.07435
2.23044
2.48106
2.8014
3.16993
3.58049
4.02808
4.50444
4.99654
5.4986
5.98543
6.38035
6.47403
6.66478
7.37751
8.53158
9.57254
1.77415
1.76829
1.7625
1.75676
1.75111
1.74576
1.74126
1.73943
1.74767
1.80019
1.99598
2.19853
2.46227
2.54764
2.87139
3.3234
3.83472
4.38924
4.98604
5.61899
6.27751
6.94639
7.62294
8.26988
8.80841
8.90868
8.95442
9.41291
10.2134
10.9745
1.77415
1.76829
1.76249
1.75675
1.75111
1.74577
1.74128
1.73948
1.74788
1.80038
1.99529
2.28885
3.2573
3.967
5.69852
7.15829
8.44607
9.5899
10.6163
11.5248
12.3341
13.0316
13.6337
14.1146
14.4042
14.1207
13.0655
12.3397
12.0923
12.2799
1.77414
1.76828
1.76246
1.75671
1.75108
1.74572
1.7411
1.73876
1.74423
1.7769
1.88053
2.06084
2.51541
3.14691
4.78415
6.21756
7.53289
8.72438
9.8089
10.7982
11.6971
12.4965
13.203
13.8069
14.2461
14.1152
13.1379
12.4904
12.3089
12.5057
1.77414
1.76828
1.76246
1.75671
1.75106
1.74565
1.74083
1.73773
1.7395
1.7561
1.80593
1.87072
1.95541
2.03575
2.19913
2.44548
2.74894
3.10429
3.50203
3.93602
4.40913
4.92822
5.49169
6.09723
6.67909
6.93468
7.37445
8.40854
9.81256
10.9886
1.77414
1.76828
1.76246
1.7567
1.75104
1.74556
1.74054
1.73668
1.73572
1.74191
1.76214
1.7891
1.81093
1.82354
1.83816
1.86237
1.89588
1.94159
2.00282
2.09124
2.21041
2.35891
2.53827
2.74712
2.94268
3.25159
4.03752
5.47789
7.34036
9.01836
1.77414
1.76827
1.76246
1.75669
1.75101
1.74549
1.74028
1.73585
1.73317
1.73399
1.7407
1.75042
1.75717
1.75954
1.75964
1.75907
1.75893
1.7606
1.76458
1.77249
1.78614
1.80701
1.83799
1.88226
1.95496
2.29279
3.28417
4.72388
6.11598
7.62885
1.77414
1.76827
1.76246
1.75669
1.75099
1.74542
1.74009
1.73527
1.73152
1.72964
1.73039
1.73238
1.73306
1.73171
1.72889
1.72539
1.72172
1.71823
1.7151
1.71248
1.71072
1.7102
1.71158
1.71726
1.7604
2.1037
3.06008
4.43411
5.69876
6.84547
1.77414
1.76827
1.76245
1.75668
1.75098
1.74537
1.73993
1.73488
1.73049
1.72719
1.72521
1.72381
1.72176
1.71859
1.7146
1.71026
1.70584
1.70141
1.69714
1.69303
1.68914
1.6856
1.6826
1.68174
1.71202
2.01041
2.88603
4.1806
5.39463
6.3442
1.77414
1.76827
1.76245
1.75668
1.75097
1.74534
1.73984
1.73463
1.72988
1.72581
1.72249
1.71949
1.71609
1.712
1.70748
1.70281
1.69809
1.69338
1.68879
1.6843
1.67995
1.67581
1.67201
1.66959
1.6891
1.92607
2.69542
3.90585
5.09533
5.91832
1.77414
1.76827
1.76245
1.75668
1.75096
1.74533
1.73979
1.73449
1.72954
1.72508
1.72111
1.71731
1.71321
1.70866
1.70388
1.69905
1.69422
1.6894
1.68469
1.68007
1.67558
1.67128
1.66727
1.66418
1.67342
1.83803
2.4677
3.56371
4.72912
5.48134
1.77414
1.76828
1.76246
1.75669
1.75097
1.74533
1.73978
1.73445
1.72942
1.7248
1.72056
1.71645
1.71208
1.70736
1.70248
1.69758
1.6927
1.68783
1.68306
1.67838
1.67383
1.66946
1.66538
1.6619
1.66425
1.75555
2.20984
3.1307
4.2022
4.96388
1.77414
1.76827
1.76245
1.75668
1.75095
1.74529
1.73971
1.73429
1.72907
1.7241
1.71932
1.71456
1.70963
1.70454
1.69941
1.69431
1.68927
1.68425
1.67933
1.67451
1.66984
1.6654
1.66139
1.65814
1.65654
1.66297
1.75732
2.29783
3.58899
4.85309
1.77414
1.76827
1.76245
1.75668
1.75095
1.7453
1.73972
1.73433
1.72917
1.72429
1.71966
1.71507
1.71029
1.7053
1.70024
1.69519
1.69018
1.6852
1.68031
1.67551
1.67086
1.66643
1.66238
1.65906
1.65791
1.67508
1.87726
2.72019
4.29375
5.60161
1.77414
1.76827
1.76245
1.75668
1.75096
1.74531
1.73976
1.73443
1.72939
1.72475
1.72049
1.71632
1.71189
1.70715
1.70225
1.69731
1.69238
1.68746
1.68263
1.6779
1.67331
1.66894
1.66492
1.66168
1.66226
1.70753
2.06424
3.18059
4.91496
6.14538
1.77414
1.76827