/*--------------------------------*- C++ -*----------------------------------*\
| =========                 |                                                 |
| \\      /  F ield         | OpenFOAM: The Open Source CFD Toolbox           |
|  \\    /   O peration     | Version:  2512                                  |
|   \\  /    A nd           | Website:  www.openfoam.com                      |
|    \\/     M anipulation  |                                                 |
\*---------------------------------------------------------------------------*/
FoamFile
{
    version     2.0;
    format      ascii;
    arch        "LSB;label=32;scalar=64";
    class       volScalarField;
    location    "120";
    object      p;
}
// * * * * * * * * * * * * * * * * * * * * * * * * * * * * * * * * * * * * * //

dimensions      [0 2 -2 0 0 0 0];

internalField   nonuniform List<scalar> 
84826
(
5.80656
5.80253
5.79961
5.79067
5.75647
5.66571
5.46822
5.08663
4.42105
3.37244
1.91348
0.177331
-1.38521
-2.18529
-2.03918
-1.31036
-0.501738
0.111382
0.540247
0.901354
1.25145
1.5879
1.90407
2.20018
2.45516
2.65902
2.68189
2.69288
1.76375
2.46682
5.81749
5.81575
5.81902
5.8213
5.80497
5.74073
5.57911
5.23813
4.60286
3.54102
1.98666
0.0431309
-1.71895
-2.54209
-2.26266
-1.38232
-0.486647
0.142166
0.558025
0.910855
1.2587
1.59063
1.89749
2.18203
2.42917
2.63712
2.68148
2.73457
1.83649
2.57848
5.83824
5.84103
5.85639
5.88077
5.90018
5.8902
5.80425
5.55327
4.99288
3.91812
2.16929
-0.2458
-2.45703
-3.31036
-2.72605
-1.51329
-0.436711
0.20983
0.585548
0.918515
1.26716
1.59928
1.89661
2.16308
2.39244
2.5994
2.66915
2.78646
1.924
2.77693
5.86712
5.87648
5.9093
5.96598
6.03896
6.11325
6.15074
6.05805
5.6497
4.59567
2.54449
-0.745086
-3.74606
-4.58045
-3.44976
-1.67658
-0.30816
0.343969
0.637645
0.933999
1.28508
1.62285
1.91476
2.16398
2.37109
2.57031
2.65963
2.84863
2.02785
3.03739
5.90168
5.91919
5.97377
6.07154
6.21498
6.40547
6.6247
6.7883
6.6693
5.75138
3.27899
-1.62183
-5.91334
-6.49308
-4.42715
-1.80055
-0.0403475
0.551118
0.694001
0.936179
1.28828
1.62453
1.90101
2.12538
2.30417
2.48681
2.58299
2.84043
2.07531
3.27452
5.93885
5.96544
6.04452
6.18966
6.41769
6.75613
7.22602
7.78461
8.18847
7.69352
4.73486
-3.09765
-9.53046
-9.37247
-5.68612
-1.7494
0.480974
0.876199
0.806535
1.01747
1.388
1.708
1.93951
2.11179
2.24209
2.39108
2.47361
2.78098
2.07622
3.43053
5.97519
6.01097
6.11504
6.30985
6.63062
7.14269
7.93708
9.0767
10.398
10.8985
7.42183
-5.50461
-14.9123
-13.5519
-7.2371
-1.24086
1.24428
1.04583
0.727226
1.05689
1.54886
1.8683
2.01845
2.08356
2.10739
2.16714
2.18617
2.50121
1.86333
3.32911
6.00724
6.05131
6.17813
6.41919
6.83043
7.52396
8.69674
10.6239
13.5101
16.4678
12.5133
-4.14429
-20.5552
-19.4505
-9.11487
0.742987
2.89577
1.09238
0.199852
0.726587
1.47239
1.89391
2.0365
2.03713
1.96178
1.90283
1.78956
2.01768
1.30689
2.99121
6.03185
6.08229
6.22675
6.50424
6.98924
7.83851
9.37443
12.1862
17.3915
25.485
25.4306
-10.7874
-34.0992
-30.5134
-12.5734
3.82861
5.58874
1.62734
-0.219746
0.210752
1.03283
1.51055
1.67405
1.62838
1.42094
1.18936
0.898106
0.999353
0.0104091
2.47612
6.0466
6.10063
6.25502
6.55318
7.08063
8.0217
9.78214
13.2089
20.3831
34.8986
49.0973
-1.11171
-73.429
-43.6611
-13.7601
4.61395
6.18293
2.03622
0.249383
0.699914
1.48217
1.95513
2.15168
2.11573
1.86062
1.51958
1.04179
0.955379
-0.444504
2.42397
6.05014
6.10452
6.25977
6.55952
7.0899
8.03779
9.81352
13.2738
20.5375
35.3297
57.2542
23.2681
-46.7476
-12.2971
7.65135
7.93638
3.38785
1.4921
1.674
2.19635
2.54232
2.70112
2.63062
2.31271
1.89999
1.34444
1.22136
-0.226345
2.47018
6.04232
6.09386
6.24111
6.5239
7.01861
7.88722
9.46329
12.3641
17.7895
26.4724
38.6498
2.8858
-59.7703
-48.3803
-13.1904
4.42675
5.69484
2.49431
1.19497
1.4049
1.85327
2.18598
2.38757
2.36317
2.07753
1.69948
1.20078
1.15129
0.158452
2.2392
6.02426
6.0701
6.20146
6.45106
6.87757
7.59921
8.82645
10.8673
13.9962
17.4721
20.1047
-3.71667
-29.4113
-28.4867
-11.6501
0.571103
3.09378
1.651
0.93436
1.16231
1.56575
1.89624
2.11738
2.13698
1.90616
1.57058
1.11537
1.08485
0.501873
1.85222
5.99814
6.03624
6.14613
6.35158
6.69066
7.23499
8.08794
9.33845
10.865
11.7336
8.75861
-4.25499
-16.4137
-16.4472
-9.01236
-1.04047
1.66029
1.15887
0.671311
0.808723
1.11819
1.3747
1.54115
1.56511
1.39848
1.16926
0.827628
0.933569
0.367734
1.74482
5.96694
5.99626
6.08205
6.23916
6.48699
6.85834
7.38359
8.03644
8.59468
8.32468
5.59119
-2.37043
-10.2609
-11.0892
-6.77659
-1.85376
0.423132
0.519563
0.368794
0.590591
0.908759
1.12555
1.22918
1.22575
1.09231
0.941246
0.67014
0.882127
0.18621
2.11618
5.93399
5.95454
6.01639
6.12672
6.29011
6.51189
6.7799
7.01884
7.00839
6.22562
3.84004
-1.20895
-6.29872
-7.56917
-5.29235
-2.14815
-0.267676
0.190888
0.277056
0.501014
0.74202
0.869681
0.89664
0.862814
0.753023
0.664896
0.44358
0.750664
-0.0260292
2.54081
5.90266
5.91532
5.95572
6.02509
6.11743
6.22048
6.29962
6.26525
5.93065
4.95155
2.91615
-0.513728
-3.99347
-5.3122
-4.15876
-2.09301
-0.612521
-0.0533252
0.130166
0.324717
0.510997
0.608179
0.623818
0.598926
0.518589
0.483132
0.304157
0.728169
-0.0928767
2.94064
5.87602
5.88236
5.90545
5.94234
5.98025
5.99648
5.94594
5.73996
5.2289
4.19116
2.42404
-0.121836
-2.65254
-3.84766
-3.31516
-1.95032
-0.804618
-0.240946
0.00190192
0.19586
0.367203
0.464597
0.484202
0.463112
0.391525
0.385097
0.230434
0.752688
-0.122307
3.1739
5.85654
5.85869
5.86978
5.88433
5.88573
5.8457
5.71501
5.4101
4.80896
3.7628
2.17316
0.107085
-1.8926
-2.97313
-2.77839
-1.83229
-0.904756
-0.354947
-0.0763349
0.122376
0.285065
0.378991
0.39451
0.367739
0.296142
0.310272
0.173741
0.770493
-0.14483
3.26532
5.84578
5.84605
5.85106
5.85424
5.83734
5.76971
5.60086
5.25097
4.61234
3.56977
2.06852
0.214974
-1.55038
-2.57059
-2.5219
-1.76718
-0.944631
-0.406817
-0.113516
0.0873335
0.244647
0.334608
0.345882
0.315809
0.245679
0.27562
0.145774
0.791011
-0.171373
3.33656
5.79754
5.79288
5.78836
5.77658
5.73839
5.64285
5.44053
5.05605
4.3924
3.35337
1.9144
0.209865
-1.31978
-2.104
-1.96684
-1.26261
-0.477958
0.1201
0.543903
0.906328
1.26024
1.59997
1.91707
2.21085
2.46529
2.66836
2.71935
2.69074
1.8616
2.46815
5.80832
5.80588
5.80739
5.80653
5.78567
5.71572
5.54778
5.2018
4.56644
3.5142
1.98344
0.0808071
-1.63879
-2.44279
-2.17861
-1.32968
-0.461781
0.150865
0.560966
0.912667
1.26119
1.59585
1.90719
2.19533
2.44692
2.65505
2.72309
2.72916
1.94418
2.54313
5.82873
5.83069
5.84399
5.86457
5.87825
5.86052
5.76503
5.50434
4.93895
3.87264
2.155
-0.196572
-2.34398
-3.17283
-2.61676
-1.45141
-0.41272
0.216151
0.591975
0.928082
1.27426
1.60209
1.90023
2.17252
2.41341
2.62635
2.71989
2.7842
2.04178
2.72315
5.85717
5.86549
5.89581
5.94772
6.01312
6.07633
6.09871
5.98767
5.56398
4.51481
2.5081
-0.679161
-3.57791
-4.37804
-3.30181
-1.60098
-0.289272
0.335671
0.635559
0.946016
1.29831
1.62691
1.91216
2.16502
2.38856
2.60125
2.7216
2.85916
2.16384
2.98671
5.89122
5.9074
5.95888
6.05064
6.18397
6.35847
6.55375
6.68413
6.53057
5.6057
3.20433
-1.53939
-5.66166
-6.18322
-4.22395
-1.71175
-0.032332
0.534973
0.701807
0.965952
1.31545
1.63604
1.89975
2.12463
2.32092
2.52266
2.66009
2.87892
2.248
3.25716
5.92783
5.95276
6.02794
6.16558
6.38042
6.69628
7.12901
7.6304
7.9655
7.43953
4.58902
-3.04904
-9.21373
-8.90753
-5.40682
-1.62547
0.435853
0.795554
0.792129
1.04619
1.41449
1.72051
1.94799
2.12926
2.28157
2.45605
2.59179
2.88925
2.3431
3.5308
5.96364
5.99743
6.09679
6.28206
6.58602
7.06765
7.80709
8.85588
10.0498
10.4984
7.15646
-5.76105
-14.586
-12.9283
-7.10043
-1.02076
1.31975
1.06919
0.778027
1.07285
1.49691
1.7866
1.94896
2.04825
2.1178
2.22883
2.32942
2.69653
2.27282
3.60542
5.99521
6.037
6.15846
6.38812
6.77797
7.43097
8.52678
10.3235
13.0193
15.9478
13.0196
-5.08275
-20.4027
-18.0123
-9.91088
0.207226
2.68343
1.32282
0.605804
1.01212
1.58389
1.92886
2.07065
2.09979
2.06446
2.05414
2.02058
2.3303
1.83718
3.47414
6.01946
6.0674
6.20596
6.47083
6.93063
7.72852
9.16256
11.7931
16.7892
25.4902
27.7684
-7.70941
-30.6215
-27.8428
-12.0987
2.99721
4.66954
1.57478
0.120037
0.423224
1.0302
1.40769
1.56437
1.57472
1.47417
1.36581
1.18252
1.3653
0.514407
2.95152
6.03401
6.08544
6.23366
6.51853
7.01907
7.90398
9.54298
12.7387
19.7058
36.3399
62.8007
-51.6151
-98.1218
-50.5883
-13.2958
5.11138
5.98033
1.97068
0.264198
0.553784
1.18056
1.60597
1.81784
1.82199
1.62272
1.34997
0.941578
0.929174
-0.373547
2.63957
6.03752
6.08931
6.23844
6.5249
7.02828
7.91956
9.57311
12.8011
19.8504
36.7239
75.0933
-51.0619
-11.3652
7.07914
7.68833
3.51632
1.62493
1.60553
1.97048
2.25699
2.41132
2.35369
2.05862
1.67237
1.12737
1.01528
-0.471851
2.60441
6.02986
6.07887
6.22047
6.49078
6.95933
7.77542
9.24797
11.9644
17.1694
26.4233
45.2881
-16.587
-46.6882
-47.6492
-10.805
6.06511
6.4164
2.81511
1.24276
1.21867
1.54292
1.83863
2.07125
2.0969
1.87175
1.54741
1.05674
1.032
-0.214699
2.54309
6.01212
6.05565
6.1817
6.41984
6.824
7.50394
8.65227
10.5592
13.4884
16.9251
21.0493
-5.5696
-27.7672
-28.1527
-11.1268
1.11156
3.25634
1.68742
0.966092
1.15931
1.51128
1.78657
1.9747
1.99142
1.78069
1.47686
1.02297
1.04809
0.1991
2.42177
5.98641
6.02251
6.12753
6.32316
6.64488
7.15785
7.95377
9.10953
10.5019
11.3197
8.54163
-4.17756
-15.5404
-15.6304
-8.51104
-0.711716
1.74223
1.16657
0.700808
0.833928
1.10797
1.32426
1.47213
1.50215
1.35187
1.14589
0.810216
0.94633
0.264536
2.30399
5.95571
5.98331
6.06506
6.21442
6.44859
6.79635
7.28255
7.87479
8.35915
8.05714
5.44598
-2.20899
-9.72097
-10.534
-6.4513
-1.71445
0.44492
0.529724
0.401826
0.617769
0.905265
1.09004
1.17436
1.16529
1.03863
0.898079
0.632625
0.873827
0.11381
2.65248
5.92328
5.94245
6.00107
6.10514
6.25793
6.46284
6.70534
6.90847
6.85969
6.06789
3.75747
-1.09146
-5.96247
-7.19934
-5.05306
-2.03709
-0.235293
0.196448
0.276486
0.490087
0.717465
0.835045
0.855566
0.819028
0.708392
0.613945
0.386832
0.715278
-0.212685
3.19296
5.89245
5.90401
5.94178
6.00612
6.09044
6.18166
6.24445
6.18976
5.83718
4.86122
2.87194
-0.437857
-3.79056
-5.07251
-3.98531
-2.00928
-0.593139
-0.0600541
0.120205
0.315222
0.499764
0.59379
0.60312
0.568184
0.478191
0.426272
0.235809
0.701997
-0.332543
3.7579
5.86623
5.87169
5.89259
5.92544
5.95722
5.96505
5.90397
5.6868
5.16883
4.13862
2.40354
-0.0707348
-2.52495
-3.68956
-3.19022
-1.88517
-0.786412
-0.242019
-0.00157355
0.191901
0.359655
0.451166
0.462339
0.429446
0.345955
0.323059
0.159345
0.750986
-0.391927
4.10663
5.84706
5.84847
5.85768
5.86884
5.86534
5.81903
5.68117
5.37009
4.76753
3.73014
2.16485
0.14435
-1.80555
-2.86179
-2.68379
-1.7776
-0.885094
-0.35224
-0.0784166
0.117496
0.275645
0.363863
0.372985
0.336936
0.253871
0.253297
0.108669
0.791941
-0.429347
4.2677
5.83648
5.83605
5.83932
5.83942
5.81818
5.74523
5.57077
5.21697
4.57915
3.54556
2.0648
0.246246
-1.48061
-2.4807
-2.44244
-1.71808
-0.924702
-0.402928
-0.11537
0.082168
0.235178
0.320103
0.325855
0.287824
0.205683
0.22017
0.076337
0.820716
-0.520222
4.45772
5.77919
5.77297
5.76447
5.74608
5.69889
5.59233
5.3782
4.9844
4.32008
3.2966
1.89685
0.25668
-1.20679
-1.96164
-1.84677
-1.19121
-0.449392
0.126506
0.545976
0.913162
1.27445
1.62054
1.94149
2.23759
2.49918
2.71119
2.81407
2.74215
2.21936
2.27725
5.78966
5.78552
5.78275
5.77468
5.74372
5.66096
5.47841
5.11917
4.47898
3.44018
1.95274
0.1302
-1.50633
-2.27593
-2.04419
-1.25535
-0.435923
0.153945
0.560484
0.915817
1.2693
1.6105
1.93054
2.22825
2.49086
2.70806
2.82167
2.78417
2.28434
2.36068
5.80943
5.80944
5.81783
5.82996
5.83129
5.79683
5.68046
5.39786
4.81747
3.75789
2.09275
-0.139589
-2.16298
-2.9524
-2.45303
-1.37223
-0.393962
0.213538
0.595354
0.939215
1.28481
1.61112
1.91618
2.20363
2.4641
2.69467
2.83413
2.85353
2.39293
2.53712
5.83697
5.84298
5.86748
5.90911
5.95868
5.9989
5.98981
5.84049
5.38058
4.32346
2.38508
-0.609325
-3.30809
-4.06668
-3.09461
-1.52179
-0.295632
0.310128
0.638699
0.974372
1.32641
1.64294
1.9251
2.19077
2.44229
2.68587
2.85917
2.95527
2.53844
2.80641
5.86992
5.88335
5.92788
6.0069
6.11964
6.26206
6.40932
6.47337
6.24417
5.27755
2.95814
-1.43372
-5.21931
-5.70771
-3.93869
-1.62059
-0.0769982
0.47535
0.70653
1.01733
1.36835
1.67161
1.92614
2.16071
2.39079
2.63627
2.84135
3.0411
2.68518
3.13117
5.90535
5.927
5.994
6.116
6.30416
6.57565
6.93604
7.32548
7.51487
6.86538
4.08383
-2.93193
-8.46502
-8.22324
-5.03888
-1.48509
0.36539
0.715491
0.812716
1.11388
1.4677
1.75121
1.97184
2.16842
2.35935
2.58689
2.81103
3.14278
2.88579
3.52717
5.94
5.96995
6.05972
6.22645
6.49687
6.91867
7.5512
8.41887
9.34167
9.48005
6.15691
-5.58352
-13.3604
-11.924
-6.71299
-0.902784
1.27128
1.15278
1.00319
1.27931
1.62625
1.8809
2.048
2.17294
2.28212
2.44899
2.66254
3.14613
3.03362
3.84322
5.97055
6.00795
6.11828
6.32647
6.67653
7.25359
8.20027
9.71787
11.9149
14.1113
11.3514
-5.71309
-19.4079
-16.6299
-8.65962
0.0092563
2.20633
1.41334
0.984445
1.27269
1.67444
1.9775
2.15557
2.23622
2.24841
2.28566
2.34933
2.76898
2.58465
3.8452
5.99403
6.03722
6.16343
6.40372
6.81712
7.52533
8.7703
11.0091
15.1811
22.2163
24.6132
-9.91549
-31.9565
-26.4277
-6.86561
4.13264
4.82897
2.54575
1.41912
1.44342
1.73804
1.98859
2.11081
2.10717
1.98276
1.84452
1.66161
1.79924
1.04418
3.28405
6.00815
6.0546
6.18999
6.4485
6.89757
7.68148
9.10428
11.8305
17.7329
31.6822
59.1362
-63.207
-41.6604
-57.2269
-8.72451
6.32923
6.54298
3.21259
1.61251
1.53508
1.8045
2.05976
2.20844
2.18687
1.98035
1.70901
1.31698
1.23521
-0.0489798
2.95865
6.0116
6.05841
6.19461
6.45535
6.90957
7.69994
9.1332
11.8892
17.8664
31.9693
70.9251
-55.804
-10.7239
6.67182
7.1601
3.56719
1.84882
1.66803
1.87473
2.10243
2.26241
2.24214
2.00361
1.67025
1.16585
1.00285
-0.493966
2.92496
6.00428
6.04859
6.17797
6.42423
6.84753
7.57268
8.85078
11.1687
15.5287
23.0054
40.8083
-31.9208
-35.4677
-44.0597
-9.25527
5.37202
5.45504
2.34065
1.05941
1.04025
1.30003
1.54942
1.77938
1.84696
1.69198
1.42746
0.96509
0.896605
-0.4855
2.9509
5.98719
6.02637
6.14129
6.3577
6.721
7.32283
8.31803
9.93741
12.3468
15.0012
18.4582
-6.64541
-24.8993
-25.6972
-10.33
0.741959
2.68754
1.39353
0.865908
1.08508
1.39558
1.62657
1.79389
1.827
1.67129
1.4306
1.01027
1.05171
-0.00933829
3.08925
5.9624
5.99458
6.08977
6.26636
6.55363
7.005
7.68991
8.65647
9.76219
10.2466
7.48555
-3.85304
-13.9384
-14.28
-7.99431
-0.813288
1.44074
0.994704
0.672156
0.844448
1.09125
1.25859
1.37238
1.3998
1.27771
1.10844
0.80425
0.998129
0.144782
3.16928
5.93276
5.95699
6.03032
6.16353
6.37005
6.67158
7.08172
7.55532
7.88257
7.44399
4.89284
-2.06023
-8.80018
-9.68876
-6.05497
-1.69561
0.306483
0.437218
0.376862
0.597258
0.853255
1.00475
1.06805
1.05425
0.940317
0.811812
0.564546
0.865041
-0.0777786
3.63267
5.90147
5.91778
5.96918
6.05998
6.19122
6.36235
6.55379
6.68514
6.55271
5.71073
3.47841
-0.980379
-5.4491
-6.64347
-4.73627
-1.96495
-0.290747
0.133658
0.23646
0.450774
0.667349
0.776319
0.789284
0.743829
0.624194
0.512107
0.268055
0.681677
-0.439898
4.39478
5.87168
5.88083
5.91251
5.96604
6.03364
6.10039
6.12917
6.03225
5.63752
4.64798
2.72627
-0.372665
-3.48811
-4.71281
-3.74663
-1.93122
-0.614481
-0.102082
0.0899776
0.291011
0.4737
0.562825
0.562398
0.509231
0.395375
0.309299
0.0971659
0.703752
-0.576316
5.12975
5.84633
5.84973
5.86545
5.88935
5.90796
5.89774
5.81371
5.57158
5.03456
4.00698
2.32431
-0.0198412
-2.33005
-3.44125
-3.00474
-1.80726
-0.78395
-0.262364
-0.018416
0.17707
0.340106
0.423054
0.421356
0.368718
0.259528
0.201023
0.0184673
0.804379
-0.688499
5.6216
5.8278
5.8274
5.83204
5.83552
5.82115
5.76084
5.60663
5.27988
4.66953
3.64286
2.1206
0.186446
-1.66819
-2.67822
-2.53498
-1.70348
-0.870313
-0.360904
-0.0902418
0.103737
0.255602
0.334879
0.332457
0.278794
0.172536
0.139511
-0.0205302
0.90639
-0.754722
5.90404
5.81751
5.81541
5.81442
5.80744
5.77644
5.69136
5.50348
5.13822
4.49727
3.47726
2.0358
0.286374
-1.36405
-2.32583
-2.31106
-1.64601
-0.90407
-0.406406
-0.125235
0.0685993
0.215222
0.291956
0.287562
0.233492
0.129711
0.112832
-0.055325
0.984723
-0.864477
6.25398
5.75249
5.74385
5.72921
5.70091
5.64031
5.51737
5.28559
4.87704
4.21002
3.20791
1.86539
0.318662
-1.05039
-1.7654
-1.68355
-1.09582
-0.411768
0.136114
0.550028
0.920559
1.28696
1.63817
1.96499
2.26772
2.54212
2.78521
2.93771
2.82976
2.75118
1.65636
5.76247
5.75575
5.7464
5.72755
5.68167
5.58002
5.37592
4.99679
4.34828
3.32826
1.9041
0.198632
-1.31827
-2.04568
-1.86219
-1.1567
-0.40309
0.157943
0.560785
0.9197
1.27707
1.6234
1.9523
2.26167
2.54291
2.78693
2.94242
2.86503
2.76685
1.80921
5.78129
5.77839
5.77934
5.77899
5.76231
5.70371
5.5574
5.24307
4.64076
3.59239
2.00208
-0.0584579
-1.9026
-2.64505
-2.23004
-1.26832
-0.372656
0.208889
0.594703
0.942401
1.28615
1.61342
1.92881
2.23565
2.52449
2.7821
2.95665
2.93919
2.86716
2.01268
5.8075
5.81013
5.82592
5.85251
5.87934
5.88698
5.83378
5.63116
5.12219
4.0548
2.20796
-0.500128
-2.90993
-3.62665
-2.80281
-1.41669
-0.31102
0.276781
0.633649
0.982133
1.32494
1.6317
1.91963
2.20903
2.49782
2.77643
2.98627
3.0514
3.00706
2.29515
5.83886
5.84834
5.88254
5.94319
6.02671
6.1244
6.20535
6.1795
5.84836
4.82091
2.6097
-1.23764
-4.53251
-5.05625
-3.53654
-1.50059
-0.149384
0.381399
0.669767
1.0113
1.35578
1.64542
1.90405
2.16271
2.43734
2.73388
2.99534
3.17838
3.16827
2.65668
5.87257
5.88964
5.94452
6.04419
6.19503
6.40543
6.66765
6.90737
6.8964
6.06434
3.37967
-2.53361
-7.18432
-7.196
-4.50518
-1.39613
0.225478
0.594806
0.767634
1.08853
1.42658
1.6981
1.92569
2.14411
2.38101
2.67263
2.99058
3.34663
3.39892
3.08287
5.90554
5.93025
6.00611
6.14649
6.37041
6.71075
7.201
7.82229
8.36579
8.02226
4.73189
-4.61556
-11.0245
-10.1187
-5.78414
-1.13753
0.734462
0.848356
0.872577
1.16388
1.49589
1.76325
1.96747
2.13566
2.30693
2.56109
2.9249
3.53238
3.66159
3.45782
5.9346
5.96616
6.06097
6.2391
6.53391
7.0088
7.75838
8.88806
10.342
11.2973
8.68322
-4.95445
-15.8157
-14.5558
-6.4369
-0.32334
1.26661
0.945279
0.784136
1.03701
1.3879
1.70545
1.94498
2.09454
2.18974
2.32905
2.58266
3.28516
3.47544
3.6514
5.95694
5.99372
6.1031
6.31073
6.6615
7.25054
8.24891
9.94147
12.7454
16.38
16.7488
-9.41884
-23.6229
-23.3554
-5.88255
2.20647
2.91478
1.68112
1.08073
1.11472
1.35604
1.62761
1.84017
1.94444
1.93124
1.90762
1.87068
2.23888
2.04823
3.377
5.97042
6.01014
6.12759
6.35122
6.73278
7.38533
8.5359
10.6251
14.6162
21.7354
33.4229
-46.5022
-17.0565
-51.8575
-7.57508
3.72177
4.25251
2.23426
1.26714
1.20656
1.40085
1.66597
1.89763
1.98318
1.90026
1.75431
1.50533
1.60761
0.928162
3.25567
5.9738
6.01396
6.13226
6.35758
6.74462
7.40446
8.56293
10.678
14.7319
21.9728
38.6771
-72.3218
-36.8235
-53.8207
-9.30031
4.07626
4.81576
2.46256
1.38693
1.30198
1.46894
1.68289
1.89171
1.96683
1.8543
1.6399
1.24202
1.16845
0.165311
3.27179
5.96693
6.00491
6.11699
6.32945
6.69027
7.29596
8.32269
10.0839
13.0436
17.0499
25.0741
-32.4587
-44.6531
-39.5005
-8.13702
3.1548
3.73888
1.68385
0.87579
0.93586
1.1484
1.34927
1.56093
1.66466
1.58515
1.39787
0.985998
0.906923
-0.181279
3.37325
5.95081
5.98403
6.08293
6.26842
6.57565
7.07308
7.86547
9.08373
10.7166
12.0633
13.5372
-4.49864
-20.2548
-22.2889
-8.68354
-0.146686
1.64085
0.892529
0.651687
0.944347
1.24026
1.43267
1.57614
1.6319
1.54548
1.37753
1.0325
1.12837
0.231471
3.88729
5.92738
5.95417
6.03513
6.1847
6.42414
6.79133
7.32828
8.03602
8.73625
8.6849
5.85685
-3.14821
-11.5625
-12.1538
-7.09203
-1.20916
0.847549
0.692047
0.559539
0.780476
1.00948
1.13609
1.21271
1.23245
1.14449
1.01567
0.774875
1.07433
0.270629
4.35878
5.89931
5.91883
5.97966
6.08977
6.25753
6.49531
6.80211
7.11585
7.22427
6.57278
4.0805
-1.77471
-7.46796
-8.45769
-5.4817
-1.73486
0.069415
0.288082
0.307242
0.530405
0.760454
0.885571
0.929264
0.908839
0.801007
0.673867
0.442121
0.87478
-0.0717909
5.05426
5.86964
5.88186
5.92253
5.99418
6.09483
6.21878
6.3395
6.37325
6.12607
5.20568
3.06587
-0.836713
-4.72724
-5.88941
-4.29682
-1.88572
-0.395206
0.0314141
0.170206
0.385897
0.590851
0.691051
0.69593
0.638077
0.502591
0.368034
0.128853
0.729676
-0.432294
5.92416
5.84138
5.84701
5.86957
5.9073
5.95086
5.98286
5.96392
5.80788
5.35544
4.34479
2.50877
-0.292646
-3.07456
-4.21451
-3.41409
-1.83089
-0.652906
-0.160063
0.0490327
0.2525
0.428603
0.510139
0.49866
0.426212
0.285912
0.168206
-0.0340615
0.765262
-0.678551
6.69902
5.81732
5.81766
5.82554
5.83621
5.83562
5.79935
5.6824
5.40414
4.83931
3.81623
2.2057
0.0414001
-2.06317
-3.09803
-2.75221
-1.70515
-0.783497
-0.289412
-0.042514
0.151573
0.306211
0.378055
0.361448
0.285982
0.147457
0.0531106
-0.117315
0.897548
-0.908832
7.29007
5.79969
5.79656
5.79422
5.78621
5.75579
5.67486
5.49654
5.14636
4.52331
3.51145
2.05152
0.240762
-1.47615
-2.42474
-2.33225
-1.60355
-0.849783
-0.371319
-0.106125
0.0830568
0.225362
0.292637
0.274839
0.198712
0.065085
-0.00337362
-0.150764
1.06791
-1.05212
7.72842
5.78989
5.78523
5.7777
5.76009
5.7146
5.61151
5.40364
5.02049
4.37318
3.37153
1.98737
0.33759
-1.20501
-2.11319
-2.13208
-1.54837
-0.875544
-0.409844
-0.138002
0.0493083
0.186322
0.251471
0.23258
0.156069
0.0244638
-0.0333039
-0.190482
1.20747
-1.21651
8.23386
5.71884
5.70729
5.6851
5.64466
5.56788
5.42558
5.17364
4.75025
4.08401
3.11196
1.8404
0.40481
-0.854583
-1.52635
-1.48432
-0.975155
-0.357946
0.156724
0.562495
0.933722
1.30333
1.66104
1.99966
2.31635
2.61443
2.89533
3.0986
3.00529
3.42173
0.496885
5.72821
5.71838
5.70094
5.66891
5.60505
5.48106
5.25232
4.85267
4.19926
3.2081
1.86475
0.297969
-1.08011
-1.76368
-1.63931
-1.03164
-0.354881
0.172424
0.569888
0.930837
1.29134
1.64378
1.98465
2.30967
2.61552
2.8947
3.09464
3.00683
3.34708
0.76205
5.74586
5.73946
5.73126
5.71567
5.67735
5.59029
5.40965
5.0616
4.44076
3.41663
1.92594
0.0697209
-1.56826
-2.26457
-1.95448
-1.13701
-0.340302
0.210181
0.59698
0.946766
1.29232
1.62721
1.95849
2.28603
2.60341
2.89426
3.09958
3.06453
3.4093
1.01629
5.77043
5.769
5.77409
5.78237
5.78194
5.75133
5.64772
5.38779
4.83281
3.77307
2.05429
-0.310579
-2.39324
-3.07553
-2.43629
-1.27843
-0.312045
0.255055
0.629539
0.980991
1.31892
1.62964
1.93518
2.24987
2.57446
2.88721
3.11611
3.16322
3.50772
1.30263
5.7998
5.80451
5.82605
5.86439
5.91305
5.95851
5.9649
5.84227
5.41059
4.3444
2.30868
-0.91094
-3.67636
-4.25276
-3.06034
-1.38168
-0.213435
0.321459
0.657539
1.01647
1.35882
1.64915
1.91963
2.20152
2.51745
2.85065
3.12686
3.28323
3.63338
1.67209
5.83136
5.84288
5.88284
5.95542
6.06194
6.20154
6.35346
6.432
6.22034
5.23294
2.78104
-1.87333
-5.63637
-5.92387
-3.86914
-1.40281
0.0135126
0.454537
0.704733
1.05535
1.40879
1.69576
1.94015
2.18017
2.45971
2.79742
3.14864
3.45406
3.81884
2.06572
5.86222
5.8806
5.93923
6.04736
6.21616
6.46287
6.79481
7.15362
7.31141
6.56366
3.59124
-3.41327
-8.49016
-8.13328
-4.81121
-1.31968
0.347547
0.667436
0.811003
1.12739
1.48107
1.7775
2.0122
2.21203
2.43384
2.75186
3.20648
3.74283
4.01004
2.35955
5.88944
5.91401
5.98944
6.13039
6.35937
6.71552
7.24701
7.9664
8.69964
8.53622
4.943
-5.99338
-12.5528
-11.1652
-5.68436
-1.01524
0.649633
0.727703
0.744623
1.01418
1.36808
1.70156
1.97166
2.1658
2.34172
2.62569
3.18103
4.05903
4.16792
2.65674
5.9104
5.93967
6.02799
6.19444
6.47172
6.92178
7.63956
8.74665
10.2286
11.3109
9.68538
-6.89816
-16.9372
-16.4751
-6.36763
0.142085
1.68329
1.2931
1.04865
1.16628
1.41576
1.6942
1.93521
2.09486
2.1852
2.34081
2.76233
3.72206
3.75234
3.01432
5.92307
5.95499
6.05059
6.23103
6.53444
7.03828
7.87468
9.25552
11.3681
13.7695
15.0405
-13.4186
-21.6286
-22.3727
-8.5393
0.500358
2.37557
1.59494
1.15627
1.21808
1.40964
1.64366
1.88389
2.03936
2.08801
2.14708
2.39095
3.24552
3.09376
3.45519
5.92632
5.95862
6.05525
6.23761
6.54444
7.05293
7.89775
9.29954
11.4589
13.9697
16.6652
-13.7525
-24.9975
-25.1257
-9.1468
0.890762
2.8645
1.84114
1.29676
1.32957
1.46706
1.62318
1.80658
1.92515
1.9213
1.87358
1.86917
2.48829
2.16885
3.83287
5.92004
5.95031
6.04129
6.21257
6.49742
6.96062
7.70354
8.8662
10.4651
11.8239
13.0374
-6.46225
-22.0748
-23.3543
-7.47093
0.720372
2.24092
1.28427
0.84358
0.970123
1.1558
1.30566
1.46821
1.58049
1.575
1.49435
1.34843
1.82961
1.47319
4.30032
5.90511
5.93116
6.01036
6.15802
6.39791
6.77376
7.34126
8.13246
9.00377
9.12957
6.04357
-4.26754
-13.4415
-13.3518
-7.03215
-0.928534
0.86627
0.591986
0.502858
0.791523
1.05842
1.21528
1.3328
1.40728
1.39272
1.33156
1.24713
1.88746
1.58407
5.16886
5.88336
5.90368
5.96699
6.08347
6.26613
6.53619
6.90784
7.33724
7.61812
7.0781
4.36939
-2.4597
-8.94082
-9.6064
-5.78163
-1.43545
0.378825
0.486328
0.482901
0.710956
0.920359
1.02006
1.06556
1.07409
1.01063
0.92893
0.825444
1.5188
1.0758
5.87487
5.85725
5.87106
5.91648
5.99855
6.12023
6.28387
6.47401
6.61382
6.49693
5.64705
3.31428
-1.33516
-5.87668
-6.90381
-4.67024
-1.71643
-0.150903
0.163114
0.24956
0.465605
0.672404
0.776017
0.800845
0.770249
0.661807
0.540462
0.377231
1.12679
0.389059
6.64546
5.82961
5.83689
5.86441
5.91276
5.97684
6.04554
6.0863
6.01382
5.64944
4.66521
2.67139
-0.613059
-3.85333
-4.94573
-3.71926
-1.75112
-0.476052
-0.0455925
0.12453
0.333738
0.521847
0.609175
0.601958
0.528112
0.376638
0.234715
0.0431769
0.877151
-0.165321
7.4687
5.80325
5.80464
5.816
5.83446
5.84916
5.84021
5.76645
5.54593
5.03675
4.01903
2.29911
-0.157099
-2.55491
-3.58877
-2.98491
-1.68213
-0.670939
-0.203975
0.0159214
0.213446
0.376513
0.446758
0.421043
0.325661
0.158585
0.0214687
-0.151065
0.836337
-0.552688
8.24679
5.78077
5.77744
5.77566
5.77018
5.74644
5.67933
5.52439
5.20701
4.6164
3.60946
2.09317
0.137683
-1.72703
-2.67393
-2.43742
-1.56776
-0.766021
-0.307349
-0.0632554
0.123279
0.26519
0.323371
0.289211
0.185611
0.0139042
-0.108972
-0.249608
0.963582
-0.919127
8.95404
5.7643
5.75788
5.74695
5.72487
5.67507
5.56966
5.36357
4.98857
4.3554
3.36754
1.98677
0.32092
-1.23567
-2.11665
-2.08474
-1.47482
-0.813667
-0.374422
-0.119981
0.0597056
0.188815
0.240942
0.204173
0.0993448
-0.069158
-0.172997
-0.27873
1.21285
-1.13769
9.61596
5.75509
5.74733
5.73175
5.70114
5.63811
5.51364
5.28275
4.88097
4.23011
3.25496
1.94157
0.40923
-1.00872
-1.85661
-1.91466
-1.42426
-0.832053
-0.406383
-0.148852
0.027791
0.151539
0.201451
0.163662
0.0587669
-0.110191
-0.21013
-0.316297
1.44216
-1.34305
10.3129
5.67992
5.6651
5.63442
5.58041
5.48577
5.3225
5.04956
4.61186
3.94888
3.01278
1.82078
0.504963
-0.639329
-1.26727
-1.26828
-0.842877
-0.296744
0.182428
0.577865
0.947355
1.31847
1.6839
2.038
2.37361
2.70519
3.02447
3.2846
3.23119
4.11998
-1.16098
5.68859
5.67527
5.64876
5.60205
5.51842
5.37041
5.11622
4.69667
4.04163
3.08656
1.83392
0.414425
-0.822796
-1.46264
-1.40043
-0.89581
-0.299333
0.192891
0.582963
0.943777
1.30612
1.66533
2.01978
2.36288
2.70112
3.01446
3.26161
3.18537
3.96482
-0.757743
5.70491
5.6946
5.67618
5.64371
5.58179
5.46442
5.24884
4.86859
4.23412
3.24471
1.86801
0.223926
-1.21251
-1.86797
-1.66587
-0.996225
-0.300007
0.217131
0.601069
0.951888
1.30107
1.64546
1.99152
2.3367
2.68418
2.99984
3.24607
3.21966
3.98055
-0.420591
5.72761
5.72167
5.71487
5.70299
5.67312
5.60223
5.44765
5.13346
4.54158
3.50916
1.93928
-0.0899239
-1.86069
-2.51561
-2.06482
-1.13074
-0.295244
0.24438
0.621512
0.970539
1.30974
1.63174
1.95471
2.28858
2.64239
2.97007
3.23377
3.28807
4.00445
-0.136493
5.75473
5.75417
5.76171
5.77565
5.78701
5.77818
5.70982
5.49648
4.98381
3.9169
2.08426
-0.557455
-2.83794
-3.44681
-2.58716
-1.25101
-0.238586
0.294127
0.646474
1.00198
1.34183
1.63971
1.92382
2.22306
2.56694
2.90879
3.2094
3.36777
4.05158
0.207386
5.78387
5.78927
5.81278
5.85598
5.91554
5.98249
6.02589
5.95711
5.58272
4.52307
2.35851
-1.23482
-4.23583
-4.71139
-3.25387
-1.35113
-0.114748
0.372828
0.664953
1.02301
1.38155
1.67682
1.9307
2.18371
2.4915
2.84002
3.18873
3.45675
4.13598
0.549978
5.81234
5.82373
5.86341
5.93679
6.04774
6.19966
6.37835
6.50346
6.35322
5.38844
2.81417
-2.24873
-6.16368
-6.28641
-3.96248
-1.33943
0.109348
0.502286
0.693572
1.01983
1.38415
1.691
1.93954
2.16042
2.42384
2.76402
3.17522
3.57268
4.19016
0.79247
5.83745
5.85421
5.90843
6.00967
6.16964
6.40691
6.73214
7.09485
7.27753
6.56285
3.55412
-3.71611
-8.79477
-8.35247
-4.75447
-1.12726
0.463489
0.670838
0.734472
0.998812
1.33329
1.63817
1.89933
2.11521
2.35349
2.69763
3.24112
3.85367
4.11266
1.02738
5.8568
5.87763
5.94293
6.06576
6.26551
6.57519
7.03316
7.64009
8.22906
8.00352
4.66761
-5.41859
-11.6791
-10.7012
-5.65331
-0.666616
1.06398
0.982118
0.876077
1.04997
1.30294
1.55721
1.80463
2.01402
2.21953
2.53902
3.18493
4.08429
4.0019
1.59347
5.86857
5.89173
5.96334
6.09798
6.31981
6.67268
7.21359
7.99015
8.89619
9.20626
6.04877
-6.6737
-14.129
-12.8414
-6.72725
-0.420293
1.52537
1.18894
0.937111
1.05107
1.23626
1.43729
1.66972
1.8792
2.06947
2.34946
2.98351
4.06104
3.82161
2.48921
5.87171
5.89514
5.96761
6.10404
6.32808
6.68478
7.23292
8.0251
8.96372
9.35088
6.36836
-6.01918
-14.5255
-13.5815
-7.18261
-0.489342
1.55823
1.1566
0.875562
0.998756
1.16664
1.32503
1.51726
1.70273
1.85663
2.06901
2.58599
3.67936
3.37796
3.5024
5.86608
5.88779
5.9554
6.08235
6.28835
6.60918
7.0874
7.73572
8.40591
8.36189
5.37493
-4.28363
-12.3426
-12.1339
-6.43087
-0.677203
1.16731
0.870614
0.665888
0.839261
1.02936
1.16159
1.3021
1.44113
1.53978
1.66346
2.03028
3.13652
2.88067
4.61777
5.8525
5.87062
5.9282
6.03524
6.20492
6.45877
6.81304
7.22971
7.51029
6.97348
4.20563
-2.85328
-9.26918
-9.60175
-5.5517
-1.28775
0.4013
0.438283
0.429382
0.681429
0.915498
1.04759
1.14417
1.22482
1.26646
1.32797
1.5887
2.76652
2.5467
5.87333
5.83266
5.84581
5.88971
5.97049
6.09351
6.26506
6.47603
6.6554
6.59368
5.76642
3.32884
-1.69053
-6.44805
-7.24523
-4.67593
-1.57486
-0.00987387
0.26866
0.349011
0.573408
0.776125
0.873062
0.909298
0.915838
0.875481
0.843137
0.925563
2.0706
1.70174
6.91913
5.80877
5.81628
5.84472
5.89634
5.96912
6.05652
6.13133
6.11076
5.80604
4.84055
2.73829
-0.890002
-4.42356
-5.42891
-3.88602
-1.66765
-0.336735
0.0476892
0.18758
0.394934
0.583698
0.673514
0.683621
0.638277
0.527902
0.430009
0.372393
1.46236
0.79416
7.83857
5.78342
5.78525
5.79818
5.82104
5.84593
5.85703
5.81725
5.64398
5.18189
4.17017
2.354
-0.361374
-3.00057
-3.99854
-3.14088
-1.61794
-0.549587
-0.119192
0.0738328
0.272236
0.442209
0.51707
0.498345
0.406381
0.242858
0.101233
-0.026256
1.09775
0.119976
8.66912
5.75921
5.7559
5.75478
5.752
5.73547
5.68328
5.55373
5.2713
4.71406
3.70855
2.12498
0.00568961
-2.01862
-2.95169
-2.55077
-1.5298
-0.681192
-0.24328
-0.0186491
0.16851
0.315864
0.373605
0.334224