/*--------------------------------*- C++ -*----------------------------------*\
| =========                 |                                                 |
| \\      /  F ield         | OpenFOAM: The Open Source CFD Toolbox           |
|  \\    /   O peration     | Version:  2512                                  |
|   \\  /    A nd           | Website:  www.openfoam.com                      |
|    \\/     M anipulation  |                                                 |
\*---------------------------------------------------------------------------*/
FoamFile
{
    version     2.0;
    format      ascii;
    arch        "LSB;label=32;scalar=64";
    class       volScalarField;
    location    "120";
    object      p;
}
// * * * * * * * * * * * * * * * * * * * * * * * * * * * * * * * * * * * * * //

dimensions      [0 2 -2 0 0 0 0];

internalField   nonuniform List<scalar> 
90398
(
423.821
422.97
420.814
417.399
412.962
407.717
401.966
396.152
390.82
385.832
379.514
368.107
350.798
330.734
309.729
287.735
264.911
242.34
221.085
201.637
184.426
169.763
157.739
148.099
140.412
133.679
126.448
117.126
92.7947
73.3569
423.931
423.076
420.905
417.463
412.99
407.702
401.903
396.043
390.617
385.16
377.547
364.664
346.424
326.125
305.426
283.676
260.802
237.978
216.28
196.186
178.146
162.515
149.43
138.699
129.986
122.44
114.798
105.68
83.0719
66.1681
424.153
423.289
421.089
417.598
413.05
407.667
401.734
395.732
389.946
383.423
373.491
358.132
338.174
317.472
297.509
276.291
253.357
230.16
207.827
186.787
167.52
150.462
135.82
123.501
113.303
104.577
96.3679
87.5444
67.8436
54.645
424.48
423.604
421.364
417.8
413.149
407.619
401.468
395.179
388.766
380.65
367.711
349.021
326.45
305.386
287.005
266.841
243.936
220.326
197.247
175.067
154.339
135.607
119.172
105.056
93.2228
83.2295
74.4942
66.0367
50.1021
40.4861
424.906
424.016
421.724
418.071
413.292
407.579
401.152
394.479
387.293
377.371
361.301
338.39
311.982
291.068
275.582
257.003
234.212
210.298
186.526
163.141
140.859
120.393
102.146
86.2648
72.869
61.7134
52.6039
44.5612
32.7278
25.9651
425.423
424.515
422.162
418.407
413.486
407.567
400.864
393.825
386.1
375.051
355.966
327.44
294.658
275.725
266.071
249.745
226.633
202.178
177.593
152.843
128.861
106.593
86.5594
69.024
54.2571
42.1584
32.8913
25.3523
17.5137
12.8453
426.018
425.092
422.672
418.799
413.722
407.6
400.692
393.577
386.255
376.626
355.329
317.961
272.795
257.658
258.059
246.254
223.301
198.303
172.611
146.096
120.059
95.7326
73.7839
54.578
38.5193
25.6056
16.3278
9.37096
5.20888
2.54991
426.678
425.732
423.242
419.249
414.005
407.687
400.706
394.203
389.884
385.589
366.392
326.651
260.566
243.859
256.125
246.733
223.614
197.803
170.374
141.521
113.122
86.6708
62.8948
42.2439
25.196
11.8071
2.78662
-3.33222
-4.37484
-4.69593
427.39
426.42
423.851
419.727
414.31
407.801
400.859
395.779
395.637
405.369
386.364
316.967
202.372
211.72
267.03
257.217
230.991
202.482
172.001
139.712
108.21
79.271
53.5852
31.5627
13.6795
0.000861884
-8.66755
-13.7879
-12.26
-9.72547
428.135
427.14
424.483
420.201
414.583
407.847
400.973
397.477
404.684
438.039
380.701
386.245
186.221
188.296
273.815
264.774
234.377
202.313
169.102
134.39
100.929
70.5995
44.0897
21.734
3.81661
-9.69049
-17.9103
-22.0812
-18.5415
-13.2339
428.898
427.875
425.121
420.666
414.791
407.692
400.421
396.72
407.838
474.045
366.375
184.004
191.361
266.787
260.897
229.851
196.327
161.302
124.748
89.789
58.5816
31.9643
10.1584
-6.79813
-19.2087
-26.3518
-29.1807
-23.3873
-16.0495
429.659
428.605
425.749
421.105
414.909
407.279
399.061
393.207
399.419
429.37
394.548
296.671
221.328
198.374
253.588
250.637
220.608
185.587
148.764
111.08
75.7721
45.0425
19.6415
-0.564779
-16.145
-27.7515
-34.4717
-36.4958
-28.7513
-19.2486
430.4
429.315
426.349
421.491
414.941
406.735
397.483
389.244
386.099
394.705
373.307
302.83
235.834
223.278
258.815
248.751
215.039
176.475
137.16
98.4808
63.2959
33.7946
10.5457
-7.27594
-21.0907
-32.0698
-39.1332
-41.4851
-33.3178
-21.7159
431.103
429.984
426.907
421.834
414.938
406.156
395.899
385.659
377.414
369.984
351.998
316.808
283.127
270.294
269.612
249.144
210.611
168.35
126.721
87.366
52.8332
25.1887
4.77266
-10.0835
-22.008
-32.8305
-41.0956
-44.5797
-36.8183
-22.9644
431.748
430.595
427.416
422.148
414.919
405.603
394.53
383.143
372.858
363.553
350.877
330.768
309.62
294.478
279.893
249.953
207.082
161.432
117.608
77.6643
44.1727
18.9896
1.98404
-9.49755
-19.5929
-30.8775
-41.1763
-46.4595
-39.685
-23.2013
432.317
431.135
427.863
422.41
414.879
405.11
393.455
381.506
370.706
361.719
353.13
342.024
328.028
310.921
287.818
251.228
204.07
155.047
109.114
68.8284
36.8641
14.7245
1.65035
-6.14914
-14.5204
-26.7456
-39.5774
-46.858
-41.2431
-21.9162
432.793
431.586
428.232
422.618
414.826
404.681
392.628
380.475
369.956
362.302
357.271
351.853
342.166
324.151
295.262
252.757
201.069
148.731
101.033
60.9568
31.0578
12.3096
3.41607
-0.376548
-6.62823
-19.9669
-35.7162
-44.8014
-39.904
-18.7888
433.162
431.934
428.512
422.765
414.758
404.309
391.975
379.812
369.907
363.875
361.815
360.189
353.179
334.36
300.888
253.306
197.626
142.5
93.7047
54.482
27.0065
11.698
7.22566
8.48915
5.02337
-10.4307
-29.7426
-40.1275
-35.4544
-14.7313
433.411
432.166
428.695
422.852
414.681
403.997
391.469
379.382
370.155
365.618
365.82
366.755
361.332
341.667
304.604
253.033
194.354
137.377
88.2916
50.3802
25.2608
13.1102
13.5063
20.6901
18.7551
-0.0854551
-22.6254
-34.9338
-30.7574
-10.1069
433.548
432.284
428.78
422.883
414.613
403.77
391.088
379.03
370.296
366.807
368.45
370.893
366.25
345.812
306.409
252.367
191.978
134.128
85.1713
48.2997
24.65
14.7534
19.4542
30.7983
27.8727
6.26254
-17.7174
-31.1072
-27.9363
-6.8915
424.024
423.18
421.012
417.577
413.084
407.699
401.588
394.823
387.537
379.224
368.079
352.08
331.14
308.629
286.48
264.338
242.018
220.086
199.261
179.725
161.733
145.48
131.016
118.122
106.565
95.6986
84.7512
72.3616
50.6958
32.4572
424.141
423.291
421.107
417.643
413.105
407.656
401.446
394.562
387.07
378.277
366.249
349.32
327.761
305.215
283.392
261.411
238.978
216.792
195.601
175.604
157.097
140.318
125.348
111.992
100.11
89.0734
78.2158
66.2677
46.1723
29.2925
424.37
423.511
421.298
417.782
413.159
407.58
401.16
394.011
386.137
376.445
362.71
343.922
321.174
298.621
277.67
256.202
233.716
211.218
189.502
168.779
149.407
131.706
115.813
101.627
89.1151
77.7182
66.9942
55.7319
38.2962
23.622
424.708
423.837
421.583
417.993
413.254
407.485
400.761
393.191
384.629
373.584
357.641
336.345
311.805
289.465
270.284
249.858
227.453
204.644
182.286
160.602
140.057
121.086
103.902
88.5981
75.2073
63.3008
52.7596
42.3505
28.4456
16.0579
425.148
424.262
421.956
418.274
413.403
407.407
400.308
392.213
382.807
370.339
352.107
327.798
300.487
278.894
262.754
243.845
221.608
198.558
175.543
152.763
130.861
110.414
91.799
75.219
60.8194
48.3849
38.1044
28.6089
18.5961
8.09125
425.68
424.777
422.41
418.623
413.603
407.362
399.87
391.236
381.145
367.848
347.596
319.496
287.263
267.777
257.289
240.446
218.067
194.579
170.715
146.59
123.041
100.895
80.7225
62.7792
47.3629
34.4239
24.5028
16.0038
9.89427
0.906506
426.293
425.372
422.935
419.032
413.85
407.357
399.543
390.551
380.376
368.554
347.975
314.072
271.274
254.449
253.065
240.426
218.166
194.153
169.16
143.276
117.71
93.6374
71.6841
52.1939
35.6911
22.2621
12.7069
5.23025
2.57226
-4.89266
426.975
426.035
423.521
419.475
414.118
407.406
399.384
390.484
381.725
378.014
362.49
328.786
266.4
241.906
252.626
243.589
221.343
196.558
169.87
141.622
113.642
87.3514
63.4964
42.6056
25.2648
11.6101
2.5813
-3.75279
-3.46989
-8.82978
427.709
426.748
424.159
419.967
414.394
407.435
399.299
390.723
388.659
395.49
385.052
336.836
216.476
200.826
266.365
258.404
232.4
203.734
173.006
140.8
109.544
80.6959
54.9889
32.9335
15.1098
1.60909
-6.60988
-11.5298
-8.74832
-11.0676
428.479
427.493
424.823
420.494
414.714
407.487
399.284
391.83
396.23
422.065
397.509
286.715
161.526
131.018
274.869
265.297
234.295
202.044
168.507
133.836
100.625
70.4756
44.1421
22.0749
4.69822
-8.01713
-15.1446
-18.5293
-13.5875
-12.3756
429.268
428.254
425.491
420.991
414.949
407.338
398.692
391.1
399.15
454.832
115.857
263.909
257.93
227.278
193.798
158.425
121.96
87.367
56.4815
30.2476
9.00552
-7.13652
-18.4481
-24.11
-25.6895
-18.4084
-13.7317
430.056
429.014
426.145
421.431
415.061
406.925
397.403
388.216
392.108
416.881
402.012
252.678
183.917
163.926
259.787
250.124
218.806
183.322
145.819
107.871
72.6685
42.04
17.0125
-2.44747
-17.0096
-27.3535
-32.4972
-33.2052
-24.1926
-15.9146
430.824
429.75
426.769
421.866
415.187
406.471
395.999
385.551
380.109
388.077
373.548
307.618
245.286
235.036
265.457
248.933
213.22
173.61
133.414
94.4912
59.5749
30.3945
7.6977
-9.1136
-21.7464
-31.4586
-37.0974
-38.3018
-29.1321
-17.8141
431.554
430.446
427.367
422.28
415.248
405.911
394.511
382.592
373.171
366.248
351.174
320.71
291.092
277.496
273.436
247.747
206.951
163.678
121.575
82.4163
48.5407
21.8361
2.59726
-10.9076
-21.602
-31.3245
-38.4606
-41.0942
-32.728
-18.7625
432.225
431.089
427.914
422.627
415.252
405.367
393.209
380.386
369.525
360.964
350.699
334.242
315.23
298.665
280.636
246.499
201.369
154.939
111.229
72.1909
40.0563
16.4402
1.17391
-8.69977
-17.6287
-28.1175
-37.7181
-42.4836
-35.4146
-18.7635
432.818
431.656
428.389
422.923
415.23
404.86
392.165
378.905
367.845
359.877
353.415
344.831
331.751
312.947
286.414
245.943
196.553
147.211
102.166
63.4813
33.4679
13.4956
2.61202
-3.51433
-11.0438
-23.0928
-35.7883
-42.8282
-37.0354
-17.5407
433.315
432.129
428.782
423.157
415.183
404.418
391.337
377.957
367.374
360.904
357.824
354.006
344.33
324.102
291.825
245.849
192.279
140.254
94.1516
56.2123
28.6973
12.5179
6.06689
3.81869
-2.48737
-16.8068
-32.9404
-41.7012
-36.5328
-15.0119
433.699
432.495
429.081
423.321
415.127
404.045
390.679
377.356
367.553
362.831
362.49
361.778
354.165
332.713
295.752
245.149
188.197
133.983
87.3104
50.6041
25.8195
13.277
11.2162
13.0403
7.38222
-10.1089
-29.312
-38.4517
-33.3511
-11.8856
433.961
432.741
429.277
423.418
415.056
403.732
390.181
377.016
368.076
364.956
366.642
368.075
361.665
338.91
298.141
243.961
184.743
129.291
82.7263
47.6243
25.3946
15.8927
17.7521
22.9484
16.707
-4.10376
-25.2056
-34.4281
-29.9432
-8.51193
434.096
432.864
429.367
423.45
414.984
403.491
389.792
376.749
368.547
366.626
369.577
372.357
366.466
342.549
299.177
242.685
182.244
126.375
80.2181
46.4266
25.8684
18.4691
23.2765
30.3025
22.6436
-0.475374
-21.9695
-31.3948
-28.3318
-6.14299
424.462
423.627
421.456
418.009
413.466
407.953
401.579
394.318
385.452
372.912
353.743
330.828
306.176
282.787
261.229
240.231
219.263
198.436
178.038
158.148
138.866
120.366
102.778
86.0805
70.5019
55.5832
42.1095
28.3179
13.2159
-1.90746
424.586
423.745
421.558
418.079
413.484
407.886
401.369
393.863
384.477
371.063
351.526
328.901
304.296
281.064
259.687
238.707
217.564
196.483
175.866
155.741
136.278
117.681
100.089
83.4932
68.0303
53.4276
40.2841
26.9384
12.5771
-1.74671
424.83
423.98
421.765
418.229
413.539
407.776
400.985
393.002
382.764
367.983
348.007
324.959
300.093
277.235
256.631
236.055
214.858
193.573
172.637
152.089
132.19
113.218
95.3509
78.5607
63.0908
48.7627
36.1368
23.5001
10.9801
-2.89969
425.189
424.329
422.072
418.461
413.643
407.653
400.466
391.789
380.311
364.154
343.659
319.651
294.129
271.907
252.963
233.299
212.211
190.734
169.334
148.087
127.382
107.59
88.9633
71.6117
55.934
41.7114
29.6636
17.9897
8.18806
-5.27261
425.658
424.784
422.475
418.769
413.808
407.541
399.87
390.351
377.488
360.58
339.323
314.063
287.072
265.998
249.83
231.462
210.594
188.975
167.03
144.866
123.039
102.077
82.3405
64.1072
47.9536
33.7525
22.358
11.7532
5.11323
-8.0872
426.224
425.336
422.973
419.16
414.029
407.458
399.248
388.807
374.908
357.855
335.996
309.108
279.152
259.957
248.747
231.986
211.161
189.283
166.569
143.141
119.778
97.1834
75.9843
56.7056
39.9226
25.5984
14.9319
5.52914
2.18085
-10.6553
426.876
425.971
423.542
419.616
414.301
407.404
398.658
387.404
373.163
357.468
336.162
306.501
268.723
251.813
248.603
235.208
214.667
192.426
168.537
143.248
117.744
93.1267
70.1804
49.5442
31.9186
17.4549
7.52523
-0.550961
-0.773632
-12.6365
427.601
426.676
424.17
420.096
414.575
407.362
398.134
386.347
372.558
361.462
347.03
317.62
265.27
238.643
251.15
241.616
220.978
197.493
171.413
143.361
115.101
87.9948
63.1885
41.338
23.1211
8.81449
-0.170252
-6.68999
-4.05318
-13.8988
428.384
427.44
424.856
420.638
414.87
407.271
397.576
385.073
377.745
371.534
365.36
323.908
238.323
204.309
263.132
256.031
231.622
203.882
173.524
141.344
109.798
80.2944
53.8906
31.1669
12.8898
-0.785384
-8.494
-13.1654
-7.96577
-14.583
429.206
428.241
425.582
421.23
415.243
407.283
397.195
384.885
381.856
382.793
407.096
249.519
193.142
127.336
271.566
261.704
232.414
201.185
167.642
132.74
99.0983
68.288
41.3655
18.9139
1.48131
-10.9393
-17.096
-19.7879
-12.3412
-14.9324
430.048
429.06
426.31
421.793
415.528
407.103
396.428
384.077
383.638
401.303
402.405
146.828
262.883
256.379
226.319
192.566
156.529
119.648
84.5653
53.2013
26.6903
5.34644
-10.6524
-21.4915
-26.0293
-26.7269
-17.1531
-15.3475
430.892
429.875
427.025
422.292
415.661
406.652
395.18
382.269
380.64
391.74
401.92
166.435
202.631
178.25
266.547
249.999
217.246
180.985
142.96
104.831
69.4933
38.7084
13.7333
-5.64614
-19.967
-29.7773
-33.7557
-33.4858
-22.5599
-16.1765
431.717
430.673
427.721
422.799
415.864
406.271
393.979
380.863
372.436
371.236
368.314
310.144
262.841
247.802
271.237
247.149
210.275
170.464
130.007
91.1425
56.4858
27.5656
5.14789
-11.6327
-24.1686
-33.403
-37.8744
-37.964
-27.1011
-16.7105
432.503
431.434
428.394
423.297
416.004
405.75
392.64
378.657
367.623
360.675
347.442
323.576
299.752
286.122
277.348
246.207
204.131
160.577
118.42
79.5349
46.1381
19.9898
1.12979
-12.4802
-23.3991
-32.8905
-38.8834
-40.201
-30.3192
-16.4679
433.229
432.137
428.999
423.704
416.06
405.209
391.41
376.874
365.149
357.46
349.753
337.536
321.891
304.71
283.445
245.58
198.679
151.807
108.432
70.1776
39.0554
16.3425
1.28719
-9.23974
-18.903
-29.3528
-37.7515
-40.91
-32.489
-15.3877
433.872
432.756
429.524
424.055
416.082
404.698
390.357
375.616
364.133
357.477
353.869
348.373
337.152
317.748
288.656
245.259
193.87
144.237
100.13
62.9396
34.5347
15.5636
4.53635
-2.97764
-12.0739
-24.3029
-35.524
-40.5335
-33.4726
-13.2653
434.411
433.277
429.969
424.346
416.071
404.245
389.485
374.804
364.111
359.161
358.818
357.68
349.471
328.504
293.404
244.624
189.409
137.781
93.38
57.6587
32.1043
16.7418
9.46818
4.8357
-3.99893
-18.5502
-32.6226
-38.8613
-32.5613
-10.1157
434.83
433.681
430.307
424.551
416.041
403.847
388.774
374.305
364.667
361.56
363.742
365.877
359.935
336.949
296.466
242.914
185.103
132.372
88.2351
54.2633
31.4203
19.1868
15.2466
13.1478
4.03335
-13.212
-29.5091
-35.7486
-29.6515
-6.83547
435.112
433.951
430.528
424.674
415.987
403.514
388.256
374.121
365.618
364.16
368.368
373.02
367.887
342.739
297.862
240.693
181.717
128.976
85.695
53.451
32.7096
22.558
20.7866
20.093
10.0691
-9.44144
-26.4998
-32.0673
-26.5889
-3.41013
435.265
434.089
430.628
424.712
415.918
403.234
387.833
374.033
366.56
366.376
371.921
378.096
372.9
346.036
298.257
238.901
179.62
127.617
85.2762
54.2676
34.7017
25.5288
24.7356
24.3003
12.9939
-7.54889
-24.2777
-29.4096
-25.3317
-0.666748
425.121
424.3
422.147
418.707
414.135
408.515
401.943
394.173
383.28
366.674
343.906
318.705
292.809
269.491
248.355
227.915
207.479
186.882
166.164
145.474
124.746
104.245
84.2766
65.0493
47.2122
30.5609
16.8564
3.0881
-3.20133
-18.2345
425.258
424.431
422.262
418.787
414.159
408.428
401.668
393.531
381.94
364.522
341.657
316.797
291.255
268.193
247.266
226.891
206.38
185.661
164.868
144.089
123.33
102.87
83.0048
63.9423
46.2808
29.8336
16.2826
2.92661
-3.57225
-17.4267
425.525
424.691
422.494
418.963
414.234
408.305
401.185
392.328
379.49
361.076
338.353
313.572
288.219
265.691
245.58
225.632
205.219
184.406
163.487
142.484
121.516
100.902
80.9575
61.8631
44.3185
28.1011
14.9752
2.1765
-3.38969
-17.5481
425.919
425.076
422.84
419.236
414.375
408.184
400.514
390.589
376.327
357.255
334.371
309.331
284.031
262.4
243.935
224.866
204.676
183.8
162.648
141.131
119.577
98.3831
77.9067
58.4841
40.7632
24.6844
12.1291
0.178641
-3.66803
-18.4546
426.431
425.577
423.293
419.598
414.577
408.057
399.704
388.573
373.071
353.734
330.447
305.02
279.276
259.156
243.274
225.431
205.58
184.68
163.079
140.743
118.198
95.9812
74.5544
54.3561
36.2629
20.3362
8.47689
-2.50972
-4.15961
-19.7031
427.049
426.184
423.849
420.051
414.842
407.93
398.806
386.491
370.233
350.796
327.359
301.371
274.602
256.713
244.955
228.509
208.854
187.715
165.285
141.646
117.56
93.704
70.8144
49.5729
30.8932
15.0644
4.06962
-5.68926
-4.86894
-20.8172
427.761
426.88
424.484
420.574
415.161
407.81
397.881
384.575
368.041
349.121
325.847
298.974
269.131
254.469
249.303
234.816
215.011
193.274
169.307
143.574
117.16
91.1093
66.3711
43.8058
24.4996
8.80024
-1.28202
-9.52324
-6.12862
-21.547
428.553
427.655
425.19
421.137
415.495
407.676
396.96
382.903
366.438
348.91
327.506
304.847
267.049
245.563
257.321
244.692
223.739
200.064
173.353
144.446
114.962
86.1953
59.5108
35.8168
16.1733
1.00804
-7.81849
-14.2099
-8.24916
-21.7946
429.407
428.495
425.957
421.775
415.875
407.506
395.99
381.327
368.181
357.496
337.085
313.02
261.835
235.853
270.382
258.107
233.512
205.495
174.389
141.282
108.497
77.3096
49.1818
24.9833
5.71548
-8.44163
-15.5937
-19.7644
-11.295
-21.5355
430.307
429.38
426.77
422.452
416.306
407.413
395.157
380.375
369.151
362.802
369.848
277.03
248.244
246.103
282.18
264.795
234.292
201.923
167.084
130.951
96.0299
63.6932
35.4162
11.9144
-6.19059
-18.711
-23.955
-25.7776
-15.0491
-20.8651
431.231
430.286
427.592
423.111
416.659
407.165
394.184
379.406
370.465
371.577
398.575
134.034
258.266
252.194
277.022
260.607
227.865
192.166
154.482
116.42
80.2314
47.8813
20.5106
-1.55471
-17.9378
-28.7018
-32.2238
-31.9086
-19.3129
-20.0596
432.16
431.192
428.407
423.722
416.87
406.687
392.989
378.086
369.939
369.137
365.938
278.336
249.841
235.16
278.162
254.022
218.357
180.098
140.752
101.823
65.6942
34.1695
8.42172
-11.7515
-26.5193
-36.0846
-38.8429
-37.378
-23.8226
-19.2872
433.072
432.082
429.202
424.317
417.109
406.257
391.785
376.665
365.231
358.485
352.035
321.631
288.318
273.281
280.414
249.832
210.747
169.528
128.178
88.7696
53.5426
23.9775
0.734188
-17.0422
-30.1556
-39.1832
-42.342
-40.8666
-27.5605
-18.1603
433.945
432.937
429.973
424.912
417.316
405.723
390.443
374.917
362.467
354.257
342.197
326.739
310.401
298.168
284.579
249.462
205.516
160.58
117.575
78.2732
44.5355
17.6427
-2.41583
-17.4116
-29.1551
-38.3865
-42.861
-42.2667
-30.1601
-16.3971
434.753
433.731
430.677
425.425
417.448
405.164
389.18
373.451
361.063
353.616
347.676
340.342
329.232
313.205
290.255
250.351
201.249
152.728
108.667
70.1791
38.784
15.3122
-1.28883
-13.6808
-24.5578
-34.7317
-41.3039
-42.0587
-31.6213
-13.8657
435.472
434.434
431.294
425.874
417.541
404.622
388.052
372.362
360.637
354.734
353.449
351.913
344.265
325.755
295.265
249.625
196.246
145.677
101.429
64.4064
35.8883
15.9621
2.88646
-7.15734
-17.8974
-29.6714
-38.5744
-40.6383
-31.7123
-10.4019
436.077
435.028
431.818
426.249
417.598
404.11
387.074
371.635
360.965
357.085
359.641
363.173
358.496
337.376
299.175
247.115
190.903
139.661
95.908
60.8488
35.3596
18.7465
8.7002
0.49478
-10.4293
-24.1171
-35.1437
-37.9197
-30.0153
-6.2061
436.548
435.489
432.218
426.522
417.603
403.624
386.22
371.19
361.728
359.976
366.04
374.223
371.211
346.165
300.929
243.515
185.873
134.936
92.2846
59.4183
36.6251
22.6072
14.7649
7.7661
-3.77636
-19.2188
-31.5721
-34.1364
-26.7693
-2.13684
436.871
435.803
432.481
426.687
417.572
403.217
385.594
371.145
362.883
363.118
372.399
383.936
380.497
351.548
300.596
239.853
182.356
132.557
91.4057
60.4205
39.349
26.5587
19.5613
12.82
0.496911
-15.9316
-28.2831
-30.0786
-23.5084
1.95
437.035
435.956
432.592
426.745
417.521
402.847
385.088
371.347
364.108
365.751
377.288
390.599
386.174
354.276
299.564
237.561
180.991
132.426
92.5563
62.7776
42.4004
29.6983
22.3962
14.9736
1.89551
-14.6635
-26.4067
-27.5894
-22.4463
5.24264
425.989
425.188
423.079
419.683
415.114
409.461
402.774
393.834
379.254
359.42
338.556
314.66
289.543
266.428
245.238
224.748
204.238
183.396
162.023
140.376
118.331
96.2517
74.601
53.7561
34.7225
17.2711
4.29212
-8.91419
-8.26775
-24.7893
426.141
425.335
423.212
419.785
415.149
409.329
402.295
392.672
377.631
358.19
337.169
312.963
288.054
265.198
244.286
223.93
203.43
182.558
161.137
139.461
117.411
95.3735
73.7981
53.0725
34.1226
16.8074
3.80823
-9.00288
-9.17378
-24.1208
426.44
425.629
423.483
420.006
415.267
409.2
401.543
390.778
375.004
356.101
334.59
310.106
285.411
263.162
243.051
223.17
202.866
182.032
160.549
138.73
116.516
94.3304
72.6519
51.8879
32.9465
15.8125
3.01301
-9.40378
-9.19801
-24.6665
426.879
426.063
423.886
420.346
415.479
409.101
400.604
388.492
372.243
353.485
331.151
306.481
281.992
260.764
242.125
223.114
203.186
182.364
160.769
138.515
115.769
93.0215
70.8362
49.6975
30.5116
13.5221
1.12559
-10.5926
-9.31755
-25.8544
427.449
426.626
424.412
420.791
415.765
408.985
399.519
386.174
369.671
350.409
327.568
302.717
278.411
258.815
242.417
224.617
205.147
184.309
162.388
139.31
115.558
91.7478
68.5974
46.6785
27.1599
10.2356
-1.58975
-12.3772
-9.54938
-27.2807
428.138
427.305
425.045
421.33
416.112
408.836
398.318
383.987
367.168
347.398
324.575
299.669
275.573
258.441
245.248
228.845
209.701
188.565
165.724
141.202
115.764
90.2568
65.6045
42.5818
22.4973
5.69002
-5.23841
-14.7332
-10.0194
-28.4747
428.931
428.086
425.769
421.942
416.506
408.649
397.061
381.964
364.819
345.235
323.646
298.802
274.345
260.521
251.751
236.714
217.225
195.134
170.399
143.48
115.49
87.6227
61.0487
36.7794
16.1569
-0.413428
-10.2122
-17.9953
-11.0793
-29.1459
429.811
428.959
426.58
422.611
416.917
408.411
395.799
380.051
362.631
344.124
327.926
302.795
276.713
266.871
262.619
248.154
226.899
202.333
174.328
143.922
112.606
82.0139
53.5909
28.2133
7.37047
-8.35162
-16.6339
-22.3497
-13.0404
-29.1941
430.762
429.902
427.466
423.365
417.355
408.117
394.557
378.227
361.728
346.364
322.199
308.425
276.317
263.208
275.419
260.612
235.877
206.772
174.15
139.421
104.685
71.846
42.2103
16.5438
-3.64574
-18.0591
-24.365
-27.5934
-15.8419
-28.5564
431.765
430.895
428.396
424.177
417.887
407.887
393.439
376.84
361.594
356.198
337.072
314.17
291.623
284.522
287.714
267.443
236.739
202.647
165.826
127.835
91.16
57.4835
27.8804
3.14893
-15.6724
-28.2437
-32.4806
-33.1537
-19.2175
-27.2387
432.799
431.918
429.345
424.969
418.321
407.514
392.246
375.597
361.711
359.017
349.816
320.759
306.244
297.653
288.568
264.54
229.773
191.917
152.174
112.458
75.0957
41.7181
13.2068
-9.84065
-26.7479
-37.4487
-39.9293
-38.4193
-22.8776
-25.4467
433.842
432.952
430.291
425.716
418.612
406.941
390.911
374.194
361.081
353.738
345.071
338.928
314.246
303.543
288.822
258.619
220.249
179.782
138.66
98.5418
61.5101
29.0832
2.25629
-18.9573
-34.4397
-43.8966
-45.4512
-42.6086
-26.414
-23.2577
434.87
433.968
431.214
426.466
418.963
406.397
389.515
372.635
358.95
350.293
345.237
331.446
315.165
304.121
289.049
254.557
213.04
169.721
126.964
86.5448
50.3329
19.7405
-4.7288
-23.6996
-37.5017
-46.3232
-48.1303
-44.932
-29.1231
-20.5025
435.857
434.943
432.119
427.219
419.269
405.756
388.039
370.957
357.411
349.071
343.039
335.506
325.338
312.368
292.195
254.691
208.67
161.77
117.521
77.3604
42.666
14.5137
-7.18281
-23.8533
-36.4963
-45.2859
-47.9838
-45.2034
-30.7931
-17.165
436.776
435.859
432.967
427.901
419.503
405.069
386.616
369.497
356.602
349.501
347.331
346.377
339.609
323.317
296.32
254.361
204.027
154.518
109.689
70.5635
38.1469
13.0117
-5.64285
-20.0097
-31.8981
-41.4587
-45.8856
-43.9465
-31.4489
-13.2122
437.599
436.679
433.718
428.504
419.684
404.366
385.286
368.344
356.451
351.253
353.841
358.762
354.462
335
300.026
251.142
197.566
147.771
103.553
66.1003
36.4748
14.5417
-1.20693
-13.763
-25.5187
-36.1974
-42.4901
-41.4348
-30.6681
-8.43757
438.296
437.374
434.351
429.008
419.809
403.658
384.06
367.499
356.809
354.328
361.925
372.184
369.391
345.422
302.119
246.757
191.567
142.35
99.2349
63.8944
37.1788
18.1696
4.81789
-6.50071
-18.5112
-30.5091
-38.311
-37.706
-28.2723
-3.26324
438.841
437.918
434.838
429.387
419.879
402.952
382.936
366.921
357.462
358.082
370.873
385.517
382.28
352.663
301.768
242.261
186.983
138.571
96.9184
63.8375
39.6046
22.75
10.9172
0.152431
-12.4235
-25.4855
-33.9864
-33.1609
-24.6885
1.71821
439.208
438.283
435.153
429.63
419.909
402.328
382.116
366.83
358.573
362.159
379.76
396.87
391.572
356.344
299.616
238.675
184.62
137.251
97.1665
65.841
42.9968
26.939
15.3685
4.44852
-8.57043
-21.9334
-30.1326
-28.6723
-21.2638
6.64919
439.407
438.468
435.284
429.75
419.912
401.723
381.539
367.109
359.864
365.36
386.3
404.281
396.948
357.513
297.702
237.5
184.782
138.078
99.126
68.739
46.2397
29.877
17.5758
5.92974
-7.42233
-20.6193
-28.2852
-26.2615
-20.4043
10.4891
427.037
426.268
424.239
420.943
416.451
410.881
403.862
392.78
375.493
357.077
338.198
315.24
291.165
268.533
247.427
226.832
206.063
184.741
162.594
139.915
116.608
93.1443
70.1297
48.0988
28.296
10.5087
-1.65368
-14.0746
-8.96337
-26.4887
427.212
426.439
424.4
421.081
416.5
410.658
403.026
391.277
374.394
356.348
336.812
313.609
289.68
267.306
246.496
226.078
205.375
184.079
161.9
139.212
115.892
92.4472
69.4792
47.5367
27.7769
10.1153
-2.25546
-14.3334
-10.4356
-26.2055
427.55
426.776
424.726
421.374
416.699
410.552
402.041
389.235
372.685
354.793
334.219
310.77
287.09
265.317
245.262
225.34
204.896
183.702
161.492
138.668
115.152
91.4931
68.3361
46.2691
26.4476
8.87254
-3.45129
-15.2205
-11.2355
-27.5763
428.048
427.273
425.209
421.812
417.035
410.542
401.048
387.26
370.777
352.354
330.76
307.163
283.84
263.103
244.37
225.312
205.318
184.222
161.878
138.632
114.551
90.2627
66.517
44.0042
23.9278
6.4064
-5.58974
-16.7882
-12.0864
-29.618
428.692
427.917
425.834
422.373
417.463
410.493
399.916
385.283
368.485
349.066
326.997
303.453
280.673
261.542
244.769
226.886
207.372
186.229
163.632
139.489
114.319
88.8711
64.0728
40.7729
20.2922
2.79465
-8.60159
-18.9011
-12.9846
-31.8254
429.468
428.69
426.578
423.041
417.952
410.36
398.632
383.214
365.764
345.603
323.732
300.515
278.633
261.91
247.787
231.247
212.109
190.574
166.916
141.164
114.161
86.9015
60.5578
36.1609
15.1847
-2.09899
-12.6285
-21.6046
-14.0236
-33.6409
430.361
429.58
427.423
423.79
418.47
410.127
397.234
381.023
362.888
342.684
322.158
299.667
279.038
265.63
254.721
239.304
219.759
196.904
171.082
142.706
112.976
83.2678
54.9891
29.4621
8.03575
-8.7379
-18.0217
-25.1149
-15.4592
-34.6736
431.352
430.574
428.368
424.611
418.994
409.799
395.766
378.755
360.229
340.859
324.484
303.524
284.064
274.147
266.101
250.626
229.046
203.433
174.012
141.929
108.846
76.4321
46.4028
19.9878
-1.3892
-17.227
-24.8559
-29.614
-17.6158
-34.7934
432.423
431.646
429.395
425.514
419.509
409.371
394.267
376.554
358.323
341.148
332.391
313.202
296.617
289.157
279.795
262.551
237.034
206.618
172.456
136.144
99.7068
65.0462
33.9858
7.68196
-12.8732
-27.272
-32.7036
-34.8038
-20.3995
-33.9719
433.555
432.777
430.473
426.494
420.099
408.912
392.789
374.599
357.082
344.587
341.663
320.56
309.322
302.379
291.843
269.43
237.858
202.156
163.675
124.123
85.6887
50.4697
19.8116
-5.57004
-24.8014
-37.2809
-40.599
-40.1098
-23.5217
-32.1591
434.725
433.947
431.582
427.464
420.601
408.359
391.229
372.714
356.131
346.413
348.332
331.894
322.842
311.984
295.363
267.769
231.398
191.605
150.207
108.966
70.2259
35.6245
6.09685
-17.7712
-35.318
-45.963
-47.4507
-44.7085
-26.6176
-29.5253
435.91
435.135
432.701
428.41
421.014
407.679
389.541
370.735
354.918
344.822
346.746
337.228
326.652
316.133
295.447
262.662
222.684
180.203
137.38
95.9822
57.7905
24.0776
-3.96838
-26.1286
-42.1815
-51.5225
-52.0405
-47.8973
-29.1987
-26.0621
437.084
436.31
433.803
429.378
421.444
406.932
387.777
368.688
353.298
343.945
342.493
336.88
328.254
316.83
295.184
259.245
216.104
171.003
126.709
85.1456
47.7909
15.9378
-9.87261
-30.1082
-44.6556
-53.1585
-53.6247
-48.7763
-30.547
-21.8086
438.219
437.443
434.885
430.346
421.807
406.074
385.957
366.703
352.096
343.984
342.228
341.308
335.842
321.496
296.908
258.451
211.742
163.844
118.265
77.1125
41.2443
11.5277
-12.0297
-30.2892
-43.5633
-51.7182
-52.6668
-47.6262
-31.014
-17.2341
439.282
438.513
435.911
431.25
422.09
405.137
384.155
364.958
351.458
345.015
347.233
352.739
349.087
331.123
299.784
255.637
205.516
156.7
111.294
71.4025
37.6962
10.6633
-10.196
-26.4306
-39.0004
-47.5869
-49.7911
-45.2511
-31.0757
-12.4888
440.239
439.48
436.83
432.069
422.309
404.138
382.398
363.494
351.224
347.469
355.458
366.637
363.715
341.256
301.818
250.752
198.328
150.216
106.19
68.0187
36.8614
12.6129
-5.81494
-20.505
-32.756
-42.1156
-45.8491
-41.9409
-29.7177
-6.84227
441.053
440.304
437.609
432.782
422.473
403.081
380.712
362.277
351.256
351.57
366.059
381.626
377.972
349.483
301.854
245.752
193.028
145.735
103.015
66.8253
38.2627
16.5196
0.0711546
-13.6189
-26.0251
-36.2457
-41.1068
-37.578
-26.9408
-1.03186
441.691
440.953
438.212
433.359
422.595
401.964
379.13
361.276
351.642
356.634
377.748
396.105
389.775
354.238
299.801
241.813
189.894
143.081
101.735
67.6112
41.1897
21.2536
6.01897
-7.23914
-19.9453
-30.7866
-36.0846
-32.4943
-23.1736
4.89593
442.132
441.399
438.607
433.782
422.687
400.916
377.952
360.8
352.859
362.148
388.78
407.95
397.855
355.637
296.978
239.712
189.062
142.719
102.663
70.0024
44.699
25.4104
10.3618
-2.99066
-15.8541
-26.7058
-31.7037
-27.7238
-19.705
10.647
442.354
441.611
438.769
434.078
422.7
399.906
377.207
360.83
354.417
366.496
396.557
415.438
402.154
355.348
295.816
240.332
190.143
144.085
104.893
72.8764
47.7092
28.072
12.421
-1.43571
-14.4528
-25.1338
-29.7659
-25.3427
-19.0114
14.9336
428.244
427.519
425.618
422.5
418.2
412.723
404.848
391.955
375.686
359.407
340.479
318.275
295.34
273.424
252.588
231.965
210.915
189.042
166.072
142.358
117.856
93.1347