/*--------------------------------*- C++ -*----------------------------------*\
| =========                 |                                                 |
| \\      /  F ield         | OpenFOAM: The Open Source CFD Toolbox           |
|  \\    /   O peration     | Version:  2512                                  |
|   \\  /    A nd           | Website:  www.openfoam.com                      |
|    \\/     M anipulation  |                                                 |
\*---------------------------------------------------------------------------*/
FoamFile
{
    version     2.0;
    format      ascii;
    arch        "LSB;label=32;scalar=64";
    class       surfaceScalarField;
    location    "120";
    object      phi;
}
// * * * * * * * * * * * * * * * * * * * * * * * * * * * * * * * * * * * * * //

dimensions      [0 3 -1 0 0 0 0];

oriented        oriented;

internalField   nonuniform List<scalar> 
278528
(
1.60139
-0.00027303
-0.00109331
1.60743
-0.00149869
-0.00448592
1.61845
-0.00274658
-0.00819416
1.63442
-0.00383189
-0.0120474
1.65352
-0.00329397
-0.0157275
1.67473
-0.00249579
-0.0186309
1.69628
-0.00111791
-0.0202402
1.71906
-0.000634202
-0.0218377
1.74602
0.00338723
-0.0298538
1.8081
0.00273945
-0.0642904
1.91689
0.025901
-0.134208
2.05906
0.0636859
-0.205463
2.23531
0.0729498
-0.248865
2.39712
0.105751
-0.267358
2.54723
0.118099
-0.26822
2.68422
0.122666
-0.259688
2.80731
0.125156
-0.248259
2.92084
0.122709
-0.236274
3.02415
0.125313
-0.228672
3.12032
0.129864
-0.226102
3.21197
0.138241
-0.229986
3.30184
0.151076
-0.241049
3.39262
0.16852
-0.259391
3.48652
0.190166
-0.284132
3.58514
0.214887
-0.31355
3.68833
0.240781
-0.343975
3.7978
0.265304
-0.374753
3.90997
0.285753
-0.397873
4.05187
0.298013
-0.439871
0.294435
-0.487221
1.60185
-0.000995441
-0.00110878
1.60828
-0.00333141
-0.00455265
1.61951
-0.00561682
-0.00829207
1.63535
-0.00741364
-0.0121838
1.65477
-0.00676435
-0.0158739
1.67687
-0.0058632
-0.0186697
1.69793
-0.00162144
-0.0203966
1.7213
-0.000624274
-0.0230849
1.75264
0.00714825
-0.0346546
1.81618
0.010835
-0.0711333
1.92152
0.0545748
-0.133563
2.05426
0.123969
-0.192639
2.21978
0.138427
-0.230678
2.37248
0.202963
-0.249722
2.51634
0.227591
-0.253319
2.64956
0.236812
-0.247376
2.77174
0.240649
-0.237674
2.88319
0.237423
-0.22619
2.98601
0.239992
-0.21755
3.08198
0.246283
-0.212457
3.17328
0.259083
-0.212232
3.26234
0.279574
-0.217655
3.3516
0.308284
-0.229123
3.44316
0.344835
-0.246297
3.53868
0.387628
-0.268302
3.63821
0.433822
-0.292569
3.7438
0.478967
-0.319225
3.85202
0.51862
-0.341032
3.98909
0.543895
-0.382915
0.54477
-0.43321
1.60186
-0.00168503
-0.00115253
1.60841
-0.00514138
-0.00470648
1.61969
-0.00826899
-0.00856349
1.63583
-0.0109118
-0.0125761
1.65569
-0.0101715
-0.0163925
1.67792
-0.00890838
-0.0191305
1.70115
-0.00396289
-0.0207549
1.72501
0.000587006
-0.0248265
1.76157
0.0116629
-0.0406861
1.8337
0.0200063
-0.0808452
1.94117
0.0826595
-0.135133
2.06706
0.178116
-0.179692
2.22102
0.19351
-0.208757
2.36102
0.288332
-0.22519
2.49489
0.323218
-0.229437
2.62137
0.335054
-0.224696
2.73902
0.338865
-0.215854
2.8481
0.333303
-0.204981
2.9494
0.334199
-0.195544
3.04423
0.339802
-0.188422
3.13432
0.353688
-0.184775
3.22166
0.37748
-0.185351
3.30838
0.41216
-0.190685
3.39632
0.457617
-0.200793
3.48703
0.512308
-0.215438
3.58066
0.57327
-0.23308
3.67947
0.63489
-0.254693
3.77985
0.692132
-0.273842
3.90699
0.73041
-0.313603
0.745263
-0.362232
1.60192
-0.00238045
-0.0012128
1.60852
-0.00677922
-0.00493509
1.62008
-0.0108013
-0.00897055
1.63655
-0.0141524
-0.0131643
1.65742
-0.013813
-0.0171813
1.68035
-0.0117621
-0.0200305
1.70368
-0.00566859
-0.0215087
1.73157
-0.000193292
-0.0268791
1.77554
0.014759
-0.0467035
1.85763
0.0252326
-0.0868827
1.96884
0.0988003
-0.12698
2.09075
0.213897
-0.157393
2.23301
0.228583
-0.17708
2.35806
0.354198
-0.190739
2.47945
0.396615
-0.1947
2.5971
0.407521
-0.190065
2.70874
0.408688
-0.181445
2.81407
0.399028
-0.171069
2.91289
0.396673
-0.16134
3.00586
0.399879
-0.153108
3.0941
0.412704
-0.14735
3.17922
0.436941
-0.144679
3.26289
0.473918
-0.145535
3.34671
0.523815
-0.15009
3.43198
0.585576
-0.158579
3.51873
0.656638
-0.170118
3.60908
0.730973
-0.186392
3.69934
0.803887
-0.20196
3.81208
0.85552
-0.237798
0.892088
-0.281013
1.60195
-0.00304052
-0.00129317
1.60866
-0.00823177
-0.00523157
1.62061
-0.0132061
-0.00949991
1.63764
-0.0172097
-0.0139157
1.66047
-0.0183826
-0.018212
1.68442
-0.014162
-0.0214964
1.70998
-0.00844123
-0.022668
1.74046
-0.00103874
-0.0294024
1.79376
0.0126641
-0.0508187
1.88318
0.0185917
-0.0824642
1.99965
0.0874719
-0.10486
2.14792
0.186726
-0.120829
2.25215
0.257397
-0.132834
2.35974
0.390337
-0.14357
2.46647
0.438055
-0.148093
2.57337
0.444054
-0.143385
2.67731
0.43933
-0.134565
2.77757
0.423334
-0.124584
2.87291
0.416119
-0.11483
2.9632
0.415844
-0.106328
3.049
0.426713
-0.0999021
3.13144
0.450259
-0.0958698
3.21184
0.487761
-0.0943527
3.29146
0.539572
-0.0954552
3.37129
0.605157
-0.0994594
3.45117
0.682768
-0.106008
3.53271
0.766704
-0.117235
3.61211
0.85333
-0.128766
3.70848
0.918554
-0.159357
0.98277
-0.194488
1.60196
-0.00361729
-0.00138931
1.60902
-0.00968806
-0.00559084
1.62114
-0.0151417
-0.0101504
1.63856
-0.0197481
-0.0148333
1.66197
-0.0222841
-0.0194478
1.69089
-0.0191962
-0.0238238
1.7181
-0.0110145
-0.0244923
1.75318
-0.00479667
-0.0310352
1.81113
0.00429433
-0.0493621
1.89153
0.00265851
-0.0641544
2.031
0.01108
-0.0627968
2.16771
0.109165
-0.058838
2.27562
0.217204
-0.0674734
2.36222
0.385859
-0.0819814
2.45211
0.437102
-0.0888854
2.54671
0.433678
-0.0841997
2.64196
0.419364
-0.0752832
2.73553
0.395913
-0.0661705
2.82629
0.382252
-0.0569449
2.913
0.378236
-0.0491792
2.99568
0.387486
-0.0435533
3.07495
0.410866
-0.0399984
3.15183
0.448924
-0.0381441
3.22728
0.501916
-0.0378776
3.30209
0.569633
-0.0393333
3.37583
0.651376
-0.042337
3.4494
0.742429
-0.0492508
3.51887
0.840694
-0.0567426
3.59913
0.919878
-0.0815257
1.01563
-0.107078
1.60206
-0.00420096
-0.0015006
1.60922
-0.0108214
-0.0060219
1.62215
-0.0170443
-0.0109963
1.6403
-0.0219087
-0.0159407
1.66347
-0.0247675
-0.0206226
1.69411
-0.0238918
-0.0258515
1.72699
-0.0160533
-0.0276457
1.76202
-0.00918639
-0.0304404
1.81626
-0.0119807
-0.037613
1.90163
-0.0123712
-0.0250091
-0.0214264
-0.00916852
-0.0144969
2.05592
-0.045297
0.0146992
-0.0420011
-0.0380954
-0.0323864
2.21859
-0.0336742
0.044262
-0.0296862
-0.0183232
-0.0158038
2.30811
0.0118776
0.0212417
0.0334411
0.0236008
0.037804
2.36797
0.0734205
-0.0148745
0.0871806
0.0843272
0.0960619
2.43316
0.399694
-0.0277851
2.50492
0.3829
-0.0209856
2.59297
0.341034
-0.00973036
2.67773
0.310669
0.000457729
2.76164
0.288757
0.00954165
2.8424
0.281451
0.0159476
2.91973
0.290622
0.0194271
2.99403
0.315583
0.0208585
3.06614
0.355544
0.0211635
3.13696
0.410029
0.0209905
3.20715
0.479048
0.0203638
3.27629
0.562887
0.019358
3.34467
0.658484
0.0156406
3.40855
0.765319
0.0116018
3.47891
0.856942
-0.00733546
0.985521
-0.0215204
1.60196
-0.00456203
-0.00162733
1.60967
-0.0119934
-0.0065462
1.62344
-0.0184374
-0.0123587
1.6428
-0.0235985
-0.0176198
1.666
-0.0266264
-0.0212702
1.6951
-0.0261341
-0.0267179
1.73024
-0.0207716
-0.0302073
1.76236
-0.0148451
-0.0261352
0.440578
-0.00652722
-0.0119308
0.438368
0.460825
0.458611
-0.013927
-0.00488461
-0.0106226
0.444041
-0.0246067
0.00887563
0.470556
-0.0798654
0.0188239
-0.454784
-0.491938
0.526406
-0.10023
0.032202
-0.546778
0.563701
-0.0291718
0.0243049
-0.563287
0.563099
0.0604914
0.0131934
2.3338
0.353959
0.0066992
-0.565025
-0.553887
-0.598112
-0.577788
2.39645
0.294888
0.0253375
2.46744
0.228716
0.0413127
2.54456
0.179904
0.0536314
2.62264
0.148503
0.0621407
2.69903
0.13807
0.0669221
2.77308
0.147741
0.068722
2.84474
0.174775
0.0690355
2.91441
0.216565
0.069207
2.98291
0.271558
0.0699087
3.05105
0.339828
0.0710717
3.11851
0.422914
0.0725517
3.18516
0.519921
0.0720217
3.24697
0.632147
0.0715161
3.31309
0.732864
0.0580806
0.89149
0.0563643
1.60192
-0.00476864
-0.00176417
1.60961
-0.0126422
-0.00705866
1.62425
-0.0196444
-0.0134085
1.64535
-0.0249409
-0.0197034
1.6695
-0.0273192
-0.0233601
1.69813
-0.0273802
-0.027211
1.73147
-0.0234296
-0.0303834
0.431788
-0.0177214
-0.0192178
0.431267
0.445905
0.444916
0.427268
-0.00826398
0.00636294
0.422032
-0.0585168
0.0219531
0.0381613
-0.423327
0.428255
0.0539809
-0.43369
0.126947
-0.0482439
-0.0392577
-0.0460377
-0.0419566
0.440636
-0.417905
0.172268
-0.0440082
-0.0620772
-0.0510429
-0.0571837
-0.00691584
0.0120701
0.00813049
0.00608322
-0.473771
0.496288
0.0602002
-0.00123228
-0.0149904
-0.00619228
-0.00888914
-0.0131587
-0.0109822
-0.00953851
-0.0177619
-0.501324
0.494042
-0.0562066
0.0119349
0.0176718
0.02003
0.0134951
-0.00205535
0.000269968
0.00301709
-0.000853524
1.88665
0.188388
0.0943553
-0.483856
-0.416351
-0.497125
-0.418211
1.98371
0.113014
0.084769
2.08531
0.0425402
0.0845783
2.18871
-0.0120816
0.0885911
2.28999
-0.0465529
0.0937746
2.38832
-0.0575017
0.0971918
2.48295
-0.0452721
0.0982798
2.57229
-0.0135165
0.0988431
2.65553
0.0327648
0.100478
2.73352
0.0897549
0.103789
2.80796
0.157134
0.108266
2.87997
0.237869
0.113119
2.95079
0.33361
0.115649
3.01657
0.448524
0.11807
3.08639
0.554584
0.108646
0.741132
0.118045
1.60193
-0.00484884
-0.00190607
1.60971
-0.0129153
-0.00754219
1.62409
-0.0201013
-0.0138992
1.64583
-0.0255585
-0.0210602
1.67313
-0.0282379
-0.026264
1.7022
-0.0269825
-0.0292466
1.73058
-0.0198904
-0.0315513
0.428324
-0.00823565
-0.0156315
0.427051
0.441866
0.439884
0.414277
-0.00388813
0.00952979
0.00857407
0.0144119
-0.0971706
0.0914908
-0.0139542
0.00534149
0.055399
-0.0730846
0.055708
0.0128244
-0.0105067
-0.0152831
-0.0130116
-0.0119454
0.0492725
-0.0434242
0.0782695
-0.024748
-0.0155748
-0.0141161
-0.0147752
-0.0148929
-0.111551
-0.0013815
0.110393
0.0015962
0.000330837
-0.000156506
0.000532009
0.00022542
-0.103832
-0.0049364
0.000434984
0.0106575
0.0976754
1.08553
-0.177839
0.231215
-0.2965
-0.247029
-0.253854
-0.153339
1.29884
-0.213505
0.113132
1.5377
-0.27092
0.0746246
1.7749
-0.315098
0.0658521
1.98896
-0.33121
0.0706263
2.17009
-0.317195
0.0785331
2.31694
-0.277798
0.0855928
2.43197
-0.221364
0.0927159
2.52037
-0.157312
0.101629
2.58826
-0.0912227
0.113097
2.64236
-0.0229616
0.126057
2.68882
0.0530891
0.138453
2.73336
0.142646
0.146662
2.77569
0.253718
0.152798
2.8283
0.355877
0.146369
0.559272
0.162207
1.60194
-0.00480896
-0.00205682
1.60998
-0.0128746
-0.00811645
1.6249
-0.0200727
-0.0149217
1.64755
-0.0255484
-0.0225897
1.67623
-0.028384
-0.0283937
1.70736
-0.0258509
-0.0320085
1.73677
-0.0147492
-0.0341418
0.4276
0.00478589
-0.0167777
0.429398
0.440705
0.443312
-0.000782345
0.411959
0.00656468
0.0101339
-0.000126969
-0.0932451
0.0799728
0.00696611
0.00652116
-0.0204068
-0.0480285
0.0796696
0.0343699
-0.00886181
-0.0140974
-0.0086167
-0.0140939
0.00181329
-0.102225
0.101489
-0.0103365
0.00928428
-0.0858888
0.0234482
-0.0340987
0.0304126
0.0661218
1.04993
-0.445682
-0.15284
-0.117491
-0.178752
-0.118221
-0.214957
1.44283
-0.504019
-0.102446
1.77781
-0.553383
-0.0524768
2.0468
-0.570907
-0.0131287
2.25194
-0.552927
0.0166227
2.39897
-0.500122
0.0358849
2.49987
-0.427466
0.0486768
2.56454
-0.347037
0.0609088
2.60264
-0.271687
0.0762503
2.62343
-0.207523
0.0955626
2.63363
-0.150386
0.117321
2.63639
-0.0884373
0.13896
2.6343
-0.0108915
0.155954
2.6273
0.0919241
0.169233
2.62469
0.188983
0.169874
0.389617
0.189593
1.60197
-0.00465663
-0.00221468
1.61041
-0.0125885
-0.00877067
1.62667
-0.0198298
-0.0164704
1.65051
-0.0249851
-0.0243116
1.67918
-0.0270692
-0.0298323
1.71298
-0.0240339
-0.0353474
1.75079
-0.0140157
-0.0380974
0.434011
0.00894947
-0.0222312
0.435582
0.448777
0.450925
-0.0119291
0.423964
0.0142904
0.00793765
-0.0161723
0.0773318
0.0295174
-0.0233939
-0.0189209
-0.0270922
0.0948859
0.0957181
0.0989486
0.0976402
-0.408298
-0.0660339
-0.0937929
0.0836205
0.0166819
0.0595376
-0.0794269
-0.0504698
0.0654163
-0.0122015
0.0767807
-0.00835433
-0.0650116
0.0548755
-0.0109667
0.0296036
0.00590485
-0.0474048
-0.0183987
0.0502411
0.00968857
1.71378
-0.583942
-0.148575
-0.289903
-0.358554
-0.354156
-0.424446
1.97466
-0.676868
-0.0880634
2.17779
-0.713058
-0.0434042
2.33164
-0.706622
-0.0180514
2.4366
-0.653373
-0.00445978
2.50224
-0.568268
0.00248037
2.53492
-0.469859
0.00959358
2.5423
-0.37755
0.0230208
2.53294
-0.306685
0.0443701
2.51496
-0.260711
0.0712719
2.49659
-0.232664
0.100788
2.48076
-0.200943
0.128574
2.46579
-0.145657
0.150149
2.44604
-0.0548548
0.167104
2.41803
0.0433521
0.174151
0.242012
0.197286
1.60204
-0.00442967
-0.00236957
1.61099
-0.0122273
-0.00936263
1.6276
-0.0189488
-0.0174444
1.65158
-0.0235691
-0.02529
1.68171
-0.0250058
-0.0320292
1.72008
-0.0220565
-0.0400582
1.76419
-0.0142142
-0.0434838
1.79475
0.0109105
-0.0320665
0.440582
0.0709634
-0.000467583
-0.0150586
-0.0284511
-0.0161245
-0.0294425
0.445564
0.461186
0.466396
-0.0621285
0.435088
0.0515797
0.0162102
-0.181562
0.463548
0.13038
0.0319308
-0.444197
-0.198421
-0.482358
0.489736
0.140332
0.0510474
-0.108588
-0.484325
0.479283
0.0633256
0.050071
0.0184878
-0.474753
0.475742
-0.0531317
0.0334815
2.15684
-0.633875
-0.004519
-0.491686
-0.528053
-0.528219
-0.554482
2.24161
-0.745684
-0.0159367
2.3212
-0.771401
-0.0211631
2.38373
-0.740936
-0.0281094
2.42116
-0.657279
-0.0334666
2.43324
-0.546249
-0.0341542
2.42385
-0.43393
-0.0267083
2.39615
-0.342802
-0.0071831
2.35437
-0.288189
0.0233372
2.31096
-0.276041
0.0589055
2.27602
-0.292484
0.0949361
2.25059
-0.301334
0.126095
2.22757
-0.27085
0.148704
2.19813
-0.189142
0.164433
2.1552
-0.0853919
0.172346
0.116947
0.193781
1.60218
-0.00421175
-0.00251946
1.61112
-0.0113139
-0.00989822
1.62772
-0.0174832
-0.0180059
1.6522
-0.0214525
-0.0264705
1.6853
-0.0225427
-0.0353805
1.72925
-0.0215856
-0.0441317
1.77642
-0.01467
-0.046298
1.81951
0.00910665
-0.040905
1.86206
0.0497598
-0.0211697
1.914
0.122223
0.0308495
-0.0411811
-0.0590326
-0.0443411
-0.0603848
2.02576
0.172517
0.0992425
-0.0952666
-0.0960958
-0.0967971
-0.0954209
2.12272
0.054905
0.138865
-0.0794454
-0.0683417
-0.0752003
-0.0680434
2.15642
-0.133792
0.111529
-0.0197872
0.0100183
-0.0159816
0.0139941
2.15859
-0.449301
0.0476629
0.073573
0.102485
0.0930768
0.130292
2.18881
-0.653874
-0.0102803
2.23434
-0.752736
-0.0384219
2.2898
-0.769635
-0.0570923
2.32048
-0.701904
-0.0695674
2.32903
-0.592681
-0.0730904
2.31535
-0.466215
-0.0664645
2.28128
-0.351863
-0.0482536
2.22774
-0.271937
-0.0175023
2.1606
-0.2434
0.0224577
2.09749
-0.277194
0.0645208
2.05297
-0.351336
0.103624
2.02257
-0.405243
0.134593
1.98798
-0.389683
0.153978
1.9374
-0.30115
0.163424
1.86169
-0.177163
0.16834
0.0289728
0.184531
1.60213
-0.00380217
-0.00266822
1.61134
-0.0101168
-0.0104577
1.62817
-0.0152936
-0.0189363
1.65361
-0.0187148
-0.0280354
1.68964
-0.0204128
-0.037957
1.7356
-0.0206264
-0.0466235
1.78201
-0.0125502
-0.0481346
1.83248
0.00586233
-0.0469187
1.88431
0.0310977
-0.0330718
1.92479
0.0780959
0.00357066
1.99851
0.0487526
0.0499236
2.0489
-0.0635892
0.0679059
2.08035
-0.211405
0.0459487
2.10223
-0.472544
0.00120908
2.14358
-0.647042
-0.0482013
2.19364
-0.719825
-0.0828636
2.23015
-0.704366
-0.101593
2.24385
-0.609289
-0.106141
2.23489
-0.484801
-0.0988665
2.20444
-0.356132
-0.079826
2.15183
-0.251212
-0.0484154
2.07441
-0.188919
-0.00583512
1.98273
-0.192935
0.0413871
1.90568
-0.28613
0.0863693
1.85461
-0.426164
0.12617
1.80464
-0.509847
0.154897
1.73011
-0.481126
0.166595
1.63181
-0.365878
0.164047
1.50638
-0.211012
0.160375
-0.0108649
0.168597
1.60215
-0.00329131
-0.00280132
1.61143
-0.00846432
-0.0109758
1.62897
-0.0128521
-0.0198857
1.65556
-0.0155906
-0.0295412
1.69346
-0.0180094
-0.0400896
1.73757
-0.0161928
-0.048237
1.7861
-0.0103102
-0.0503941
1.83729
0.00537934
-0.0504646
1.88913
0.0181052
-0.0388407
1.93421
0.0420663
-0.00918461
1.96616
-0.00816493
0.0248006
2.00758
-0.138535
0.0333048
2.01716
-0.229209
0.00799046
2.04812
-0.461976
-0.0416617
2.09502
-0.598462
-0.0954556
2.14179
-0.636649
-0.129777
2.1682
-0.59201
-0.138537
2.17069
-0.482929
-0.128641
2.15116
-0.357606
-0.107653
2.11033
-0.240296
-0.075328
2.04248
-0.153026
-0.0308862
1.9433
-0.111306
0.0212465
1.83229
-0.153664
0.0720875
1.74137
-0.313242
0.118592
1.6588
-0.504583
0.161369
1.54102
-0.579741
0.187973
1.37933
-0.504685
0.185976
1.20309
-0.352049
0.163711
1.02443
-0.177056
0.14624
-0.0060003
0.146284
1.60215
-0.00267724
-0.00291315
1.61168
-0.00660938
-0.0114285
1.62962
-0.00994039
-0.0207229
1.65698
-0.0118789
-0.0308577
1.69499
-0.0139359
-0.0418529
1.74075
-0.0116722
-0.0499969
1.78954
-0.00666725
-0.0521064
1.84147
0.00519624
-0.0515875
1.88726
0.0123721
-0.0401343
1.92173
0.0214855
-0.0140736
1.934
-0.0318377
0.0112151
1.93209
-0.146622
0.00977223
1.9605
-0.2319
-0.0259683
1.99775
-0.413585
-0.0857897
2.04825
-0.507221
-0.141687
2.09125
-0.512048
-0.167393
2.1105
-0.450286
-0.160674
2.10621
-0.343276
-0.135134
2.08155
-0.231992
-0.100992
2.03433
-0.136975
-0.0565616
1.95408
-0.0717689
-0.00174035
1.83796
-0.0510706
0.0556385
1.70949
-0.131727
0.106995
1.58013
-0.342122
0.158957
1.40743
-0.54364
0.212113
1.16304
-0.56848
0.233467
0.887152
-0.433857
0.206038
0.641467
-0.260793
0.156543
0.447219
-0.106999
0.126686
0.0190361
0.12087
1.60212
-0.0019385
-0.0029973
1.61189
-0.00462964
-0.0117765
1.63019
-0.00670486
-0.0213837
1.65833
-0.00792056
-0.0318673
1.69701
-0.0091991
-0.0431782
1.74416
-0.00717669
-0.0513494
1.79437
-0.0039573
-0.0526289
1.84347
0.00687565
-0.050684
1.88376
0.0099618
-0.0380115
1.90697
0.0119968
-0.0139494
1.90385
-0.0332294
0.0042732
1.88827
-0.122974
-0.00835074
1.91252
-0.195511
-0.0608966
1.95313
-0.321717
-0.132596
2.0032
-0.373518
-0.18369
2.04101
-0.35644
-0.193165
2.05516
-0.295295
-0.168812
2.04821
-0.207682
-0.128422
2.02262
-0.123774
-0.0827519
1.97136
-0.0578509
-0.0284933
1.8824
-0.0154177
0.0317832
1.75426
-0.0116498
0.0884223
1.59603
-0.11296
0.140273
1.37891
-0.331525
0.207596
1.05171
-0.494206
0.278312
0.658798
-0.45658
0.281384
0.310283
-0.297718
0.213771
0.0530804
-0.143031
0.142264
-0.128506
-0.037582
0.115256
0.0233964
0.0957642
1.60214
-0.00127987
-0.00308333
1.61199
-0.00257409
-0.0120488
1.6307
-0.00346893
-0.0218674
1.65934
-0.00380269
-0.0325342
1.69886
-0.00449046
-0.043979
1.74737
-0.00341914
-0.0519887
1.79589
-0.00037284
-0.0518405
1.84435
0.00601716
-0.0475299
1.87972
0.00720479
-0.0327864
1.89313
0.00774342
-0.00945319
1.87785
-0.0205262
0.00224678
1.85223
-0.0732354
-0.0244937
1.87196
-0.118403
-0.0971731
1.91135
-0.183071
-0.178181
1.95669
-0.201755
-0.217024
1.98837
-0.182301
-0.205559
1.99964
-0.142382
-0.163874
1.99348
-0.0904849
-0.110876
1.96885
-0.044481
-0.0548831
1.91467
-0.0106313
0.00625903
1.82112
0.0111738
0.0661765
1.68315
0.00949036
0.116971
1.47244
-0.0704281
0.169432
1.11375
-0.230565
0.25919
0.596815
-0.315716
0.339242
0.0819358
-0.242582
0.301332
-0.289675
-0.123476
0.198571
-0.495958
-0.0540082
0.119257
-0.612676
-0.0109287
0.0919551
0.0078351
0.0624459
1.60173
-0.00311699
1.61132
-0.01221
1.63008
-0.0221416
1.65932
-0.0328941
1.69929
-0.0442912
1.74773
-0.0516874
1.79719
-0.0497067
1.84506
-0.0418575
1.87549
-0.0233362
1.88276
0.000295777
1.8576
0.00442947
1.824
-0.0398549
1.83901
-0.133582
1.87405
-0.218177
1.91261
-0.240259
1.93843
-0.207983
1.94745
-0.151248
1.94444
-0.0874234
1.91963
-0.0198209
1.85972
0.0488961
1.76278
0.1078
1.62212
0.150336
1.35609
0.196391
0.830154
0.29624
0.173657
0.341218
-0.3371
0.268433
-0.622964
0.162988
-0.767353
0.0912771
-0.841626
0.0641829
0.0266308
1.6016
-0.00034453
-0.00236191
1.6078
-0.0015812
-0.00908643
1.61898
-0.00283782
-0.016495
1.63481
-0.00357321
-0.0242605
1.65529
-0.0043109
-0.0318503
1.67891
-0.00325319
-0.0389411
1.70733
-0.000651205
-0.0479098
1.75175
0.00231233
-0.068418
1.8325
0.0105962
-0.121032
1.96632
0.0190776
-0.217013
2.14076
0.026011
-0.334527
2.30388
0.0532291
-0.421701
2.47202
0.0437757
-0.460686
2.62034
0.055639
-0.471273
2.74955
0.0640899
-0.461543
2.86875
0.062419
-0.441331
2.98347
0.0580408
-0.421042
3.09225
0.0555132
-0.400586
3.1979
0.058947
-0.393311
3.30375
0.0634205
-0.395414
3.4118
0.071425
-0.409519
3.52303
0.0836333
-0.435977
3.63757
0.0997967
-0.473803
3.75444
0.119166
-0.520232
3.87353
0.140783
-0.573489
3.98577
0.161755
-0.618029
4.09133
0.181282
-0.661631
4.18802
0.19718
-0.691779
4.27918
0.206416
-0.737464
0.207969
-0.762252
1.60199
-0.00107162
-0.0023701
1.60855
-0.00346023
-0.00919396
1.61993
-0.0057913
-0.0166685
1.63585
-0.00707695
-0.0245447
1.65607
-0.00829774
-0.0320406
1.68059
-0.00696183
-0.0394387
1.71085
-0.00171851
-0.0494887
1.75653
0.0047184
-0.0710395
1.83651
0.0185997
-0.122478
1.96246
0.0340387
-0.211867
2.12047
0.051796
-0.317228
2.27329
0.101639
-0.393743
2.4337
0.083267
-0.430492
2.57889
0.105616
-0.444834
2.70616
0.123793
-0.440306
2.82431
0.120483
-0.423611
2.93749
0.112176
-0.405006
3.04158
0.108488
-0.383277
3.14533
0.109866
-0.372259
3.24943
0.115406
-0.368594
3.35499
0.128197
-0.374632
3.46292
0.14894
-0.390973
3.5735
0.17742
-0.417405
3.68669
0.213233
-0.453635
3.80036
0.251967
-0.493225
3.90905
0.292751
-0.532325
4.0119
0.330969
-0.571803
4.10707
0.363321
-0.602382
4.1977
0.383354
-0.6505
0.39129
-0.684934
1.60197
-0.00174292
-0.00245228
1.60869
-0.00533734
-0.00951203
1.62013
-0.00851739
-0.0172259
1.63643
-0.0104573
-0.0254361
1.65716
-0.012314
-0.0330577
1.68265
-0.0105099
-0.0410208
1.71725
-0.00457823
-0.0524286
1.76658
0.00790408
-0.0772254
1.85102
0.0256562
-0.132032
1.97352
0.0467434
-0.215902
2.11072
0.0797373
-0.300145
2.26147
0.131212
-0.359907
2.413
0.113455
-0.390377
2.54729
0.150176
-0.403994
2.66775
0.174383
-0.40048
2.781
0.167927
-0.385387
2.88971
0.15454
-0.366939
2.99227
0.147271
-0.346348
3.09378
0.144979
-0.332206
3.19493
0.149429
-0.32364
3.29689
0.164097
-0.322701
3.4004
0.190045
-0.330049
3.50614
0.228152
-0.347236
3.61436
0.274723
-0.370576
3.71972
0.329574
-0.398473
3.822
0.387785
-0.43045
3.91844
0.443845
-0.464039
4.00725
0.493171
-0.492522
4.09188
0.525426
-0.54032
0.545548
-0.578472
1.60204
-0.00242095
-0.00257485
1.60879
-0.00701543
-0.0099802
1.62054
-0.0111403
-0.0180519
1.63744
-0.0137633
-0.0267065
1.6591
-0.0163464
-0.0347503
1.68595
-0.0137955
-0.0435733
1.72303
-0.00649436
-0.0566052
1.78036
0.00872933
-0.0849309
1.87078
0.0301722
-0.141502
1.99159
0.0539846
-0.214783
2.12635
0.0928862
-0.274767
2.26284
0.154732
-0.317295
2.40064
0.132326
-0.333665
2.52339
0.182454
-0.345711
2.63405
0.211269
-0.342222
2.74006
0.199346
-0.327488
2.84296
0.17896
-0.30877
2.94184
0.166232
-0.288924
3.03951
0.158769
-0.272837
3.1367
0.160215
-0.261131
3.23426
0.174486
-0.255373
3.33276
0.202922
-0.256126
3.43411
0.246957
-0.265773
3.53368
0.302798
-0.277803
3.63192
0.370411
-0.297717
3.72628
0.444221
-0.320959
3.81409
0.517291
-0.347678
3.89352
0.583978
-0.372202
3.96765
0.630324
-0.416829
0.667426
-0.453913
1.60207
-0.00306198
-0.0027344
1.60897
-0.00853479
-0.0105867
1.62112
-0.0136347
-0.0191262
1.63915
-0.0173497
-0.028303
1.65849
-0.0158806
-0.0379811
1.69022
-0.0213285
-0.0456419
1.73182
-0.00888031
-0.0618219
1.79575
0.00850085
-0.0929979
1.89191
0.0295385
-0.146207
2.01348
0.0496311
-0.199539
2.14657
0.0864126
-0.23135
2.30221
0.131704
-0.253345
2.39867
0.161164
-0.258056
2.50453
0.2029
-0.269813
2.60176
0.232067
-0.266101
2.69778
0.211079
-0.251125
2.7926
0.181424
-0.231851
2.8859
0.160697
-0.21237
2.97852
0.146789
-0.195509
3.07092
0.143972
-0.182537
3.16358
0.156375
-0.174517
3.25655
0.186405
-0.172399
3.35158
0.232292
-0.174794
3.44483
0.295962
-0.181943
3.53607
0.373969
-0.194301
3.62242
0.461574
-0.209749
3.70101
0.55081
-0.229351
3.76986
0.635017
-0.248643
3.83124
0.697343
-0.287758
0.755371
-0.319964
1.6022
-0.00373571
-0.00293271
1.60925
-0.00984956
-0.0113247
1.62164
-0.0156912
-0.0204503
1.63996
-0.0203073
-0.0301512
1.66789
-0.0215395
-0.04166
1.69519
-0.023428
-0.0489777
1.74174
-0.0122611
-0.0675791
1.81179
0.00675138
-0.0992267
1.91025
0.0238988
-0.142024
2.03187
0.0311027
-0.16714
2.18045
0.0374227
-0.162334
2.30554
0.108561
-0.160708
2.42574
0.134025
-0.160447
2.48941
0.237664
-0.180369
2.56732
0.242487
-0.177206
2.64954
0.205529
-0.160872
2.7331
0.162905
-0.140333
2.81853
0.129933
-0.120854
2.90535
0.107303
-0.104319
2.9928
0.0992062
-0.0919194
3.08046
0.109694
-0.0845973
3.16963
0.138418
-0.0812619
3.25764
0.187533
-0.0814713
3.34541
0.256245
-0.0859898
3.43059
0.342577
-0.0931674
3.51001
0.442074
-0.102273
3.58033
0.546368
-0.115124
3.63915
0.64794
-0.128452
3.68764
0.727778
-0.160438
0.809475
-0.184875
1.60207
-0.004181
-0.00315587
1.6098
-0.0113834
-0.0122221
1.62271
-0.0173118
-0.0222644
1.64163
-0.0226177
-0.0325039
1.6682
-0.025091
-0.0435794
1.69869
-0.0248896
-0.0548107
1.74727
-0.0164693
-0.0719115
1.82362
0.00146443
-0.101362
1.92776
0.00736366
-0.125187
2.03418
-0.000304218
-0.112484
0.000763586
0.0022754
0.00941417
2.18622
-0.0191128
-0.0463582
-0.0164096
-0.00789322
-0.0100918
2.3287
0.00370532
-0.0165833
0.000609125
0.0152142
0.00751094
2.41805
0.027463
-0.0425452
0.0317141
0.027388
0.0219624
2.46503
0.0726169
-0.0938839
0.0751792
0.062814
0.0591028
2.5143
0.261275
-0.095865
2.5756
0.194568
-0.0713343
2.64733
0.126302
-0.0448757
2.72553
0.0755183
-0.0233504
2.80877
0.0407097
-0.00714064
2.89361
0.0267344
0.00352834
2.97931
0.0345902
0.00876305
3.06404
0.0644514
0.0100236
3.14846
0.115827
0.00837825
3.23213
0.188484
0.00502886
3.31292
0.281144
0.000977291
3.3874
0.390277
-0.00332283
3.45156
0.508035
-0.0101583
3.50209
0.62645
-0.0173801
3.53923
0.724959
-0.0416127
0.832462
-0.0560075
1.60213
-0.00458048
-0.00340134
1.60975
-0.0122227
-0.013339
1.62344
-0.0195264
-0.0238122
1.64287
-0.0246511
-0.0349751
1.67046
-0.0262546
-0.047614
1.70585
-0.0274594
-0.0594436
1.75466
-0.0195461
-0.0758142
1.83556
-0.0072715
-0.0982255
0.477871
0.000239366
-0.0944448
0.477294
0.487229
0.487064
-0.00394143
0.0012065
-0.00147156
-0.00392566
0.490876
-0.00783479
-0.00151963
-0.0263727
0.528767
-0.0352689
0.024306
-0.510538
-0.044504
-0.550197
0.575406
-0.0202541
0.043331
-0.024871
-0.596213
0.609689
0.021882
0.0170677
-0.0057331
-0.611403
0.609371
0.0895157
-0.00910619
2.37421
0.311939
-0.0479342
-0.601904
-0.582655
-0.602747
-0.582992
2.4219
0.171776
0.000402548
2.49006
0.0625412
0.0369026
2.57206
-0.014904
0.0620333
2.66038
-0.0629194
0.0774291
2.74976
-0.0813041
0.0855384
2.83803
-0.0721112
0.087086
2.92421
-0.0382769
0.0855187
3.00849
0.0177161
0.0829776
3.09107
0.0946775
0.0811065
3.17064
0.192084
0.0805464
3.24405
0.308194
0.0812411
3.30681
0.436952
0.0804033
3.35466
0.570756
0.0794539
3.38627
0.688584
0.0629108
0.824621
0.0601629
1.6021
-0.00483263
-0.00366992
1.61006
-0.012921
-0.0143463
1.62345
-0.0202612
-0.0260428
1.6421
-0.0262844
-0.0366612
1.67291
-0.0288741
-0.0514638
1.7099
-0.0272624
-0.0642704
1.76068
-0.0194681
-0.0810847
0.455531
-0.00885267
-0.0897874
0.453934
0.462824
0.460652
-0.00145627
0.463454
-0.00120625
-0.00499775
0.48186
-0.0202348
0.0252813
-0.0295507
0.0155551
-0.472854
0.0805651
-0.0783037
-0.502371
0.0519629
0.130951
0.129088
0.127068
0.132045
-0.0157247
-0.0181739
-0.0201778
-0.0169535
-0.0165589
-0.132664
0.0123148
0.13646
-0.0165201
0.016988
-0.143191
0.0148345
-0.00204596
0.142818
0.00155661
-0.0139681
-0.13824
0.00383603
-0.0277865
0.0313683
-0.00604142
0.13687
1.94249
0.271833
0.0473347
-0.503169
-0.424652
-0.502923
-0.424735
2.04839
0.0615859
0.0890074
2.16666
-0.0851816
0.114015
2.29105
-0.179285
0.128575
2.41457
-0.227756
0.135077
2.53089
-0.236337
0.135883
2.63662
-0.212858
0.133234
2.73238
-0.165221
0.129963
2.8209
-0.0994361
0.129075
2.90504
-0.0174891
0.131795
2.98559
0.0821023
0.137715
3.06035
0.200914
0.145682
3.12492
0.336155
0.151972
3.17463
0.481592
0.157656
3.2077
0.616116
0.148144
0.782191
0.157376
1.60209
-0.00494267
-0.00395425
1.6101
-0.013284
-0.0152277
1.6251
-0.0207731
-0.0283715
1.64528
-0.026562
-0.0408942
1.67454
-0.029591
-0.0546959
1.71514
-0.0281273
-0.0688141
1.76815
-0.0171414
-0.0866969
0.453975
-0.00117068
-0.0834972
0.452683
0.460446
0.461378
0.454293
0.00143158
0.00352553
-0.00793454
0.00264491
-0.0124745
0.00619524
-0.113481
0.112942
-0.00657927
0.0134195
-0.00763373
0.00429264
-0.0291467
0.0283526
-0.003819
0.00795654
0.0084919
0.00136158
-0.00545304
0.00555765
-0.00812975
-0.000442994
-0.000467048
-0.000594401
-0.000322314
-0.000624063
-0.000663228
-0.0022274
0.00239034
0.00052854
0.000150121
0.000142419
0.000168739
0.000134692
-0.00511072
-0.00214623
-0.00235325
0.00253806
0.00214294
0.00492804
1.21374
-0.143097
0.205383
-0.246735
-0.134253
-0.245103
-0.147026
1.55883
-0.304139
0.133703
1.84068
-0.406997
0.114574
2.06817
-0.453941
0.113025
2.24699
-0.452626
0.116684
2.38623
-0.415113
0.118049
2.49514
-0.354826
0.118598
2.58346
-0.282486
0.121614
2.66013
-0.204612
0.130114
2.73147
-0.12058
0.14485
2.80033
-0.0246889
0.164025
2.86556
0.0895958
0.18461
2.92281
0.224264
0.201439
2.96736
0.374792
0.215229
2.99784
0.519522
0.212638
0.710242
0.232031
1.60211
-0.00493151
-0.00426316
1.61036
-0.0133333
-0.0163606
1.6259
-0.020801
-0.0304111
1.64745
-0.0265247
-0.0440919
1.67832
-0.0293923
-0.05933
1.72076
-0.02774
-0.0746504
1.77495
-0.0133472
-0.091904
0.453255
0.0102002
-0.0842627
0.455044
0.461712
0.461267
-0.00488615
0.452861
0.00909446
0.00531838
-0.00908315
-0.00248925
-0.0154248
-0.109551
0.10254
0.00759623
0.0173608
-0.000160145
-0.000730887
-8.82391e-05
0.000215403
0.00069226
7.14281e-05
1.40743
-0.689895
-0.119956
-0.157663
-0.270896
-0.174465
-0.290606
1.7602
-0.71012
-0.0492922
2.00497
-0.708095
0.00385601
2.17711
-0.674034
0.0348404
2.29734
-0.60737
0.0511584
2.37961
-0.519626
0.0581127
2.43867
-0.429118
0.063859
2.4862
-0.344405
0.0752491
2.53156
-0.268982
0.0952674
2.57958
-0.196978
0.123973
2.63037
-0.116269
0.158167
2.68038
-0.0147903
0.193431
2.72372
0.113826
0.22323
2.75484
0.265786
0.247352
2.77193
0.418252
0.25426
0.624012
0.282088
1.60217
-0.00482286
-0.00459216
1.61084
-0.013086
-0.0177371
1.62614
-0.0202788
-0.0322651
1.64744
-0.0258791
-0.0461589
1.6826
-0.0295604
-0.0646761
1.72613
-0.0251256
-0.081284
1.78182
-0.0101003
-0.0967817
0.456848
0.0159704
-0.0918093
0.459656
0.463035
0.466344
-0.0142468
-0.00551157
0.460146
0.0144201
0.00212153
-0.0127445
0.05222
0.0510947
-0.0470153