/*--------------------------------*- C++ -*----------------------------------*\
| =========                 |                                                 |
| \\      /  F ield         | OpenFOAM: The Open Source CFD Toolbox           |
|  \\    /   O peration     | Version:  2512                                  |
|   \\  /    A nd           | Website:  www.openfoam.com                      |
|    \\/     M anipulation  |                                                 |
\*---------------------------------------------------------------------------*/
FoamFile
{
    version     2.0;
    format      ascii;
    arch        "LSB;label=32;scalar=64";
    class       surfaceScalarField;
    location    "120";
    object      phi;
}
// * * * * * * * * * * * * * * * * * * * * * * * * * * * * * * * * * * * * * //

dimensions      [0 3 -1 0 0 0 0];

oriented        oriented;

internalField   nonuniform List<scalar> 
260615
(
1.59996
-6.0332e-05
0.000123295
1.59991
-0.000186873
0.000257988
1.59988
-0.00036011
0.000418786
1.59991
-0.000627959
0.000621475
1.60011
-0.00105433
0.000879136
1.60063
-0.00167363
0.00118319
1.60129
-0.00213869
0.00151473
1.6043
-0.00491036
0.00193043
1.60779
-0.00614989
0.00270087
1.6128
-0.00822425
0.00323374
1.61907
-0.00983747
0.00358623
1.61741
-0.00183449
0.0035151
1.62907
-0.0147398
0.00309992
1.63011
-0.00327958
0.00225515
1.62912
-0.000437036
0.00142161
1.6273
0.000984194
0.000826537
1.62458
0.00200505
0.000702785
1.62353
0.00063457
0.000405424
1.62213
0.00119146
0.000193342
1.62076
0.00135956
4.24505e-06
1.61943
0.00157061
-0.000236953
1.61812
0.00191144
-0.000589657
1.6168
0.00241676
-0.001068
1.61545
0.00308037
-0.00170342
1.6142
0.00387584
-0.00264352
1.61315
0.00475208
-0.00381788
1.61324
0.00568955
-0.00606279
1.6149
0.00637129
-0.00842395
1.61821
0.00709852
-0.0108414
0.00653209
-0.0244143
1.59995
-0.000114587
0.000126633
1.59988
-0.000356995
0.000263907
1.59981
-0.000690513
0.000428701
1.59978
-0.00120954
0.000638505
1.59989
-0.00204343
0.000909248
1.60032
-0.00332171
0.00123982
1.60146
-0.00485364
0.00161562
1.60367
-0.00914795
0.00206019
1.60714
-0.0125428
0.00295935
1.61241
-0.0170811
0.00361448
1.61935
-0.0208472
0.00408567
1.61836
-0.00490826
0.00408011
1.6302
-0.0300722
0.00351087
1.63096
-0.00658015
0.00255109
1.62961
-0.000681731
0.00159825
1.62751
0.00212689
0.000955539
1.62532
0.00331591
0.000862305
1.62359
0.00181451
0.00054169
1.62213
0.00227814
0.000355204
1.62078
0.00250441
0.000195631
1.6195
0.00285792
-9.28831e-06
1.61826
0.00348074
-0.000314825
1.61701
0.00445455
-0.000757834
1.61571
0.00576257
-0.00136151
1.61449
0.0073447
-0.0022687
1.61343
0.00908375
-0.00341125
1.61346
0.0109185
-0.00555457
1.61495
0.0123017
-0.00784489
1.61811
0.0137546
-0.0102584
0.0129066
-0.0244066
1.59994
-0.000159995
0.000131921
1.59983
-0.000498288
0.000274827
1.59969
-0.000967264
0.000445415
1.59954
-0.00170492
0.000670916
1.59945
-0.00290774
0.000973377
1.59961
-0.00481414
0.00136763
1.6003
-0.00737897
0.00187315
1.60232
-0.0134675
0.00233745
1.6057
-0.0194252
0.00353484
1.61147
-0.0272904
0.0044745
1.61994
-0.0345246
0.00522277
1.62038
-0.0107073
0.00536641
1.63259
-0.0467138
0.00444102
1.63273
-0.00994597
0.00323634
1.63059
-0.00057214
0.00203139
1.6279
0.00352225
0.00129839
1.62534
0.00457854
0.00129039
1.62367
0.00261507
0.000857934
1.62224
0.002998
0.000701914
1.62095
0.00328159
0.000496548
1.61979
0.00377911
0.000238132
1.61868
0.00470551
-0.000110707
1.61755
0.00619735
-0.000593194
1.61635
0.00822313
-0.00124201
1.61519
0.0106912
-0.00220743
1.61413
0.0134289
-0.00341925
1.61408
0.0162991
-0.00562477
1.61536
0.0186825
-0.00807523
1.61822
0.0208702
-0.0103935
0.0207368
-0.0264853
1.59992
-0.000192415
0.000134934
1.59976
-0.000597785
0.000288681
1.59951
-0.00116494
0.00047156
1.59918
-0.00206965
0.000716506
1.59881
-0.00357476
0.00106426
1.59853
-0.00604196
0.00154301
1.59861
-0.00963078
0.00220417
1.60004
-0.0177184
0.00285876
1.60313
-0.0269514
0.00448143
1.60962
-0.0396973
0.00594851
1.62095
-0.0530091
0.00718321
1.62418
-0.021189
0.00726588
1.63646
-0.0653899
0.00640505
1.63552
-0.0134421
0.00444827
1.63206
3.45046e-05
0.00286785
1.62839
0.00518262
0.002017
1.62544
0.00545643
0.00207149
1.62372
0.0026783
0.00164696
1.62229
0.00286803
0.00154792
1.6211
0.00311183
0.00134697
1.62011
0.00368084
0.00107819
1.61922
0.00491146
0.000695245
1.61827
0.00698299
0.000174517
1.61722
0.00983195
-0.000538692
1.61615
0.0133291
-0.00159699
1.6151
0.0172619
-0.00290977
1.61495
0.0214126
-0.00524884
1.61596
0.025295
-0.0080145
1.61843
0.0283164
-0.0102978
0.0301303
-0.0290618
1.5999
-0.000208622
0.000141461
1.59967
-0.000644946
0.000298604
1.59929
-0.00126164
0.000502573
1.59874
-0.00226162
0.000775794
1.59798
-0.00396574
0.00117533
1.59706
-0.00686621
0.00177236
1.59619
-0.0113605
0.00263829
1.59655
-0.021661
0.00362917
1.59878
-0.0350422
0.00590521
1.60618
-0.0553043
0.00824624
1.6228
-0.0798505
0.010261
1.65084
-0.0600405
0.0108338
1.64218
-0.0661743
0.00949209
1.63952
-0.017142
0.00638746
1.63397
0.00127448
0.00430189
1.62888
0.00690979
0.00336242
1.62552
0.00530482
0.00350301
1.62381
0.00137037
0.00299928
1.62243
0.00150365
0.00271928
1.62145
0.00179318
0.00227985
1.62077
0.00253437
0.00181393
1.62019
0.0042577
0.00122757
1.61953
0.00717652
0.000478931
1.61869
0.0111683
-0.000501751
1.61778
0.0160537
-0.00184951
1.61676
0.0215903
-0.00345908
1.6165
0.027509
-0.00610763
1.61716
0.0336546
-0.00938954
1.61911
0.0381132
-0.0121001
0.0434909
-0.0340491
1.59988
-0.000206743
0.000148266
1.59958
-0.000633323
0.000312817
1.59905
-0.00124161
0.00053314
1.59822
-0.00224515
0.000841191
1.59698
-0.00400081
0.00130219
1.59523
-0.00711676
0.00203418
1.59317
-0.0124372
0.00317363
1.5914
-0.024538
0.00468647
1.59152
-0.0430153
0.00790739
1.59977
-0.0750945
0.0115906
1.62611
-0.12114
0.015016
1.64756
-0.0987169
0.0172961
1.65008
-0.0837165
0.0150951
1.64452
-0.0219982
0.0104361
1.63571
0.002175
0.00790873
1.6286
0.00726081
0.00673649
1.62495
0.00177071
0.00716081
1.62289
-0.00359074
0.00699489
1.62156
-0.00405521
0.00684949
1.62091
-0.00397193
0.00637712
1.62068
-0.00306222
0.00580032
1.62053
-0.000631724
0.00501863
1.62025
0.00347647
0.00397384
1.61976
0.00901005
0.00263648
1.61911
0.0157111
0.000936981
1.6183
0.0233414
-0.0010865
1.61804
0.0316429
-0.0041391
1.61846
0.0408597
-0.00797255
1.62002
0.048078
-0.0118496
0.0601333
-0.0382476
1.59985
-0.000186527
0.000151938
1.59948
-0.000561605
0.000329646
1.5988
-0.0010997
0.000563803
1.59768
-0.00199967
0.000903628
1.59588
-0.00361661
0.0014364
1.59314
-0.00664518
0.00230843
1.58938
-0.012424
0.0037794
1.58199
-0.0232969
0.00619591
1.5797
-0.0510111
0.0103393
1.58796
-0.0994678
0.0161686
1.63019
-0.03695
0.0219659
-0.0457351
-0.0460302
-0.0565437
1.66467
-0.0394395
0.0295341
-0.0345629
-0.0449741
-0.043711
1.66089
-0.0214406
0.0271768
-0.020578
-0.0304303
-0.0346235
1.65098
-0.00577542
0.0207443
-0.000310691
-0.0151037
-0.0116002
1.63749
-0.00448489
0.020078
1.62715
-0.000302286
0.0178598
1.62598
-0.0135213
0.0164288
1.62384
-0.0169557
0.0154689
1.62285
-0.0177324
0.0146141
1.62275
-0.017717
0.0137939
1.6229
-0.016207
0.0129602
1.62298
-0.012372
0.011641
1.62292
-0.00620061
0.00971543
1.62268
0.00198733
0.0072327
1.62225
0.0118523
0.0042168
1.6216
0.0230687
0.000772036
1.62123
0.0354854
-0.00371997
1.62146
0.0492323
-0.00892579
1.62225
0.0621923
-0.0152009
0.0821624
-0.0432345
1.59983
-0.000149688
0.000155169
1.59939
-0.000435187
0.000344738
1.59857
-0.000844558
0.000590875
1.59717
-0.00153352
0.000960988
1.59482
-0.00279797
0.00156007
1.59087
-0.00523108
0.00256695
1.58441
-0.0103134
0.00439007
1.57437
-0.021045
0.00783168
1.56102
-0.0505833
0.0129664
0.392671
-0.117397
0.0217327
0.389267
0.389405
0.385925
0.397078
-0.0426956
0.00136634
-0.407237
0.42108
-0.0569999
0.00374186
-0.425669
0.428412
-0.0306716
0.00648602
-0.423787
0.422431
-0.00779945
0.00339628
1.64542
-0.0405629
0.0643905
-0.418016
-0.419668
-0.415872
-0.42029
1.63288
-0.051599
0.0637468
1.62157
-0.0647119
0.0624539
1.60983
-0.0658575
0.0605964
1.59904
-0.0645312
0.057528
1.58993
-0.0629797
0.0543072
1.58292
-0.060274
0.0510239
1.57902
-0.0555071
0.0469925
1.57908
-0.0484391
0.0421525
1.583
-0.0386462
0.0366655
1.58936
-0.0250926
0.0305
1.59657
-0.00773879
0.023436
1.6041
0.0125863
0.0151302
1.61249
0.0351399
0.00540109
1.61856
0.0607353
-0.00489721
0.091533
-0.0322448
1.59982
-9.99236e-05
0.000157589
1.59932
-0.000266463
0.000356909
1.59839
-0.00049999
0.000611194
1.59677
-0.000890652
0.00100747
1.59395
-0.00161227
0.0016594
1.58898
-0.00301261
0.00278221
1.57985
-0.00606492
0.00492221
1.5628
-0.013096
0.00914024
1.52969
-0.032934
0.015503
0.379078
-0.100689
0.0228585
0.373452
0.372856
0.36477
0.38589
-0.0548534
-0.000156882
0.0482308
0.424295
-0.408795
0.0742184
-0.024016
-0.0229028
-0.0284549
-0.0199597
0.00351425
-6.22006e-05
0.00304834
-0.000781024
-0.430583
0.433872
0.0467208
-0.0218305
-0.0187382
-0.0238473
-0.0147611
0.00900522
0.00559915
0.00568592
0.00901555
-0.433
0.435607
0.0156633
-0.00575879
-0.015655
-0.0147241
-0.00558936
0.00479035
0.00741592
0.00720311
0.00404913
1.38989
-0.070544
0.163551
-0.414328
-0.372559
-0.409209
-0.327611
1.29185
-0.0920607
0.138346
1.21579
-0.107701
0.118998
1.16267
-0.112123
0.099321
1.12908
-0.112004
0.0809768
1.10868
-0.108826
0.0661466
1.09727
-0.103415
0.0544741
1.09418
-0.0967763
0.0443082
1.10031
-0.0894307
0.0348203
1.11747
-0.0811498
0.0252936
1.1487
-0.0712874
0.0148602
1.19499
-0.0581664
0.0039445
1.25265
-0.0393063
-0.0060187
1.31708
-0.0143112
-0.0153077
1.38369
0.0167687
-0.0229423
0.0682196
-0.0378296
1.59979
-4.25083e-05
0.000173915
1.59925
-7.36236e-05
0.000376992
1.59824
-0.00010445
0.000640437
1.59647
-0.000145444
0.00104895
1.59337
-0.000211346
0.00172913
1.58779
-0.00032779
0.00292477
1.57704
-0.000540331
0.00526811
1.55488
-0.000976651
0.0100768
1.50685
-0.00200463
0.0171347
0.354082
-0.00502307
0.0171256
0.349801
0.345006
0.345185
-0.0324725
-0.0142635
0.0500922
0.0849912
0.0903454
0.0862924
0.0891062
0.0272309
-0.101071
0.105275
-0.0246503
-0.00218998
-0.00196825
-0.001437
-0.00116569
-0.109181
0.0370748
0.111511
-0.0124919
-0.0115624
-0.0145191
-0.0121841
0.00403254
0.00182893
0.00360439
0.00194842
-0.0804408
0.0120608
-0.00921371
0.00860375
0.0688931
0.211078
-0.165777
-0.0580851
-0.0645185
-0.0542024
0.00449192
0.0559838
0.386404
-0.177162
-0.0904757
0.514471
-0.154149
-0.081706
0.606282
-0.131179
-0.0728343
0.674843
-0.113585
-0.0670888
0.727332
-0.0992886
-0.0621394
0.76837
-0.0872744
-0.0572642
0.801756
-0.0771095
-0.0531112
0.830787
-0.0683419
-0.0501652
0.85855
-0.060285
-0.0486882
0.888385
-0.0522484
-0.0489892
0.924627
-0.043625
-0.0509827
0.972282
-0.0331117
-0.0541345
1.03418
-0.0185188
-0.0580537
1.11577
-0.00433332
-0.060815
0.0482238
-0.0643213
1.59978
1.59538e-05
0.000189079
1.59922
0.000121392
0.000392428
1.59819
0.000294503
0.000653276
1.5964
0.000604151
0.00106665
1.59327
0.00120015
0.00174841
1.58772
0.00239592
0.00285906
1.57688
0.00506139
0.00527262
1.55452
0.0113145
0.0101054
1.50579
0.0294945
0.0172528
0.349016
0.0932313
0.0176139
0.352915
0.344272
0.343727
0.00250739
0.0279216
-0.020152
0.0823825
0.0869658
0.0822528
0.0871265
0.00201946
-0.0977691
0.0900716
0.00744668
-7.76692e-05
-0.000810755
2.84591e-06
-0.000883621
-0.0124521
0.0189363
-0.00585322
-0.027899
0.0274242
0.845361
-0.11806
-0.146579
-0.21091
-0.343235
-0.0321908
-0.160487
0.876014
-0.0926574
-0.11533
0.898046
-0.0748111
-0.101438
0.9178
-0.0586155
-0.0923801
0.935768
-0.0461167
-0.0855225
0.951138
-0.0363465
-0.0784026
0.963393
-0.0289462
-0.0706544
0.971735
-0.0228444
-0.0626554
0.975781
-0.0173444
-0.0550811
0.975741
-0.0118717
-0.0484269
0.972942
-0.0062493
-0.0433089
0.969677
-0.000377483
-0.0401734
0.970368
0.00523848
-0.0393137
0.979024
0.0137638
-0.0413053
1.00616
0.0100102
-0.0418102
0.0433719
-0.0538722
1.59978
6.93889e-05
0.000188133
1.59928
0.000298093
0.000355579
1.59833
0.000652351
0.000614431
1.59665
0.00126934
0.00103828
1.59376
0.00242887
0.00169249
1.58876
0.00469435
0.00273583
1.57939
0.00949612
0.00496921
1.56175
0.0197247
0.00925368
1.52695
0.0484864
0.0158324
0.371614
0.114399
0.0238941
0.377082
0.362677
0.370524
-0.0469976
0.0532093
-0.00358905
0.0930006
0.0901176
0.0915469
0.0943116
-0.0256024
-0.100247
0.105611
-0.00471674
0.0249559
-0.00684742
-0.110642
0.117252
0.00266888
0.0233149
-0.00521713
-0.00999579
-0.0105869
0.0095821
-0.116587
-0.00394103
0.115116
-0.00410325
1.47475
-0.0607272
0.000274461
-0.417149
-0.417631
-0.305322
-0.392445
1.44691
-0.0425713
-0.0223541
1.42121
-0.0241678
-0.0249862
1.40028
-0.0145511
-0.023181
1.3822
-0.00715976
-0.0209415
1.36559
-0.00125502
-0.0185374
1.34956
0.00318629
-0.0161629
1.33397
0.00653017
-0.0138204
1.31884
0.00965961
-0.0119083
1.30391
0.0130995
-0.0100921
1.28835
0.0173559
-0.00813441
1.27123
0.0228014
-0.00622229
1.25138
0.0285754
-0.00370611
1.2312
0.0368313
-0.00319225
1.19797
0.0366017
0.00637638
0.0520336
-0.00724664
1.59981
0.000112329
0.000174094
1.59937
0.00043648
0.000329877
1.59854
0.000926826
0.000579379
1.59708
0.00176826
0.000984561
1.59464
0.00330549
0.00158722
1.59054
0.00621916
0.00260904
1.58375
0.0118422
0.00447597
1.57297
0.0225191
0.00800783
1.55787
0.0502378
0.0133752
0.387643
0.0991729
0.0227209
0.391162
0.383992
0.387581
-0.0479226
0.390493
0.0432075
0.00185062
-0.0807493
-0.404766
0.420013
0.062637
0.00284383
-0.0477426
-0.428482
0.434615
0.035539
0.00595502
-0.000227306
-0.434416
0.431428
0.00246387
0.0008082
1.65029
-0.0294374
0.00894958
-0.42531
-0.422761
-0.423219
-0.419356
1.63611
-0.0317151
0.0032451
1.62699
-0.0170519
0.00197089
1.62135
-0.0105678
0.00161586
1.61812
-0.00454684
0.000576254
1.61562
0.00161035
-0.000421703
1.61266
0.00725567
-0.00114787
1.60849
0.0120556
-0.0013986
1.60291
0.0164324
-0.00122518
1.59582
0.0209172
-0.000782948
1.5867
0.0260834
0.000303623
1.57589
0.032104
0.00136208
1.56169
0.0390242
0.00356498
1.54768
0.0466238
0.00397944
1.51812
0.0537836
0.0121936
0.0598641
0.00626477
1.59984
0.000140554
0.000156313
1.59945
0.000523716
0.000333927
1.59874
0.0010931
0.000563052
1.59756
0.00205229
0.00092474
1.59567
0.00375419
0.00146436
1.59275
0.00681027
0.00235864
1.58866
0.0120856
0.0038753
1.58059
0.0242273
0.00638786
1.57697
0.0431375
0.0107345
1.58268
0.0765603
0.0169038
1.62402
0.127178
0.0231097
-0.0378645
-0.0480648
-0.0469123
-0.0588237
1.66799
0.115741
0.0287365
-0.0443092
-0.0421251
-0.0501308
-0.0519757
1.67303
0.0994855
0.0195181
-0.0268618
-0.0226444
-0.0367935
-0.0378141
1.66175
0.0218188
0.0101147
-0.00385654
0.00372362
-0.0138487
-0.0067224
1.64247
-0.0136825
0.00345088
1.63032
-0.0191758
-0.000448251
1.62732
-0.0127389
-0.00134128
1.62407
-0.00599526
-0.00135865
1.62303
-0.00240288
-0.00114079
1.62346
0.00194496
-0.000814853
1.62474
0.00638428
-0.000454037
1.62645
0.0104825
-0.000175747
1.62842
0.0144624
-3.65455e-05
1.63059
0.0187007
-1.66325e-05
1.63278
0.0235541
0.000235782
1.63544
0.0291397
0.000166134
1.63744
0.0359783
0.000877132
1.6415
0.0425156
-0.00014711
1.64006
0.0514529
0.00364032
0.05599
-0.00188806
1.59986
0.000152187
0.00014986
1.59954
0.00055341
0.000317962
1.59898
0.00114024
0.000540099
1.59809
0.00210965
0.000861794
1.59675
0.00378393
0.00133285
1.59483
0.00666707
0.0020887
1.59248
0.0111911
0.00327452
1.59019
0.0216645
0.00487597
1.58947
0.0355974
0.00826768
1.59658
0.0572808
0.0121753
1.62282
0.0849275
0.0159977
1.64953
0.0711967
0.0178152
1.65765
0.0781833
0.0131569
1.65196
0.0206345
0.00682301
1.64071
-0.00499064
0.00250533
1.63298
-0.0118972
0.000422467
1.62903
-0.00919097
0.000371966
1.62676
-0.00372586
-2.89774e-05
1.62569
-0.0012813
-9.31791e-05
1.62566
0.00204458
-0.00010551
1.62633
0.00561743
5.15052e-05
1.62748
0.00900768
0.000277717
1.62903
0.01233
0.000544145
1.63096
0.015873
0.000825833
1.63324
0.0199647
0.00120346
1.63622
0.0245706
0.00145334
1.63938
0.0303735
0.0022913
1.64498
0.035666
0.00110363
1.64852
0.0432197
0.00461383
0.0467807
-0.00558066
1.59989
0.00014706
0.000143309
1.59964
0.000525879
0.000304452
1.59922
0.00107152
0.000513774
1.5986
0.00195706
0.000795315
1.59775
0.00344974
0.00120883
1.59668
0.00592635
0.00183001
1.59558
0.00958342
0.00273911
1.59557
0.0178864
0.0038066
1.59731
0.0276517
0.00621897
1.60426
0.0415838
0.00874679
1.62116
0.0570046
0.0110149
1.65221
0.0286322
0.0114986
1.64729
0.0738642
0.00921791
1.64531
0.0174859
0.00509694
1.63875
-0.000491603
0.00202709
1.63312
-0.00668089
0.000392743
1.62965
-0.00600404
0.00026182
1.628
-0.00193519
-0.000168753
1.62712
-0.000325496
-0.00010635
1.6271
0.00198424
3.71178e-05
1.62778
0.00460719
0.000291022
1.62898
0.00723417
0.000530995
1.63058
0.00990186
0.000778101
1.63254
0.0127974
0.00104117
1.63483
0.0161764
0.00138747
1.6376
0.0198975
0.001767
1.64033
0.0245939
0.00292792
1.64491
0.0286248
0.00235673
1.64556
0.0340073
0.00855679
0.0372971
-0.00668135
1.59991
0.000126594
0.000136955
1.59972
0.000446574
0.000295069
1.59943
0.000901148
0.000483659
1.59904
0.00162802
0.000737358
1.59859
0.00282893
0.00109928
1.59818
0.00475672
0.00160125
1.59809
0.00739788
0.00230168
1.59928
0.0136866
0.00302168
1.60211
0.0200804
0.00474985
1.60852
0.0288169
0.00636469
1.62028
0.0374566
0.0077711
1.62544
0.0155894
0.00787724
1.64025
0.0523887
0.00665302
1.64023
0.0133781
0.00411364
1.63644
0.00132882
0.00194874
1.63254
-0.0035249
0.000724614
1.62978
-0.00394008
0.000680628
1.62851
-0.000989579
0.000306462
1.62788
-7.12522e-05
0.000347428
1.62792
0.00149113
0.000409698
1.62859
0.00337625
0.000518337
1.62979
0.00535689
0.000630718
1.63143
0.00741075
0.00078819
1.63349
0.00963364
0.00102271
1.63594
0.0122168
0.00139828
1.63888
0.0149794
0.0018505
1.64162
0.0184296
0.00332979
1.64613
0.0211737
0.00289361
1.64528
0.024391
0.0104831
0.0275479
-0.00759746
1.59992
9.35938e-05
0.000134065
1.59979
0.000325207
0.000281552
1.5996
0.000650139
0.000458044
1.5994
0.00116393
0.000692451
1.59924
0.00200035
0.0010089
1.59929
0.00329981
0.00142533
1.59985
0.00489413
0.0019664
1.60173
0.00933754
0.00248681
1.60501
0.0130354
0.00376829
1.61087
0.0181357
0.00482062
1.61986
0.0227578
0.00569886
1.62167
0.00787826
0.00589338
1.63568
0.0335413
0.0048272
1.63677
0.00896817
0.00331424
1.63474
0.00159597
0.00175868
1.63211
-0.00170314
0.000795937
1.62994
-0.00250857
0.00073373
1.62892
-0.000344232
0.000353428
1.62846
4.69025e-05
0.000321739
1.62855
0.00102228
0.000339015
1.62921
0.0022512
0.000413122
1.63042
0.00357618
0.000522555
1.63212
0.00496172
0.000690144
1.63427
0.00645115
0.00094852
1.63682
0.00817842
0.00137492
1.63988
0.00997434
0.00183124
1.6425
0.01222
0.00351698
1.64711
0.0137711
0.00277456
1.64542
0.015407
0.0107771
0.0179022
-0.0081544
1.59994
5.29934e-05
0.00012901
1.59984
0.000174897
0.000271028
1.59972
0.000344222
0.000441973
1.59964
0.00061017
0.000660863
1.59968
0.00103909
0.000945509
1.60003
0.00167111
0.0012975
1.60107
0.0021707
0.00170622
1.6032
0.00502061
0.00220073
1.60666
0.00641383
0.00316967
1.61211
0.00876214
0.00391505
1.6196
0.0107775
0.00448515
1.61969
0.00324016
0.00453259
1.63293
0.0163831
0.00391133
1.63463
0.00448543
0.00277763
1.63363
0.000991181
0.00159583
1.63179
-0.000667498
0.000792256
1.63011
-0.00150868
0.000660815
1.62915
0.000201188
0.000385929
1.62879
8.16333e-05
0.00029853
1.62892
0.000526991
0.000313242
1.6296
0.00112973
0.000388208
1.63083
0.00178902
0.000497721
1.63257
0.0024827
0.000663066
1.63478
0.00322104
0.000922532
1.63737
0.00408428
0.00136366
1.64049
0.0049531
0.00177084
1.64292
0.00611304
0.00360037
1.64763
0.00672048
0.00234037
1.64529
0.00756793
0.0102793
0.00867846
-0.00839646
1.59994
0.000125604
1.59987
0.000265132
1.59979
0.000432307
1.59977
0.000644315
1.59991
0.000916002
1.60035
0.00124129
1.60092
0.00160481
1.60389
0.00206748
1.6074
0.00290235
1.61265
0.00351488
1.61947
0.0039508
1.61877
0.0039285
1.63167
0.00348586
1.63363
0.0025151
1.63311
0.00151013
1.63164
0.000788265
1.62949
0.000638449
1.62928
0.000396121
1.62904
0.000299655
1.62923
0.000309534
1.62994
0.00038184
1.63122
0.000480295
1.63301
0.000644635
1.63526
0.000897423
1.63791
0.0013547
1.64109
0.00170582
1.6434
0.0037666
1.64829
0.00185508
1.64551
0.0104306
-0.00896887
1.60007
-5.91557e-05
0.00012375
1.60015
-0.000183538
0.000392178
1.60023
-0.000353177
0.000705704
1.60039
-0.000614909
0.0011001
1.60072
-0.00103066
0.00160555
1.60128
-0.0014451
0.00209921
1.60179
-0.0010516
0.00208583
1.60187
-0.00314
0.00502154
1.60535
-0.00623535
0.00549373
1.61059
-0.0082453
0.00625877
1.61372
-0.00634835
0.00682514
1.61392
-0.00310061
0.00643768
1.6237
-0.0129296
0.00627136
1.62794
-0.00639272
0.00442328
1.62681
-0.000241159
0.00278989
1.6251
0.00111161
0.00141056
1.62548
0.000161395
0.000143293
1.62468
-0.000561973
0.00175608
1.62339
0.000866112
0.000598609
1.62206
0.00125232
6.5359e-05
1.62075
0.00148835
-0.000423769
1.61939
0.00185522
-0.00107774
1.61794
0.0023928
-0.00200542
1.61647
0.00310304
-0.00333328
1.61503
0.0039732
-0.00523675
1.61366
0.00489808
-0.00751459
1.61412
0.00583606
-0.0126976
1.61498
0.00679878
-0.0165352
1.61982
0.00677732
-0.0228948
0.00793861
-0.0531393
1.60007
-0.000113421
0.000125584
1.60013
-0.000351791
0.000399162
1.60018
-0.000678805
0.000720647
1.60029
-0.00118648
0.00112904
1.60053
-0.002
0.00165998
1.60133
-0.0031894
0.00221711
1.60368
-0.00410118
0.00234744
1.60383
-0.00657993
0.00538715
1.60687
-0.0121506
0.00586648
1.61163
-0.0163393
0.00697826
1.61401
-0.0123588
0.00772924
1.61532
-0.00736263
0.00704839
1.62477
-0.0263565
0.00749435
1.63014
-0.0141686
0.00498082
1.62938
-0.000986646
0.0031032
1.62781
0.00187639
0.0017541
1.62785
0.000667493
0.000305082
1.62498
0.000908755
0.00193242
1.62331
0.00199297
0.000882531
1.622
0.00232877
0.000417793
1.62073
0.00274207
-4.42299e-06
1.61944
0.00342512
-0.000579852
1.61806
0.00445467
-0.00142471
1.61662
0.00584322
-0.0026481
1.61518
0.00748642
-0.00437512
1.61387
0.00928608
-0.0066415
1.6141
0.0110917
-0.0113597
1.61485
0.0129769
-0.0151924
1.61954
0.0132171
-0.0217874
0.0153979
-0.0519681
1.60006
-0.000158248
0.000129662
1.60009
-0.000491372
0.000414318
1.60008
-0.000950784
0.000752243
1.60007
-0.00167177
0.0011902
1.60013
-0.00284415
0.00178117
1.60047
-0.00466855
0.00253699
1.60184
-0.00676438
0.0031999
1.60226
-0.0102079
0.005574
1.60533
-0.0184888
0.00683579
1.61055
-0.0256483
0.00860165
1.61558
-0.0220653
0.00991152
1.61759
-0.0131183
0.00911506
1.62809
-0.041978
0.00957352
1.63169
-0.0206597
0.00613582
1.63021
-0.0012654
0.00380208
1.62797
0.00304821
0.00236902
1.6272
0.00143733
0.00128826
1.62495
0.00200601
0.00200174
1.6235
0.00282131
0.00131129
1.62225
0.00316482
0.000898744
1.62109
0.00370596
0.000432143
1.61991
0.00468784
-0.000188254
1.61863
0.00625
-0.00108665
1.61729
0.00829224
-0.0023381
1.61584
0.0108187
-0.00411301
1.61458
0.0135613
-0.00657486
1.61471
0.016374
-0.0113319
1.61515
0.0193717
-0.0152902
1.62025
0.0197138
-0.0223456
0.0245315
-0.0563715
1.60004
-0.000190214
0.000141449
1.60002
-0.000589227
0.000429423
1.59992
-0.0011445
0.000796741
1.59974
-0.00202796
0.00127745
1.59953
-0.00349266
0.00194823
1.59943
-0.00588343
0.00288748
1.59989
-0.0090664
0.00407349
1.60002
-0.0137619
0.00631833
1.60285
-0.0253872
0.0085893
1.60874
-0.0368989
0.0113418
1.61619
-0.0357542
0.0134453
1.62244
-0.0239815
0.0118936
1.63148
-0.0584273
0.0138267
1.63441
-0.0273432
0.00821446
1.63167
-0.000604374
0.00495846
1.62847
0.00502422
0.00324975
1.62709
0.00237576
0.00250206
1.62515
0.00283461
0.0027484
1.62376
0.00339826
0.00235191
1.62261
0.00370596
0.00194511
1.62161
0.00434132
0.00143736
1.62061
0.00562991
0.000759272
1.61948
0.00775402
-0.000185554
1.61822
0.0105609
-0.00153338
1.61689
0.0140428
-0.00351586
1.61566
0.0178462
-0.00610893
1.61567
0.0219134
-0.0110622
1.6157
0.0262969
-0.0153229
1.62121
0.0266587
-0.0230696
0.0356039
-0.0620202
1.60001
-0.00020601
0.000169574
1.59993
-0.000633924
0.0004385
1.59971
-0.00124014
0.000846013
1.59931
-0.00221406
0.00138553
1.59873
-0.00386962
0.00215976
1.59801
-0.00667209
0.00331279
1.59733
-0.0107364
0.00501736
1.59676
-0.0171685
0.00765021
1.59876
-0.0326926
0.0112448
1.60568
-0.0510631
0.0155356
1.61948
-0.0589734
0.0197151
1.6505
-0.0618541
0.017738
1.63844
-0.0562767
0.0194614
1.63865
-0.0322155
0.0110682
1.63373
0.00179196
0.00683592
1.62919
0.00835192
0.00457847
1.62711
0.00383737
0.00410806
1.62542
0.00331181
0.00420521
1.62413
0.00351532
0.00386343
1.62319
0.00364978
0.00326761
1.62247
0.00432337
0.00253969
1.62169
0.00601314
0.00162914
1.62076
0.00874815
0.000428324
1.61971
0.0124751
-0.00135073
1.61854
0.0170457
-0.00371672
1.61738
0.0220536
-0.00663806
1.61717
0.0276756
-0.0119138
1.61666
0.033794
-0.0167047
1.62245
0.0344345
-0.0259417
0.0483915
-0.0698357
1.59997
-0.000203855
0.000198329
1.59983
-0.000621995
0.000461708
1.59947
-0.00121561
0.000888738
1.59882
-0.00219998
0.00150588
1.59777
-0.00389867
0.00240196
1.59627
-0.00690097
0.00380234
1.59446
-0.0117656
0.00604049
1.5928
-0.0203863
0.00960617
1.5926
-0.0395707
0.0150374
1.60067
-0.0696144
0.0221219
1.63829
-0.112286
0.0307639
1.65113
-0.0864364
0.029079
1.66162
-0.080991
0.0293625
1.64515
-0.022072
0.0168032
1.63663
0.00736984
0.0108253
1.63059
0.0135077
0.00761281
1.62743
0.00674383
0.00739585
1.62546
0.00440873
0.00783824
1.62427
0.00380535
0.00771581
1.62365
0.00344348
0.00718815
1.62326
0.00400922
0.00648954
1.62289
0.00597929
0.00542538
1.62222
0.00946127
0.00393305
1.62148
0.0141637
0.0016932
1.62052
0.0199044
-0.00101188
1.61948
0.0262463
-0.00437927
1.61908
0.0335967
-0.0098997
1.61806
0.0419234
-0.0153729
1.62359
0.0447713
-0.0279719
0.0642845
-0.0780129
1.59993
-0.000183485
0.000214921
1.5997
-0.000550757
0.000518266
1.59922
-0.00107568
0.000929418
1.59829
-0.00194941
0.00160273
1.59673
-0.0035287
0.0026574
1.59427
-0.00643172
0.0043326
1.59102
-0.0119042
0.00719638
1.58647
-0.0216761
0.0120855
1.58163
-0.0445288
0.0201805
1.58571
-0.0897563
0.0322865
1.62437
-0.0394125
0.0486298
-0.0519669
-0.0359549
-0.0502202
1.65401
-0.0363554
0.0496782
-0.035191
-0.0320468
-0.0325631
1.65369
-0.0212921
0.0444035
-0.0304328
-0.0171739
-0.0288894
1.64924
-0.00887842
0.0286221
-0.0076587
-0.00459641
-0.00433808
1.63849
0.0180971
0.0200367
1.63137
0.0221655
0.0162825
1.62775
0.0107622
0.0159916
1.62538
0.00649789
0.015717
1.62453
0.004461
0.0147606
1.62445
0.00354023
0.0137427
1.62471
0.0041949
0.0124944
1.62485
0.0068964
0.0105776
1.62469
0.0114246
0.00791462
1.62429
0.017314
0.00446896
1.62359
0.0242304
0.00053748
1.62269
0.0318364
-0.00405724
1.62225
0.0407613
-0.0106683
1.62101
0.0512663
-0.0173129
1.6244
0.0599638
-0.0340253
0.0845099
-0.0864545
1.59991
-0.000146674
0.000230593
1.59957
-0.000425805
0.000577988
1.59893
-0.000824524
0.0010022
1.59779
-0.00149295
0.00167448
1.59568
-0.00271295
0.00287686
1.59209
-0.00504225
0.00480201
1.5861
-0.00990169
0.00841741
1.57727
-0.0197815
0.0148048
1.56375
-0.0445553
0.0265524
0.390813
-0.109315
0.0480076
0.387084
0.391431
0.387758
-0.00699855
0.394421
-0.0474848
0.0114978
-0.00930964
-0.40484
0.416835
-0.0540312
0.0149808
-0.014789
-0.41994
0.421495
-0.0271216
0.019059
-0.0124178
-0.419694
0.41851
-0.0114889
0.0162432
1.63724
0.0707846
0.0410971
-0.415448
-0.417282
-0.416153
-0.417854
1.62917
0.0523923
0.0415222
1.62367
0.032847
0.0458462
1.62045
0.0235232
0.0467516
1.61904
0.0187782
0.0445765
1.61806
0.0166173
0.04217
1.61745
0.0168972
0.0389121
1.61712
0.0198471
0.0343662
1.6171
0.0251444
0.0284484
1.61726
0.0322628
0.0215435
1.61732
0.0407311
0.0138791
1.61703
0.049894
0.00553096
1.61675
0.0605212
-0.00455946
1.61533
0.0731126
-0.0153002
1.61377
0.0888565
-0.032465
0.113046
-0.0815005
1.59988
-9.70452e-05
0.000241597
1.59948
-0.000259403
0.000613939
1.59869
-0.000486199
0.00109028
1.5973
-0.000864504
0.00179121
1.59478
-0.0015601
0.00306254
1.59031
-0.00289685
0.00513479
1.5817
-0.00575716
0.00942662
1.56612
-0.0121628
0.0171366
1.53488
-0.0311925
0.0334208
0.373983
-0.101973
0.0690244
0.364673
0.375374
0.367389
-0.0651271
0.0149701
-0.00563316
0.0525155
0.094593
0.094445
0.0936257
0.0946347
-0.0014853
-0.0995825
0.0200111
0.104717
-0.0259105
0.00226374
-0.107553
-0.0109765
0.00972969
0.106974
-0.0105817
0.0124293
-0.104991
-0.011488
0.00472007
-0.00705674
0.0137256
0.105109
1.46748
0.222088
0.0516824
-0.400726
-0.31356
-0.409896
-0.382932
1.44148
0.164664
0.0519747
1.41627
0.119637
0.0573732
1.39392
0.0900445
0.0551149
1.37693
0.0693754
0.0473244
1.36559
0.0552001
0.0388578
1.36014
0.0462036
0.0305855
1.36185
0.041217
0.0212127
1.37097
0.039458
0.0113775
1.38636
0.0407088
0.00143999
1.40511
0.0450423
-0.00826846
1.42434
0.0520955
-0.017626
1.44368
0.062498
-0.0275574
1.46252
0.0758709
-0.0371736
1.48204
0.0942509
-0.0480958
0.122977
-0.0827945
1.59989
-3.99244e-05
0.000244428
1.59947
-6.92361e-05
0.000632967
1.59861
-9.82426e-05
0.00113373
1.59707
-0.000137661
0.00189301
1.59426
-0.000198832
0.00320031
1.58923
-0.000304552
0.00539531
1.57931
-0.000504062
0.00997029
1.55965
-0.000919883
0.0185271
1.51024
-0.00185768
0.0372487
0.33769
-0.00448518
0.0857088
0.334769
0.336993
0.334758
-0.0445882
0.0106703
0.00997193
0.0664169
0.0710363
0.0757147
0.0721772
0.0763195
0.00229135
0.00393963
-0.00581066
0.00663978
-0.00233994
-0.00113069
-0.00130971
-0.00111989
-0.00116189
-0.00596276
0.00271856
-0.00428573
0.00438388
0.00608094
-0.00060867
-0.000864624
-0.000810199
-0.00064347
-0.00328696
0.000967884
0.00109511
-0.000629809
-0.00145034
0.00330422
0.713663
0.151548
-0.186359
-0.132775
-0.0401837
-0.232997
-0.10924
0.828846
0.119393
-0.160548
0.908844
0.0913628
-0.133484
0.968955
0.074188
-0.117135
1.01443
0.0624475
-0.105701
1.04925
0.0545161
-0.0963361
1.0769
0.0490016
-0.0877501
1.1008
0.0449982
-0.0808113
1.12352
0.0422828
-0.0757238
1.14657
0.0411551
-0.0722174
1.17075
0.0420979
-0.0703081
1.19654
0.0452131
-0.0700544
1.2254
0.0515124
-0.0722307
1.25675
0.0614862
-0.0753127
1.2949
0.0732187
-0.0781801
0.104519
-0.0968143
1.59991
1.83258e-05
0.000238792
1.59951
0.000122994
0.000622289
1.59871
0.000293237
0.00109096
1.59718
0.000596799
0.00188136
1.59439
0.00117565
0.00319071
1.58917
0.00231815
0.00548757
1.57915
0.00481226
0.0100092
1.55931
0.0104799
0.0185857
1.50937
0.0279235
0.0374452
0.333994
0.0949366