/*--------------------------------*- C++ -*----------------------------------*\
| =========                 |                                                 |
| \\      /  F ield         | OpenFOAM: The Open Source CFD Toolbox           |
|  \\    /   O peration     | Version:  2512                                  |
|   \\  /    A nd           | Website:  www.openfoam.com                      |
|    \\/     M anipulation  |                                                 |
\*---------------------------------------------------------------------------*/
FoamFile
{
    version     2.0;
    format      ascii;
    arch        "LSB;label=32;scalar=64";
    class       volVectorField;
    location    "120";
    object      U;
}
// * * * * * * * * * * * * * * * * * * * * * * * * * * * * * * * * * * * * * //

dimensions      [0 1 -1 0 0 0 0];

internalField   nonuniform List<vector> 
90398
(
(20.005 -0.00235374 -0.00464726)
(20.0551 -0.00670084 -0.0160087)
(20.1663 -0.0104082 -0.0285183)
(20.339 -0.0129629 -0.0417076)
(20.5642 -0.0136855 -0.0541315)
(20.8281 -0.0121883 -0.0626745)
(21.1131 -0.00836899 -0.0619242)
(21.4002 -0.00152463 -0.0533588)
(21.6871 0.00863395 -0.0467794)
(22.1317 0.032837 -0.109129)
(23.1565 0.103119 -0.36439)
(24.8584 0.21332 -0.718889)
(26.9209 0.325253 -1.01513)
(29.0091 0.40765 -1.19223)
(30.9613 0.451661 -1.26325)
(32.7468 0.467196 -1.26183)
(34.3734 0.46996 -1.22227)
(35.8475 0.471959 -1.16932)
(37.1865 0.480798 -1.12034)
(38.4219 0.502441 -1.08632)
(39.5853 0.541045 -1.07515)
(40.7093 0.598629 -1.09289)
(41.829 0.67513 -1.14394)
(42.9761 0.767875 -1.22887)
(44.1764 0.871478 -1.34555)
(45.4454 0.977143 -1.48074)
(46.7556 1.07428 -1.63648)
(48.2487 1.15096 -1.7654)
(49.4006 1.1946 -1.97952)
(52.5376 1.1658 -2.35166)
(20.005 -0.00704938 -0.00480064)
(20.0554 -0.0201073 -0.0164006)
(20.1674 -0.0313467 -0.0291258)
(20.3416 -0.0392768 -0.0424348)
(20.5687 -0.0419566 -0.0547745)
(20.8348 -0.0381663 -0.0621427)
(21.1226 -0.026095 -0.0610154)
(21.4139 -0.00372607 -0.0567505)
(21.7267 0.0335078 -0.0723745)
(22.2353 0.113149 -0.162999)
(23.257 0.31339 -0.38605)
(24.8655 0.615618 -0.680718)
(26.7906 0.932851 -0.933434)
(28.7513 1.17761 -1.09936)
(30.6068 1.3138 -1.17885)
(32.3309 1.36586 -1.1916)
(33.9241 1.37828 -1.16473)
(35.3816 1.38361 -1.11955)
(36.7135 1.40252 -1.07178)
(37.9466 1.45156 -1.03157)
(39.1076 1.54262 -1.00642)
(40.2253 1.68226 -1.00216)
(41.3308 1.87189 -1.02359)
(42.4536 2.10697 -1.0729)
(43.6187 2.37586 -1.15164)
(44.8432 2.65829 -1.25173)
(46.1035 2.92633 -1.37952)
(47.5436 3.14994 -1.49332)
(48.6526 3.2844 -1.69852)
(51.6646 3.24547 -2.07256)
(20.0051 -0.011633 -0.00497436)
(20.056 -0.033218 -0.0169587)
(20.1695 -0.0518966 -0.0301051)
(20.3466 -0.0652871 -0.0437584)
(20.5778 -0.0704567 -0.0560902)
(20.8496 -0.0649952 -0.0622815)
(21.1442 -0.0445816 -0.0599631)
(21.4484 -0.00283965 -0.059858)
(21.8012 0.0716812 -0.087097)
(22.4119 0.22231 -0.199523)
(23.5142 0.539299 -0.413663)
(25.0866 0.988031 -0.651242)
(26.8853 1.47806 -0.845647)
(28.6846 1.87324 -0.982827)
(30.3917 2.09384 -1.05613)
(32.0107 2.17553 -1.07259)
(33.5396 2.19153 -1.05249)
(34.9583 2.19108 -1.01332)
(36.267 2.20527 -0.967778)
(37.4852 2.25896 -0.924266)
(38.6332 2.37024 -0.889387)
(39.7339 2.54987 -0.868304)
(40.8134 2.80223 -0.865318)
(41.8977 3.12443 -0.883451)
(43.0092 3.5039 -0.926668)
(44.1644 3.91666 -0.991007)
(45.3435 4.32329 -1.08711)
(46.6821 4.68505 -1.17931)
(47.7107 4.91555 -1.36624)
(50.4478 4.94563 -1.71343)
(20.0051 -0.0159693 -0.00521282)
(20.0568 -0.0456265 -0.0177717)
(20.1726 -0.0714301 -0.0315438)
(20.3538 -0.0902134 -0.0457736)
(20.5908 -0.0982266 -0.0583071)
(20.8713 -0.0919739 -0.063542)
(21.178 -0.064931 -0.0603769)
(21.5029 -0.00506267 -0.0628626)
(21.9193 0.10551 -0.101433)
(22.6592 0.326418 -0.225317)
(23.8555 0.726455 -0.403725)
(25.4258 1.28047 -0.576755)
(27.1223 1.92543 -0.713617)
(28.7456 2.4606 -0.822939)
(30.2675 2.74618 -0.887189)
(31.7496 2.83855 -0.901749)
(33.1919 2.84361 -0.88364)
(34.5551 2.82352 -0.848547)
(35.8273 2.81748 -0.806088)
(37.0203 2.85775 -0.762711)
(38.147 2.96701 -0.723853)
(39.2235 3.15863 -0.693468)
(40.2709 3.43959 -0.674602)
(41.3109 3.80952 -0.670502)
(42.3621 4.25824 -0.686276)
(43.4377 4.76309 -0.720247)
(44.5218 5.27865 -0.786091)
(45.7278 5.76577 -0.854564)
(46.6573 6.09412 -1.01683)
(49.0026 6.26046 -1.3165)
(20.0051 -0.0199633 -0.00551832)
(20.0579 -0.057107 -0.0188136)
(20.1765 -0.0895388 -0.0334304)
(20.3627 -0.11346 -0.0483473)
(20.6071 -0.124646 -0.061373)
(20.8987 -0.118629 -0.0665744)
(21.2204 -0.0882918 -0.0625207)
(21.5736 -0.0178534 -0.067188)
(22.0701 0.115064 -0.113145)
(22.9292 0.356914 -0.218214)
(24.2192 0.764795 -0.330188)
(25.8236 1.37189 -0.425726)
(27.4618 2.18606 -0.511478)
(28.8887 2.86656 -0.59928)
(30.1871 3.18223 -0.660076)
(31.5044 3.24893 -0.673933)
(32.8396 3.22493 -0.656987)
(34.1286 3.17741 -0.624767)
(35.3493 3.14555 -0.585124)
(36.5059 3.16541 -0.543997)
(37.6028 3.26231 -0.506254)
(38.6486 3.45034 -0.474148)
(39.6596 3.73762 -0.449393)
(40.6529 4.12694 -0.434057)
(41.644 4.61228 -0.432142)
(42.6403 5.17639 -0.443589)
(43.6303 5.77361 -0.483534)
(44.6924 6.3709 -0.528802)
(45.5224 6.80002 -0.66265)
(47.4149 7.1582 -0.901751)
(20.0051 -0.023483 -0.00587803)
(20.059 -0.06731 -0.0200058)
(20.1811 -0.105793 -0.0356687)
(20.373 -0.134364 -0.0514855)
(20.6258 -0.148619 -0.0650758)
(20.9299 -0.143813 -0.070656)
(21.267 -0.11393 -0.0658808)
(21.6511 -0.0454428 -0.0718024)
(22.2156 0.0792412 -0.108745)
(23.1594 0.229903 -0.157445)
(24.5509 0.497643 -0.162715)
(26.2671 1.07315 -0.159219)
(27.8834 2.128 -0.202831)
(29.0813 3.03787 -0.287099)
(30.0984 3.39559 -0.354125)
(31.225 3.39594 -0.37085)
(32.441 3.29427 -0.358944)
(33.6405 3.18213 -0.334135)
(34.7936 3.10273 -0.301375)
(35.901 3.09226 -0.267038)
(36.9583 3.17328 -0.23594)
(37.9665 3.35587 -0.209276)
(38.9367 3.64534 -0.187555)
(39.8818 4.04468 -0.171054)
(40.8156 4.55113 -0.161786)
(41.7395 5.15478 -0.159433)
(42.6473 5.81434 -0.179514)
(43.5744 6.5078 -0.204402)
(44.3211 7.03934 -0.310231)
(45.7581 7.62316 -0.484932)
(20.0052 -0.0265466 -0.0062954)
(20.0603 -0.0759516 -0.0214308)
(20.1861 -0.119427 -0.0380822)
(20.3846 -0.15237 -0.0548642)
(20.6466 -0.169775 -0.0692739)
(20.963 -0.16629 -0.0752257)
(21.3115 -0.141588 -0.0694841)
(21.7159 -0.086462 -0.0709219)
(22.2888 -0.0525662 -0.0711148)
(23.2583 -0.0864863 0.00209139)
(24.7261 -0.168799 0.203389)
(26.7114 0.286064 0.384201)
(28.4514 1.56996 0.338923)
(29.3946 2.69343 0.143086)
(29.9991 3.0978 0.0174599)
(30.8378 3.08917 -0.0184765)
(31.8849 2.94632 -0.0102368)
(32.9691 2.78424 0.0133872)
(34.0284 2.66253 0.0429408)
(35.0567 2.62629 0.0702344)
(36.0448 2.69613 0.0907334)
(36.9893 2.87673 0.104456)
(37.8989 3.16823 0.113587)
(38.7847 3.57129 0.121454)
(39.6603 4.08574 0.128189)
(40.5217 4.70897 0.134109)
(41.3758 5.41043 0.125185)
(42.2088 6.18032 0.114367)
(42.9368 6.81725 0.0337795)
(44.0345 7.65382 -0.0707112)
(20.0052 -0.0289614 -0.00676259)
(20.0617 -0.0831118 -0.0230993)
(20.1915 -0.130534 -0.0410247)
(20.3967 -0.165616 -0.05819)
(20.6687 -0.184352 -0.0723817)
(20.9965 -0.181675 -0.0783049)
(21.3503 -0.163063 -0.0721464)
(21.7243 -0.130388 -0.0552398)
(22.2281 -0.246875 0.0251344)
(22.054 -0.665352 0.227049)
(23.0908 -1.5338 0.3825)
(25.3605 -2.08725 0.532593)
(27.6827 -0.183941 0.579127)
(28.2431 2.05114 0.452072)
(28.822 2.76691 0.182476)
(29.4693 2.46323 0.199445)
(30.3889 2.13316 0.234169)
(31.3551 1.84977 0.270451)
(32.3254 1.6636 0.302768)
(33.2912 1.61174 0.326581)
(34.234 1.69804 0.340851)
(35.1431 1.90878 0.348988)
(36.0217 2.23083 0.35571)
(36.877 2.65774 0.364682)
(37.7241 3.18929 0.37626)
(38.5575 3.82903 0.389898)
(39.3944 4.55877 0.393117)
(40.1847 5.38082 0.397555)
(40.9203 6.0961 0.339954)
(41.8283 7.17081 0.312195)
(20.0053 -0.0307407 -0.00727475)
(20.0633 -0.0882491 -0.0248996)
(20.1974 -0.138629 -0.0443325)
(20.4101 -0.176566 -0.0628525)
(20.6918 -0.195248 -0.0770855)
(21.0322 -0.190594 -0.0814969)
(21.3769 -0.166163 -0.0733445)
(21.7066 -0.168328 -0.0321451)
(21.3571 -0.328391 0.173655)
(21.098 -1.62597 0.436479)
(22.1136 -4.0808 0.956877)
(20.7192 -6.19803 0.813058)
(24.5415 -2.06125 -0.983232)
(24.9328 1.72911 -0.311597)
(22.9385 2.7091 0.604504)
(24.0727 2.02232 0.518082)
(25.4546 1.41828 0.471462)
(26.7755 0.971557 0.459286)
(28.0341 0.68478 0.470536)
(29.2779 0.567626 0.487619)
(30.4913 0.612154 0.500266)
(31.6447 0.796417 0.51069)
(32.7207 1.09537 0.523401)
(33.7186 1.49286 0.541399)
(34.6592 1.99018 0.563397)
(35.5505 2.60146 0.586957)
(36.4362 3.32533 0.599016)
(37.2655 4.17709 0.613101)
(38.0672 4.95106 0.567806)
(38.9512 6.23503 0.60665)
(20.0053 -0.0317964 -0.00783562)
(20.065 -0.09134 -0.0268004)
(20.2042 -0.143429 -0.0477065)
(20.4254 -0.181436 -0.0684777)
(20.7191 -0.199173 -0.0854624)
(21.0696 -0.188029 -0.0913347)
(21.4166 -0.14452 -0.0845049)
(21.623 -0.0976423 -0.0179068)
(20.9499 -0.233249 0.216386)
(18.9464 -1.60979 0.411379)
(13.2138 -6.72403 1.01427)
(12.4444 -4.31749 -4.06342)
(22.667 0.254152 -0.799103)
(20.2403 0.196566 0.512321)
(12.1321 0.351656 1.35236)
(14.5868 -0.0926024 0.661581)
(17.7426 -0.642458 0.377163)
(20.8221 -1.07524 0.283864)
(23.6524 -1.32546 0.295225)
(26.1296 -1.36913 0.34905)
(28.18 -1.22083 0.409232)
(29.8023 -0.922134 0.467478)
(31.0561 -0.522195 0.526293)
(32.0144 -0.0558123 0.588811)
(32.7492 0.469484 0.65221)
(33.3362 1.07587 0.710238)
(33.88 1.78549 0.746379)
(34.3762 2.64183 0.774533)
(34.9228 3.43232 0.735786)
(35.5818 4.90955 0.807922)
(20.0054 -0.0320946 -0.00841972)
(20.067 -0.0922885 -0.0288284)
(20.2114 -0.144603 -0.0512632)
(20.4422 -0.182394 -0.0737511)
(20.7507 -0.19629 -0.0923837)
(21.1202 -0.177601 -0.100056)
(21.4904 -0.10684 -0.092235)
(21.6936 0.029208 -0.0238257)
(20.8801 0.193847 0.221724)
(17.4441 0.616356 0.507087)
(13.5284 3.33066 -4.20216)
(22.1194 -0.642174 -0.125256)
(15.3807 -3.50081 2.08763)
(10.1591 -3.12181 -1.22604)
(15.5552 -3.18559 -0.910555)
(20.3872 -3.43977 -0.568711)
(24.1972 -3.61301 -0.287458)
(27.104 -3.57773 -0.0644421)
(29.2581 -3.32086 0.0973839)
(30.777 -2.89017 0.208736)
(31.7808 -2.36029 0.296415)
(32.3971 -1.80646 0.382465)
(32.7403 -1.27054 0.477256)
(32.9158 -0.743244 0.578846)
(32.96 -0.176804 0.679793)
(32.9384 0.474415 0.759861)
(32.8124 1.27581 0.826215)
(32.7575 2.00323 0.823978)
(32.5624 3.50403 0.923173)
(20.0055 -0.0316149 -0.00901494)
(20.0691 -0.090995 -0.0309527)
(20.2192 -0.142438 -0.0549976)
(20.4606 -0.17804 -0.0782862)
(20.7867 -0.189176 -0.0971816)
(21.1872 -0.161724 -0.105962)
(21.599 -0.0660999 -0.0967414)
(21.9498 0.137687 -0.0459553)
(21.3109 0.513451 0.188233)
(19.8654 2.62103 0.513601)
(18.5535 7.52934 1.21234)
(11.6199 9.89776 -1.43768)
(12.0778 2.4742 -0.690058)
(9.83395 0.507349 -1.5478)
(19.6791 -3.91126 -0.826248)
(23.1245 -4.54571 -0.573391)
(26.1283 -4.89917 -0.309891)
(28.3914 -4.94998 -0.135595)
(29.979 -4.68647 -0.0370639)
(31.0206 -4.178 0.0143421)
(31.6066 -3.53273 0.0505302)
(31.8339 -2.87284 0.10617)
(31.8011 -2.29822 0.19648)
(31.6105 -1.84488 0.317687)
(31.3643 -1.46516 0.455002)
(31.1114 -1.05551 0.589191)
(30.8972 -0.523993 0.694854)
(30.6065 0.199205 0.779985)
(30.4003 0.902864 0.808189)
(29.6371 2.33865 0.931688)
(20.0056 -0.0303535 -0.00962744)
(20.0712 -0.0874238 -0.0331045)
(20.2275 -0.136827 -0.0584741)
(20.4805 -0.171388 -0.0835862)
(20.8262 -0.179574 -0.106344)
(21.2564 -0.147311 -0.119674)
(21.7255 -0.0444868 -0.113391)
(22.1748 0.151042 -0.0815519)
(22.5938 0.682312 0.0268082)
(21.8026 1.6523 0.315371)
(22.6347 4.12385 0.512998)
(24.4445 5.09116 0.921466)
(24.1214 2.70039 1.0046)
(23.7698 -1.08979 0.835918)
(26.5239 -4.62343 0.150971)
(27.4079 -5.36688 0.0437231)
(28.567 -5.68543 -0.0113202)
(29.5204 -5.56157 -0.0728079)
(30.136 -5.05317 -0.128154)
(30.4251 -4.312 -0.159488)
(30.4212 -3.51523 -0.151107)
(30.1926 -2.82548 -0.0852916)
(29.7636 -2.33963 0.041006)
(29.2225 -2.08166 0.207329)
(28.7098 -1.96668 0.38605)
(28.2947 -1.82216 0.550785)
(27.9715 -1.4813 0.674486)
(27.5469 -0.859743 0.762026)
(27.2071 -0.14274 0.794198)
(26.1323 1.30574 0.899459)
(20.0057 -0.0282675 -0.0102352)
(20.0735 -0.0817847 -0.0351614)
(20.2359 -0.127778 -0.0622608)
(20.5004 -0.158288 -0.0903155)
(20.865 -0.16385 -0.116618)
(21.3252 -0.130944 -0.132106)
(21.8426 -0.0371008 -0.1263)
(22.4007 0.139501 -0.11434)
(23.0042 0.492287 -0.0649339)
(23.6618 1.10721 0.125256)
(24.5815 1.63564 0.408958)
(25.9396 0.995442 0.597479)
(26.9419 -0.879402 0.547704)
(27.1262 -3.13799 0.296902)
(27.1582 -4.77488 0.0517792)
(27.6477 -5.62256 -0.10085)
(28.3695 -5.83818 -0.220218)
(28.9119 -5.50026 -0.316532)
(29.148 -4.7669 -0.371323)
(29.0946 -3.86621 -0.373356)
(28.7796 -3.01634 -0.315593)
(28.2438 -2.38762 -0.195089)
(27.4963 -2.07958 -0.0195411)
(26.6674 -2.11633 0.185684)
(25.9887 -2.36994 0.393031)
(25.5079 -2.5554 0.577015)
(25.0752 -2.39442 0.70457)
(24.4194 -1.81044 0.774414)
(23.7441 -1.01634 0.794097)
(22.1248 0.454731 0.860483)
(20.0058 -0.0254992 -0.0108052)
(20.0757 -0.0736832 -0.0373137)
(20.2438 -0.114853 -0.0662275)
(20.5188 -0.142281 -0.0961467)
(20.9011 -0.14681 -0.124317)
(21.3887 -0.116059 -0.140987)
(21.9414 -0.0357861 -0.135981)
(22.5566 0.0993931 -0.135412)
(23.2222 0.297891 -0.112909)
(23.88 0.562889 -0.00765204)
(24.5755 0.613075 0.155929)
(25.329 -0.0983554 0.235523)
(25.9341 -1.69908 0.178912)
(26.2477 -3.62404 0.0344552)
(26.5596 -4.99508 -0.155601)
(27.1366 -5.61477 -0.334046)
(27.7337 -5.56725 -0.469388)
(28.0631 -4.97907 -0.541691)
(28.0707 -4.07582 -0.547944)
(27.7968 -3.11121 -0.491876)
(27.269 -2.30277 -0.374081)
(26.4792 -1.80246 -0.199377)
(25.4159 -1.72243 0.0118187)
(24.3563 -2.13953 0.234702)
(23.6055 -2.86315 0.465832)
(22.9907 -3.37142 0.678685)
(22.1365 -3.25922 0.801788)
(20.8652 -2.56177 0.820155)
(19.5501 -1.5593 0.788036)
(17.2869 -0.0645239 0.797759)
(20.0059 -0.0219215 -0.01135)
(20.0777 -0.0634571 -0.0393111)
(20.2508 -0.0989039 -0.0696168)
(20.5357 -0.12206 -0.101265)
(20.9339 -0.125051 -0.131248)
(21.4436 -0.0977577 -0.148478)
(22.0201 -0.031966 -0.143362)
(22.6586 0.0661015 -0.147993)
(23.3239 0.169764 -0.139338)
(23.9132 0.224753 -0.0686307)
(24.3763 0.0394032 0.0346696)
(24.7626 -0.685372 0.0776777)
(25.1354 -2.02591 0.0245363)
(25.4783 -3.58716 -0.133047)
(25.9495 -4.71604 -0.371774)
(26.5545 -5.12452 -0.588041)
(27.0398 -4.85269 -0.699812)
(27.2156 -4.10409 -0.708916)
(27.0758 -3.1457 -0.646219)
(26.6668 -2.22861 -0.525146)
(25.9978 -1.53949 -0.347681)
(24.9632 -1.19622 -0.131626)
(23.6351 -1.38789 0.0834177)
(22.4474 -2.29925 0.310801)
(21.5335 -3.51492 0.615569)
(20.2568 -4.12903 0.896914)
(18.2663 -3.7861 0.979681)
(15.8542 -2.82189 0.877424)
(13.6361 -1.59141 0.748345)
(10.9562 -0.179228 0.694381)
(20.006 -0.0177023 -0.0118128)
(20.0794 -0.0513556 -0.0409562)
(20.2571 -0.0799213 -0.0724778)
(20.5504 -0.0981682 -0.105671)
(20.9622 -0.0995643 -0.136882)
(21.4894 -0.0756738 -0.154533)
(22.081 -0.0222898 -0.148822)
(22.7227 0.049446 -0.154727)
(23.3551 0.0982399 -0.149615)
(23.845 0.0473305 -0.094313)
(24.1132 -0.243491 -0.0235692)
(24.2496 -0.947387 -0.00526735)
(24.4299 -2.0954 -0.0862911)
(24.796 -3.37528 -0.30633)
(25.373 -4.21072 -0.602411)
(25.9761 -4.34338 -0.817051)
(26.3671 -3.88347 -0.867855)
(26.4401 -3.07442 -0.799097)
(26.2154 -2.172 -0.667432)
(25.7419 -1.39335 -0.486632)
(24.9627 -0.862254 -0.259713)
(23.721 -0.684885 -0.0327432)
(22.2075 -1.20808 0.150684)
(20.8706 -2.6469 0.436761)
(19.2624 -4.08953 0.925496)
(16.393 -4.39552 1.25484)
(12.6227 -3.6053 1.17168)
(8.95769 -2.39875 0.864373)
(6.06959 -1.12649 0.6485)
(3.69961 -0.0221192 0.556394)
(20.0061 -0.0129287 -0.0121672)
(20.0808 -0.0374835 -0.0421957)
(20.2622 -0.0582021 -0.0747079)
(20.5625 -0.0710894 -0.108957)
(20.9853 -0.0708135 -0.141349)
(21.5265 -0.0506157 -0.159611)
(22.1273 -0.00764938 -0.151906)
(22.7607 0.046476 -0.153845)
(23.3484 0.0675512 -0.145917)
(23.7367 -0.0206398 -0.097257)
(23.8424 -0.320232 -0.0455868)
(23.7845 -0.937874 -0.0564401)
(23.8395 -1.87915 -0.20523)
(24.2271 -2.8411 -0.515056)
(24.8408 -3.34932 -0.841798)
(25.3962 -3.26244 -1.00581)
(25.7006 -2.74561 -0.971774)
(25.7123 -2.01734 -0.823603)
(25.4587 -1.28554 -0.629618)
(24.9719 -0.713225 -0.397855)
(24.096 -0.355932 -0.143595)
(22.7036 -0.356066 0.0512847)
(21.0361 -1.20965 0.218786)
(19.2848 -2.88795 0.705647)
(16.201 -4.04438 1.42962)
(10.848 -3.79268 1.61515)
(5.31703 -2.69216 1.19769)
(1.17656 -1.47636 0.729252)
(-1.58208 -0.455534 0.546864)
(-3.02418 0.160592 0.369705)
(20.0061 -0.0081032 -0.0124805)
(20.0819 -0.0231603 -0.043228)
(20.266 -0.0354246 -0.0764599)
(20.5714 -0.0425861 -0.111277)
(21.0025 -0.041065 -0.144432)
(21.5546 -0.0254923 -0.162828)
(22.1609 0.00654974 -0.151905)
(22.7789 0.0484144 -0.144476)
(23.3249 0.0633915 -0.129432)
(23.6267 -0.0118927 -0.0816336)
(23.5996 -0.248258 -0.0420697)
(23.3905 -0.710062 -0.0925095)
(23.362 -1.37352 -0.336441)
(23.7377 -1.97256 -0.737232)
(24.3081 -2.1967 -1.05803)
(24.7766 -2.01598 -1.13762)
(25.0087 -1.58633 -1.01065)
(24.9969 -1.05956 -0.790154)
(24.7655 -0.571994 -0.540423)
(24.2719 -0.216757 -0.266499)
(23.3195 -0.0107573 -0.0146761)
(21.8037 -0.145705 0.128537)
(19.9931 -1.06189 0.360875)
(17.5006 -2.41574 1.13997)
(12.157 -2.99114 1.92174)
(3.96372 -2.39915 1.65185)
(-2.55807 -1.36502 0.855257)
(-5.91635 -0.574277 0.452791)
(-7.64429 -0.124033 0.303788)
(-8.40533 0.090518 0.119791)
(20.0063 -0.00289457 -0.0124105)
(20.0829 -0.00809841 -0.043302)
(20.2689 -0.0121234 -0.0768344)
(20.5775 -0.0142725 -0.111913)
(21.0141 -0.0133299 -0.145466)
(21.5739 -0.00703388 -0.163106)
(22.1847 0.00606994 -0.146731)
(22.7956 0.0244586 -0.125401)
(23.3214 0.0329473 -0.0966741)
(23.5533 0.00359522 -0.0422131)
(23.4111 -0.0926021 -0.0132049)
(23.0817 -0.278819 -0.117443)
(22.9886 -0.534388 -0.468896)
(23.3208 -0.738568 -0.941095)
(23.8051 -0.783628 -1.22704)
(24.1784 -0.681048 -1.21208)
(24.3573 -0.500132 -0.996861)
(24.3501 -0.296654 -0.709306)
(24.1621 -0.11706 -0.395385)
(23.6292 0.0095397 -0.0732096)
(22.5497 0.0695154 0.16229)
(20.9643 -0.0394695 0.246765)
(19.1977 -0.455757 0.561675)
(15.9119 -0.980496 1.50091)
(7.78932 -1.10078 2.05634)
(-2.15808 -0.728544 1.29639)
(-7.02154 -0.394515 0.609385)
(-9.53627 -0.158704 0.247654)
(-10.6236 -0.0379536 0.0819296)
(-10.9407 -0.00192906 -0.145944)
(20.0053 -0.0025029 -0.014483)
(20.0562 -0.00702547 -0.0482658)
(20.169 -0.0108594 -0.084977)
(20.3445 -0.0134638 -0.122638)
(20.5738 -0.0139864 -0.158777)
(20.8489 -0.0121769 -0.187597)
(21.1743 -0.00546831 -0.211035)
(21.5798 0.0125802 -0.244103)
(22.2761 0.0405377 -0.380187)
(23.6336 0.0738815 -0.797273)
(25.6822 0.116243 -1.51689)
(27.9511 0.165056 -2.18187)
(30.0622 0.210826 -2.514)
(31.949 0.240074 -2.61334)
(33.6351 0.247742 -2.57922)
(35.1729 0.241524 -2.47464)
(36.6078 0.232505 -2.34978)
(37.9717 0.228223 -2.2411)
(39.2933 0.233893 -2.17102)
(40.606 0.253529 -2.15574)
(41.9362 0.289527 -2.20553)
(43.3032 0.342316 -2.32541)
(44.7167 0.410376 -2.51351)
(46.17 0.489995 -2.7579)
(47.6441 0.575213 -3.03997)
(49.0909 0.659265 -3.32078)
(50.4705 0.734112 -3.59274)
(51.764 0.792307 -3.79074)
(52.8561 0.82462 -4.13873)
(54.2185 0.820255 -4.39636)
(20.0053 -0.00739147 -0.0147698)
(20.0566 -0.0209355 -0.0490204)
(20.17 -0.0326036 -0.0860461)
(20.3467 -0.0407869 -0.123774)
(20.5777 -0.0432034 -0.159555)
(20.8576 -0.0385685 -0.188157)
(21.1941 -0.0179587 -0.214694)
(21.626 0.0325995 -0.257141)
(22.3425 0.106297 -0.415394)
(23.6325 0.197903 -0.829877)
(25.52 0.320973 -1.47943)
(27.6137 0.464759 -2.03402)
(29.6144 0.604963 -2.33827)
(31.4265 0.699005 -2.45556)
(33.0618 0.725504 -2.44977)
(34.5689 0.707349 -2.3679)
(35.9858 0.677457 -2.25537)
(37.3367 0.657248 -2.14653)
(38.6455 0.661923 -2.06308)
(39.9407 0.703205 -2.0201)
(41.2454 0.788684 -2.02782)
(42.5766 0.920973 -2.09239)
(43.9442 1.09743 -2.21528)
(45.3456 1.30991 -2.39119)
(46.7633 1.54383 -2.60736)
(48.1584 1.78179 -2.83696)
(49.4951 1.99995 -3.07788)
(50.7611 2.1784 -3.27096)
(51.8361 2.28395 -3.62401)
(53.2075 2.30457 -3.9288)
(20.0053 -0.0120883 -0.0152762)
(20.0572 -0.0344148 -0.0506782)
(20.1723 -0.0537864 -0.0888935)
(20.3519 -0.06764 -0.127641)
(20.5877 -0.0727155 -0.164004)
(20.8773 -0.0663461 -0.19354)
(21.2335 -0.031384 -0.22077)
(21.7135 0.0504143 -0.278101)
(22.5099 0.165065 -0.478699)
(23.8352 0.304864 -0.915194)
(25.6114 0.490333 -1.46845)
(27.5289 0.715925 -1.87427)
(29.3908 0.948517 -2.11065)
(31.0827 1.1108 -2.21679)
(32.6189 1.15301 -2.22069)
(34.057 1.1155 -2.1506)
(35.4275 1.05561 -2.04586)
(36.7432 1.00709 -1.93755)
(38.0202 0.99444 -1.84437)
(39.2819 1.03661 -1.77932)
(40.5468 1.14632 -1.75201)
(41.8287 1.3293 -1.76885)
(43.1372 1.58415 -1.83377)
(44.4692 1.90097 -1.94472)
(45.8063 2.26132 -2.09456)
(47.1184 2.63637 -2.26812)
(48.372 2.99112 -2.46859)
(49.5532 3.29507 -2.64317)
(50.5571 3.48578 -2.98372)
(51.819 3.57777 -3.29606)
(20.0054 -0.016575 -0.0160082)
(20.058 -0.047253 -0.053126)
(20.1755 -0.0740081 -0.0931317)
(20.3592 -0.093361 -0.133546)
(20.602 -0.101754 -0.171321)
(20.9049 -0.0951351 -0.203045)
(21.2868 -0.0476873 -0.230561)
(21.8332 0.0612824 -0.303498)
(22.734 0.210369 -0.540672)
(24.1075 0.385009 -0.96718)
(25.7869 0.60915 -1.36297)
(27.5841 0.893411 -1.634)
(29.3162 1.21821 -1.79976)
(30.8573 1.44916 -1.88566)
(32.2514 1.49466 -1.8891)
(33.5857 1.42328 -1.8213)
(34.8831 1.32099 -1.71931)
(36.1417 1.2318 -1.6119)
(37.3691 1.1879 -1.51392)
(38.5833 1.21461 -1.43574)
(39.7973 1.32921 -1.38567)
(41.021 1.54078 -1.36909)
(42.2635 1.84977 -1.39067)
(43.5163 2.24859 -1.44813)
(44.766 2.71378 -1.54205)
(45.9811 3.21276 -1.66261)
(47.1301 3.69801 -1.81858)
(48.1904 4.13055 -1.96525)
(49.0879 4.41866 -2.27658)
(50.1503 4.62106 -2.56484)
(20.0054 -0.0207087 -0.0169514)
(20.0591 -0.0590779 -0.0562975)
(20.1796 -0.0926761 -0.0986205)
(20.3682 -0.117487 -0.141279)
(20.6194 -0.128627 -0.180553)
(20.9377 -0.121823 -0.214434)
(21.3516 -0.0660864 -0.2439)
(21.9757 0.0611676 -0.332729)
(22.9755 0.227734 -0.583353)
(24.3729 0.404179 -0.922129)
(25.9959 0.624431 -1.13764)
(27.7311 0.939943 -1.26427)
(29.3547 1.37553 -1.36486)
(30.72 1.68395 -1.44579)
(31.9228 1.71232 -1.45435)
(33.1126 1.58481 -1.38566)
(34.3056 1.42612 -1.28254)
(35.4819 1.28587 -1.175)
(36.6415 1.20055 -1.07569)
(37.7957 1.20023 -0.993354)
(38.9506 1.30572 -0.934457)
(40.1122 1.52762 -0.902268)
(41.2852 1.87104 -0.898235)
(42.4605 2.32976 -0.920528)
(43.6251 2.8817 -0.972026)
(44.7434 3.49098 -1.0477)
(45.7853 4.10062 -1.16025)
(46.7113 4.66421 -1.27345)
(47.4893 5.06456 -1.54268)
(48.3007 5.41167 -1.78293)
(20.0054 -0.0244157 -0.0181168)
(20.0603 -0.0697065 -0.0601361)
(20.1843 -0.109371 -0.10544)
(20.3787 -0.138835 -0.151172)
(20.6397 -0.153939 -0.19236)
(20.9737 -0.148903 -0.228782)
(21.4239 -0.0889476 -0.260378)
(22.1245 0.0456534 -0.356473)
(23.1955 0.205764 -0.575661)
(24.5921 0.321553 -0.749983)
(26.2083 0.454653 -0.742593)
(27.9661 0.765679 -0.708305)
(29.5369 1.37609 -0.782859)
(30.6687 1.81804 -0.901622)
(31.5873 1.82454 -0.931693)
(32.5685 1.60451 -0.860156)
(33.6181 1.35779 -0.753156)
(34.6865 1.14496 -0.645997)
(35.7647 1.00472 -0.54933)
(36.8546 0.968652 -0.471548)
(37.9518 1.05582 -0.417718)
(39.0552 1.28016 -0.387138)
(40.1608 1.64559 -0.374767)
(41.2663 2.1476 -0.380469)
(42.3568 2.76986 -0.405776)
(43.3916 3.4763 -0.447324)
(44.3404 4.2041 -0.521199)
(45.1406 4.89961 -0.599273)
(45.8062 5.42712 -0.819315)
(46.3558 5.9446 -0.995128)
(20.0055 -0.0275183 -0.0193801)
(20.0618 -0.0788155 -0.0646373)
(20.1896 -0.123903 -0.113255)
(20.3903 -0.157267 -0.162379)
(20.6621 -0.174882 -0.207031)
(21.0116 -0.170586 -0.245745)
(21.4962 -0.111913 -0.277663)
(22.2563 0.0157158 -0.361247)
(23.3522 0.13164 -0.484663)
(24.7457 0.130979 -0.413273)
(26.4245 0.0551144 -0.0538367)
(28.4061 0.335185 0.166342)
(30.0128 1.21451 -0.0648918)
(30.7464 1.86918 -0.390325)
(31.0996 1.8368 -0.453299)
(31.7326 1.50296 -0.338879)
(32.5993 1.13549 -0.195312)
(33.5599 0.824242 -0.0729752)
(34.5813 0.615583 0.023923)
(35.6397 0.53729 0.0910765)
(36.7113 0.607246 0.127893)
(37.7762 0.830523 0.145337)
(38.836 1.20819 0.150158)
(39.8893 1.74097 0.146096)
(40.9242 2.41653 0.133703)
(41.8988 3.20319 0.114929)
(42.7804 4.03763 0.0726279)
(43.4821 4.86095 0.0275746)
(44.0501 5.52202 -0.141702)
(44.3667 6.22449 -0.238193)
(20.0055 -0.0301129 -0.0207996)
(20.0632 -0.0859416 -0.0692573)
(20.1954 -0.13545 -0.121847)
(20.4039 -0.173343 -0.175942)
(20.6867 -0.193246 -0.22464)
(21.0501 -0.188936 -0.264309)
(21.5607 -0.134158 -0.293012)
(22.345 -0.016554 -0.331736)
(23.4334 0.00235596 -0.277089)
(24.1703 -0.157681 0.0641697)
(25.9054 -0.598354 0.694967)
(28.1423 -0.897311 1.18361)
(30.2915 0.661433 0.554365)
(30.5984 2.40807 -0.0478675)
(29.471 2.11936 -0.14949)
(29.8286 1.35966 0.0800991)
(30.6405 0.745406 0.270872)
(31.6274 0.285394 0.40715)
(32.7057 -0.00849701 0.499151)
(33.8294 -0.124257 0.551766)
(34.9497 -0.0627601 0.573962)
(36.0423 0.169118 0.581722)
(37.1059 0.567942 0.58446)
(38.1455 1.13057 0.587708)
(39.1622 1.84948 0.592576)
(40.119 2.70205 0.5981)
(40.9876 3.63258 0.586373)
(41.6567 4.58083 0.574551)
(42.1962 5.38753 0.453308)
(42.3713 6.2912 0.444969)
(20.0056 -0.0319424 -0.0224206)
(20.0647 -0.0915458 -0.0743929)
(20.2012 -0.143644 -0.130482)
(20.418 -0.182705 -0.189615)
(20.7139 -0.204824 -0.245482)
(21.0908 -0.20138 -0.28618)
(21.6202 -0.1455 -0.307103)
(22.3772 -0.0662514 -0.272819)
(22.9184 -0.0648874 -0.00777985)
(23.9219 -0.613648 0.79008)
(25.4797 -1.59913 2.15231)
(26.9165 -2.72406 1.71277)
(28.6111 0.211829 -1.57428)
(27.581 3.60208 -0.491821)
(23.5371 2.78656 0.649019)
(24.828 1.3717 0.662804)
(26.3417 0.329899 0.707089)
(27.8923 -0.398635 0.756354)
(29.4564 -0.846481 0.800004)
(30.9717 -1.02441 0.827549)
(32.3658 -0.960925 0.836967)
(33.618 -0.694077 0.843255)
(34.7571 -0.256627 0.858033)
(35.8241 0.335061 0.886659)
(36.8512 1.07965 0.925339)
(37.8171 1.97109 0.966869)
(38.7053 2.97188 0.989348)
(39.3907 4.02704 1.00964)
(39.9605 4.97762 0.927525)
(40.1272 6.10679 1.00365)
(20.0056 -0.0330975 -0.0241246)
(20.0664 -0.094722 -0.080246)
(20.2073 -0.149151 -0.140165)
(20.432 -0.189323 -0.202308)
(20.7406 -0.206887 -0.263122)
(21.1326 -0.193163 -0.308153)
(21.6716 -0.12416 -0.322479)
(22.3489 -0.040699 -0.233829)
(22.6509 -0.0432999 0.203452)
(22.5864 -0.819284 1.40632)
(23.5027 -1.38113 3.36785)
(17.5038 -4.85285 -14.0814)
(6.95002 1.06186 0.970362)
(15.9343 4.40904 3.60891)
(12.5952 1.57622 1.85963)
(17.4343 -0.300368 0.963908)
(21.4626 -1.55861 0.66735)
(24.6353 -2.27384 0.6103)
(27.1298 -2.55389 0.648315)
(29.09 -2.49709 0.701234)
(30.6138 -2.20132 0.74519)
(31.8166 -1.75039 0.794956)
(32.8246 -1.19626 0.86648)
(33.7349 -0.550793 0.965045)
(34.6061 0.206596 1.08)
(35.438 1.10239 1.192)
(36.2202 2.13031 1.27048)
(36.822 3.25029 1.33094)
(37.343 4.30643 1.28273)
(37.4863 5.65098 1.42102)
(20.0057 -0.0334258 -0.025936)
(20.0684 -0.0959307 -0.0862912)
(20.2144 -0.150408 -0.150657)
(20.4488 -0.190647 -0.217928)
(20.7724 -0.210518 -0.284549)
(21.1857 -0.195605 -0.334652)
(21.7493 -0.103793 -0.348495)
(22.4295 0.0464796 -0.249739)
(22.5692 0.251414 0.25459)
(21.0882 0.684814 1.76367)
(-0.0985135 1.56219 5.66567)
(14.8164 -4.08852 -0.914875)
(20.08 -4.41745 -0.516106)
(23.8229 -4.59894 -0.183147)
(26.372 -4.53868 0.0651332)
(28.124 -4.21668 0.237404)
(29.3385 -3.70291 0.343218)
(30.1838 -3.09547 0.419383)
(30.8177 -2.47162 0.511457)
(31.3805 -1.86121 0.644412)
(31.9598 -1.23879 0.820464)
(32.5837 -0.541246 1.02118)
(33.2097 0.294331 1.21996)
(33.8102 1.29538 1.37701)
(34.2364 2.43014 1.49953)
(34.5979 3.5388 1.50875)
(34.5553 5.02262 1.69263)
(20.0058 -0.0330055 -0.0278416)
(20.0704 -0.0946048 -0.0923441)
(20.2224 -0.148926 -0.161979)
(20.4684 -0.188195 -0.236351)
(20.8105 -0.20119 -0.308459)
(21.2527 -0.172985 -0.362611)
(21.8609 -0.0633721 -0.383589)
(22.6429 0.119401 -0.315916)
(22.9099 0.463238 0.134678)
(22.9986 1.76332 1.37931)
(23.8383 4.32533 3.19351)
(17.8997 4.75011 -4.41876)
(3.93448 -0.44834 -6.07536)
(14.1695 -3.45426 -6.05579)
(23.6956 -6.27975 -1.08938)
(25.2839 -6.21622 -0.609425)
(26.7457 -6.01101 -0.289482)
(27.7522 -5.54006 -0.129477)
(28.351 -4.84421 -0.0573933)
(28.6625 -4.06425 -0.0149158)
(28.8173 -3.3276 0.0527958)
(28.9219 -2.70138 0.184211)
(29.1078 -2.18763 0.385345)
(29.4225 -1.71595 0.64038)
(29.8639 -1.17313 0.912932)
(30.3576 -0.458677 1.16532)
(30.8524 0.480614 1.3623)
(31.1834 1.61518 1.51711)
(31.4556 2.77997 1.57874)
(31.2304 4.34281 1.7973)
(20.0059 -0.0316845 -0.0297254)
(20.0727 -0.0913881 -0.0988255)
(20.2307 -0.14314 -0.17375)
(20.4872 -0.178941 -0.252597)
(20.8471 -0.191186 -0.328334)
(21.3203 -0.162267 -0.390075)
(21.9764 -0.0487456 -0.422473)
(22.833 0.129406 -0.401945)
(23.6872 0.493509 -0.139695)
(23.86 1.34135 0.602099)
(25.0702 2.86927 1.67093)
(27.5915 3.16616 2.43525)
(28.3526 -0.110923 1.69431)
(27.4709 -4.32461 0.597965)
(26.8048 -6.25514 -0.102534)
(26.8657 -6.52345 -0.219931)
(27.1472 -6.29528 -0.268557)
(27.2376 -5.63366 -0.325055)
(27.1232 -4.75504 -0.358781)
(26.8869 -3.88633 -0.341181)
(26.6104 -3.17314 -0.242751)
(26.3611 -2.66583 -0.0424905)
(26.2726 -2.34465 0.245111)
(26.3816 -2.10367 0.57967)
(26.6744 -1.77644 0.905384)
(27.0491 -1.21732 1.17792)
(27.4095 -0.355327 1.36999)
(27.5948 0.773209 1.50579)
(27.7291 2.01189 1.57391)
(27.3188 3.63873 1.78378)
(20.006 -0.0296826 -0.0316847)
(20.075 -0.0853686 -0.105315)
(20.2383 -0.133748 -0.184764)
(20.5051 -0.168187 -0.267598)
(20.8848 -0.178423 -0.349419)
(21.3893 -0.147747 -0.41825)
(22.0924 -0.04268 -0.459317)
(23.026 0.121724 -0.475352)
(23.9135 0.34951 -0.302588)
(24.6584 0.698424 0.205659)
(25.5441 0.840551 0.899288)
(26.6936 -0.130354 1.25602)
(27.3412 -2.33875 1.01082)
(27.04 -4.76188 0.407882)
(26.4902 -6.09203 -0.121618)
(26.2763 -6.4269 -0.405628)
(26.0838 -6.03683 -0.575248)
(25.7099 -5.20986 -0.668407)
(25.2141 -4.24979 -0.677982)
(24.6764 -3.39284 -0.592191)
(24.1318 -2.77987 -0.399328)
(23.6406 -2.46503 -0.0974881)
(23.3235 -2.41335 0.283271)
(23.2499 -2.47056 0.682534)
(23.4012 -2.39316 1.03207)
(23.6167 -1.97541 1.28476)
(23.7571 -1.14079 1.42415)
(23.6676 0.0205546 1.49326)
(23.5062 1.35035 1.53256)