/*--------------------------------*- C++ -*----------------------------------*\
| =========                 |                                                 |
| \\      /  F ield         | OpenFOAM: The Open Source CFD Toolbox           |
|  \\    /   O peration     | Version:  2512                                  |
|   \\  /    A nd           | Website:  www.openfoam.com                      |
|    \\/     M anipulation  |                                                 |
\*---------------------------------------------------------------------------*/
FoamFile
{
    version     2.0;
    format      ascii;
    arch        "LSB;label=32;scalar=64";
    class       volVectorField;
    location    "120";
    object      U;
}
// * * * * * * * * * * * * * * * * * * * * * * * * * * * * * * * * * * * * * //

dimensions      [0 1 -1 0 0 0 0];

internalField   nonuniform List<vector> 
84826
(
(20.0001 -0.000219022 0.000209025)
(20.0002 -0.00070556 0.000681091)
(20.0004 -0.00136964 0.00124242)
(20.0009 -0.00239417 0.00195063)
(20.0027 -0.00402192 0.00286929)
(20.0075 -0.00658053 0.00405645)
(20.0178 -0.0104601 0.0055505)
(20.0376 -0.0160135 0.00732891)
(20.0716 -0.0231851 0.00923647)
(20.1239 -0.0307922 0.0109759)
(20.1953 -0.0364488 0.0121186)
(20.2769 -0.0352028 0.0120669)
(20.3472 -0.0254238 0.0104521)
(20.3842 -0.0118936 0.00762312)
(20.3833 -0.00123624 0.00457488)
(20.359 0.00411721 0.00218254)
(20.3295 0.00540511 0.000680541)
(20.3054 0.00522348 -0.000168349)
(20.2868 0.00521071 -0.000762351)
(20.2703 0.00564396 -0.00143246)
(20.2539 0.00642159 -0.00239283)
(20.2375 0.0076348 -0.00376901)
(20.2208 0.00945858 -0.00568157)
(20.2048 0.0119866 -0.00814976)
(20.189 0.015172 -0.0115455)
(20.1826 0.0186803 -0.0155064)
(20.1721 0.0221202 -0.0228248)
(20.2239 0.0239543 -0.0292694)
(20.19 0.0256014 -0.0399808)
(20.4742 0.0213709 -0.0690022)
(20 -0.00063414 0.000212751)
(20.0001 -0.00204791 0.000694148)
(19.9999 -0.00398667 0.00127022)
(19.9998 -0.00699253 0.00200469)
(20.0007 -0.011799 0.00297124)
(20.0042 -0.0194183 0.00424392)
(20.0127 -0.0311123 0.00588625)
(20.0305 -0.0480791 0.00791068)
(20.0633 -0.0704193 0.010185)
(20.1165 -0.094651 0.0123559)
(20.1931 -0.113496 0.0138898)
(20.284 -0.10991 0.0139148)
(20.3617 -0.078489 0.0120853)
(20.3991 -0.035623 0.00860666)
(20.3932 -0.00250056 0.00500482)
(20.3631 0.0135128 0.00232533)
(20.3303 0.0166957 0.000735876)
(20.3052 0.0156698 -0.000121619)
(20.2869 0.0156668 -0.00070848)
(20.2708 0.0173001 -0.00131068)
(20.2548 0.0199951 -0.00207509)
(20.2389 0.0238538 -0.00315759)
(20.2231 0.0293144 -0.00480009)
(20.2079 0.0366629 -0.00713276)
(20.1927 0.0458855 -0.0105651)
(20.1864 0.0561569 -0.0147164)
(20.1749 0.0664959 -0.02204)
(20.2254 0.0727148 -0.0286986)
(20.1874 0.0791204 -0.0382831)
(20.4749 0.0696974 -0.0705666)
(20 -0.000992601 0.000220636)
(19.9998 -0.00321448 0.000721985)
(19.999 -0.00628299 0.00132939)
(19.9977 -0.0110829 0.00212005)
(19.9968 -0.0188525 0.00318967)
(19.9975 -0.0313744 0.00464888)
(20.0022 -0.0510351 0.0066128)
(20.0156 -0.0803811 0.00917467)
(20.0452 -0.12053 0.0122641)
(20.0997 -0.166033 0.0154409)
(20.1873 -0.204372 0.0179479)
(20.299 -0.19868 0.0181721)
(20.3931 -0.138878 0.0158933)
(20.4308 -0.060455 0.0110469)
(20.4137 -0.0020429 0.00625816)
(20.3713 0.0243871 0.00297487)
(20.3315 0.0274736 0.00127101)
(20.3053 0.0238834 0.000507629)
(20.2882 0.0230296 -0.000123738)
(20.2733 0.0254009 -0.00101518)
(20.2582 0.0296132 -0.00213014)
(20.2434 0.0356191 -0.00341727)
(20.2289 0.043968 -0.00511068)
(20.2151 0.0550149 -0.00743937)
(20.2011 0.0688755 -0.0109965)
(20.1954 0.0845861 -0.0155483)
(20.1824 0.100802 -0.0231496)
(20.2322 0.11214 -0.0305881)
(20.1865 0.123446 -0.0388954)
(20.4818 0.114862 -0.0767753)
(20 -0.00126842 0.000230965)
(19.9993 -0.0041153 0.000760004)
(19.9976 -0.00807943 0.001411)
(19.9947 -0.0143569 0.00228137)
(19.991 -0.0246985 0.00350195)
(19.9873 -0.041776 0.00524344)
(19.9858 -0.0694924 0.00771714)
(19.9914 -0.112687 0.0111662)
(20.0143 -0.175208 0.0156868)
(20.0687 -0.251112 0.0207271)
(20.1751 -0.322631 0.0250518)
(20.3247 -0.313391 0.0258251)
(20.4464 -0.209719 0.022911)
(20.4826 -0.0846381 0.0157188)
(20.4454 0.00239991 0.00906057)
(20.3821 0.0374709 0.00483191)
(20.3312 0.0368903 0.00293761)
(20.3037 0.0289614 0.00253729)
(20.2889 0.0273618 0.00235119)
(20.2759 0.0312533 0.00164492)
(20.2622 0.0381651 0.000470391)
(20.2489 0.0481112 -0.000931329)
(20.2362 0.0617308 -0.00262358)
(20.2244 0.0791656 -0.0048457)
(20.2121 0.100347 -0.00836595)
(20.2074 0.124182 -0.0131259)
(20.1929 0.149059 -0.0209589)
(20.2422 0.169782 -0.029608)
(20.1869 0.187711 -0.0364643)
(20.4924 0.1884 -0.0831254)
(19.9999 -0.00143423 0.000242998)
(19.9988 -0.00465722 0.00080519)
(19.9959 -0.00918743 0.00151147)
(19.9909 -0.0164716 0.00248313)
(19.9835 -0.0287407 0.00389888)
(19.9737 -0.0496538 0.00602238)
(19.9628 -0.0851056 0.00922153)
(19.9555 -0.143679 0.014026)
(19.9652 -0.234946 0.0208234)
(20.0144 -0.356598 0.0291975)
(20.1517 -0.488739 0.0364588)
(20.3683 -0.476172 0.038018)
(20.5333 -0.300941 0.0330608)
(20.5604 -0.107383 0.0218704)
(20.4888 0.0148932 0.0125562)
(20.3938 0.0542104 0.00732085)
(20.3281 0.0428208 0.00546335)
(20.3011 0.0265022 0.0051314)
(20.291 0.0217137 0.00434084)
(20.2813 0.0241205 0.00256176)
(20.27 0.0303053 0.000257986)
(20.2594 0.0412251 -0.00224107)
(20.2496 0.0580674 -0.00500312)
(20.2406 0.0807757 -0.00828736)
(20.2306 0.108911 -0.0128972)
(20.2274 0.141157 -0.0188583)
(20.212 0.175669 -0.0278613)
(20.2603 0.209397 -0.0389938)
(20.1948 0.234583 -0.0457068)
(20.5077 0.258114 -0.104818)
(19.9999 -0.00147115 0.000256116)
(19.9982 -0.00477549 0.000853852)
(19.994 -0.00946309 0.00162536)
(19.9865 -0.0171281 0.0027182)
(19.9746 -0.03037 0.00436682)
(19.9569 -0.0538015 0.00696096)
(19.933 -0.0957231 0.0111232)
(19.9052 -0.170389 0.0178285)
(19.89 -0.298211 0.0281978)
(19.92 -0.490525 0.0415958)
(20.1069 -0.731073 0.0536781)
(20.4399 -0.708669 0.0594678)
(20.6682 -0.428791 0.054182)
(20.6693 -0.139255 0.0383301)
(20.5384 0.0299333 0.02607)
(20.3944 0.0638744 0.0187002)
(20.3099 0.0350621 0.0179293)
(20.286 0.0157014 0.0203869)
(20.2823 0.0161013 0.0214545)
(20.2757 0.0223675 0.0204106)
(20.2671 0.0307821 0.0183598)
(20.2603 0.0454638 0.0158131)
(20.255 0.0695437 0.012547)
(20.2506 0.103155 0.00827576)
(20.2446 0.145279 0.0023502)
(20.2447 0.193831 -0.00522665)
(20.2307 0.246249 -0.0160802)
(20.2786 0.301842 -0.030929)
(20.2065 0.341838 -0.0387597)
(20.5238 0.3986 -0.116574)
(19.9998 -0.00137172 0.00026891)
(19.9976 -0.00444101 0.000901559)
(19.9921 -0.00882644 0.00173391)
(19.9819 -0.0161092 0.00296178)
(19.965 -0.029015 0.00487876)
(19.938 -0.052802 0.0080159)
(19.8965 -0.0979166 0.0133511)
(19.8382 -0.18635 0.0225551)
(19.7759 -0.355164 0.0375873)
(19.7632 -0.670045 0.0593889)
(20.0084 -1.09709 0.0733326)
(20.5306 -0.991739 0.0928369)
(20.8592 -0.571456 0.0974645)
(20.821 -0.182393 0.0752847)
(20.6 0.0488761 0.0693118)
(20.3874 0.0452852 0.0605714)
(20.2971 -0.0318747 0.0548728)
(20.2957 -0.0610571 0.0525939)
(20.3062 -0.0492359 0.0498138)
(20.303 -0.031719 0.0467273)
(20.2942 -0.0171275 0.0440015)
(20.2873 0.00059484 0.0402852)
(20.2836 0.0269105 0.0342492)
(20.2826 0.0637123 0.025385)
(20.2804 0.11168 0.0133353)
(20.2836 0.17056 -0.00134193)
(20.2714 0.239578 -0.0194718)
(20.3154 0.320364 -0.0422444)
(20.2423 0.388286 -0.0604461)
(20.5438 0.511033 -0.144546)
(19.9997 -0.00114239 0.000280003)
(19.997 -0.00366862 0.00094441)
(19.9903 -0.0072904 0.00182916)
(19.9776 -0.013365 0.00317132)
(19.9558 -0.0243891 0.00535166)
(19.9188 -0.045344 0.00912591)
(19.8563 -0.0877462 0.0157435)
(19.7549 -0.178386 0.0284331)
(19.6049 -0.379015 0.0467339)
(19.4821 -0.853048 0.0866853)
(19.7324 -1.20787 0.0251009)
(20.5758 -1.57584 0.00525948)
(21.2536 -0.80653 0.0707436)
(21.2089 -0.158834 0.0161573)
(20.7634 0.0151587 0.202)
(20.4229 -0.0417215 0.246131)
(20.2625 -0.195102 0.276066)
(20.1885 -0.255553 0.281052)
(20.0898 -0.244249 0.268402)
(19.9574 -0.213795 0.251101)
(19.8329 -0.178961 0.235518)
(19.7483 -0.134754 0.221008)
(19.7176 -0.0757602 0.205736)
(19.7459 0.000956731 0.188647)
(19.8209 0.095985 0.168379)
(19.9197 0.204615 0.14308)
(20.0106 0.324211 0.112222)
(20.1508 0.451824 0.0734041)
(20.1786 0.580439 0.0355096)
(20.5122 0.74299 -0.0601213)
(19.9997 -0.000804248 0.000288405)
(19.9966 -0.00252726 0.00097605)
(19.9889 -0.00497518 0.00190353)
(19.9742 -0.00908124 0.00333)
(19.9484 -0.0166568 0.00570104)
(19.9024 -0.0312405 0.0100391)
(19.8201 -0.0624675 0.0179571)
(19.6634 -0.132446 0.0343717)
(19.3901 -0.317139 0.057515)
(18.9359 -0.823231 0.105033)
(19.1122 -1.61062 -0.0105551)
(20.7618 -2.44994 0.120812)
(21.6875 -1.73643 0.318049)
(21.6931 -0.70202 0.203073)
(18.2651 -0.494089 0.747198)
(16.5531 -0.514883 0.611332)
(15.4217 -0.677866 0.499667)
(14.7816 -0.759559 0.382791)
(14.3437 -0.773371 0.269671)
(14.0085 -0.757326 0.18018)
(13.7799 -0.726388 0.117949)
(13.6662 -0.685257 0.0742625)
(13.6731 -0.634436 0.0406097)
(13.8106 -0.568444 0.0110033)
(14.1027 -0.47494 -0.0168422)
(14.6102 -0.339806 -0.0396925)
(15.2781 -0.159015 -0.0552628)
(16.112 0.0564708 -0.0709104)
(16.8073 0.303021 -0.0802869)
(18.0484 0.629981 -0.119277)
(19.9997 -0.000391835 0.000293128)
(19.9964 -0.00113858 0.000993396)
(19.9882 -0.00213967 0.00194263)
(19.9723 -0.00378228 0.00341317)
(19.9443 -0.00679181 0.00588528)
(19.8929 -0.0126311 0.0104716)
(19.798 -0.0253437 0.0190883)
(19.6016 -0.0543972 0.0384741)
(19.2113 -0.136682 0.0650165)
(18.3156 -0.38012 0.11803)
(17.8142 -1.20168 -0.211036)
(20.7717 -3.26983 -0.369123)
(23.059 -4.76694 0.56038)
(14.4718 -1.30049 0.399287)
(1.6531 -0.766052 -0.501417)
(3.21015 -1.04971 -0.678913)
(5.34697 -1.07556 -0.602376)
(7.08428 -0.999649 -0.525842)
(8.18417 -0.922082 -0.486515)
(8.88139 -0.850182 -0.456526)
(9.39728 -0.780801 -0.421196)
(9.82222 -0.717635 -0.384521)
(10.1909 -0.6617 -0.354286)
(10.5381 -0.606694 -0.335849)
(10.8969 -0.541426 -0.331497)
(11.3221 -0.45433 -0.33952)
(11.8271 -0.329375 -0.352096)
(12.5929 -0.160186 -0.361707)
(13.2375 0.0461607 -0.361834)
(14.9574 0.441288 -0.344849)
(19.9997 5.08702e-05 0.000293727)
(19.9964 0.00035417 0.000995092)
(19.9881 0.000922444 0.00194366)
(19.9722 0.00199158 0.00341266)
(19.944 0.00406204 0.00588282)
(19.8922 0.00831255 0.010487)
(19.7965 0.0180106 0.0191435)
(19.5982 0.0407091 0.0386447)
(19.2026 0.1085 0.0652642)
(18.2878 0.313908 0.12015)
(17.4327 0.504023 -0.271347)
(19.8278 0.366565 -0.605533)
(4.06514 -1.66167 -3.41058)
(10.6036 -1.33717 -0.460739)
(10.4814 -1.19076 -0.386235)
(10.8578 -0.961936 -0.346635)
(11.3583 -0.778379 -0.345233)
(11.6792 -0.655763 -0.358471)
(11.8622 -0.55898 -0.362416)
(11.9989 -0.471015 -0.347437)
(12.1054 -0.392194 -0.316729)
(12.1695 -0.325786 -0.278386)
(12.1916 -0.270972 -0.239856)
(12.1772 -0.223145 -0.20735)
(12.1627 -0.177675 -0.186121)
(12.1259 -0.12753 -0.180054)
(12.2735 -0.0525929 -0.193207)
(12.2038 -0.0160011 -0.209673)
(13.2537 0.310134 -0.279346)
(19.9997 0.000474903 0.000289839)
(19.9966 0.00177776 0.000983019)
(19.9887 0.00383629 0.00190986)
(19.9738 0.00744278 0.00332119)
(19.9475 0.014288 0.00570624)
(19.9005 0.0275609 0.0101112)
(19.816 0.0563815 0.0181547)
(19.6543 0.121536 0.0348514)
(19.3682 0.29713 0.0583231)
(18.8763 0.783905 0.108612)
(18.5169 1.54779 -0.0447956)
(20.5207 3.12759 -0.290193)
(23.2887 3.02751 0.123074)
(23.1877 -0.719764 -0.222078)
(18.8583 -0.644509 0.123664)
(18.0895 -0.479321 0.0391186)
(17.7627 -0.270379 -0.0174881)
(17.6161 -0.147675 -0.0472407)
(17.4338 -0.0906102 -0.0604758)
(17.2132 -0.0572475 -0.0614895)
(16.9892 -0.0290658 -0.0552318)
(16.7744 5.22675e-05 -0.0451597)
(16.5711 0.032925 -0.033926)
(16.3821 0.0700008 -0.0216553)
(16.1999 0.110428 -0.00801569)
(16.0212 0.152377 0.0068748)
(15.7955 0.187423 0.0264906)
(15.589 0.235203 0.0390674)
(15.2345 0.187417 0.0856369)
(14.9335 0.322428 0.0267052)
(19.9997 0.000836699 0.000282654)
(19.9969 0.00297912 0.000954109)
(19.99 0.00624663 0.0018458)
(19.9769 0.0118803 0.00319135)
(19.9543 0.0222701 0.00540755)
(19.916 0.0422518 0.0092693)
(19.8506 0.0831951 0.0160415)
(19.7431 0.171553 0.0290725)
(19.5798 0.369966 0.0478189)
(19.4258 0.844381 0.0898272)
(19.3851 1.34792 0.0336707)
(20.5523 2.12191 0.035493)
(21.6792 1.18342 0.097147)
(21.704 -0.00311083 0.0297986)
(20.891 -0.34358 0.0258547)
(20.4407 -0.27197 0.00076794)
(20.2893 -0.132347 -0.0176977)
(20.2796 -0.0562931 -0.0282399)
(20.2714 -0.0166636 -0.0365978)
(20.2412 0.0167445 -0.0430726)
(20.1986 0.0495526 -0.0470002)
(20.1447 0.0815102 -0.0474697)
(20.0759 0.11496 -0.0445741)
(19.9949 0.152226 -0.0391941)
(19.8983 0.195139 -0.032069)
(19.7878 0.245127 -0.0241388)
(19.6423 0.297333 -0.01042)
(19.469 0.358523 -0.000347212)
(19.2678 0.380622 0.040209)
(18.8101 0.440655 0.0410096)
(19.9998 0.00109804 0.000273219)
(19.9974 0.00383356 0.000914682)
(19.9916 0.0079289 0.00176106)
(19.981 0.0148862 0.00301377)
(19.9632 0.0273885 0.0049773)
(19.9347 0.0506773 0.00819546)
(19.8903 0.0953041 0.013688)
(19.8265 0.183648 0.0232086)
(19.753 0.355349 0.0388372)
(19.7224 0.67837 0.0614943)
(19.9401 1.14934 0.0755877)
(20.5042 1.13424 0.0831929)
(20.9547 0.676469 0.0570382)
(20.9805 0.165573 0.0192436)
(20.7089 -0.155679 -0.00836098)
(20.4277 -0.180081 -0.0292359)
(20.3087 -0.10809 -0.0393067)
(20.2994 -0.0557767 -0.0426665)
(20.3086 -0.0207869 -0.0443725)
(20.3113 0.0128203 -0.0456225)
(20.3166 0.0473473 -0.046213)
(20.3286 0.0831822 -0.0458953)
(20.3459 0.122775 -0.044928)
(20.3702 0.16677 -0.043911)
(20.3996 0.214301 -0.0429403)
(20.4403 0.263577 -0.0430206)
(20.4739 0.315664 -0.0413837)
(20.5261 0.364097 -0.0441406)
(20.5401 0.421518 -0.0299016)
(20.5779 0.466347 -0.0429496)
(19.9998 0.00123718 0.000261382)
(19.998 0.00426688 0.000871058)
(19.9935 0.00873141 0.00165956)
(19.9854 0.016176 0.00277937)
(19.9727 0.0291995 0.00447333)
(19.9536 0.0524954 0.00714995)
(19.9271 0.0946078 0.0114722)
(19.8948 0.170576 0.018457)
(19.8721 0.302661 0.0294154)
(19.8924 0.50683 0.0433394)
(20.0695 0.774728 0.0562836)
(20.4292 0.804406 0.0593262)
(20.7283 0.509706 0.0428765)
(20.772 0.14487 0.0183898)
(20.621 -0.0883072 -6.80633e-05)
(20.4448 -0.124285 -0.0105747)
(20.3542 -0.0734953 -0.0145275)
(20.3366 -0.0279134 -0.0159678)
(20.3376 0.00108931 -0.0174697)
(20.3363 0.0246805 -0.0189697)
(20.3372 0.0474088 -0.0197349)
(20.3449 0.0714015 -0.0194881)
(20.359 0.0996219 -0.0184625)
(20.3806 0.133298 -0.0170108)
(20.4076 0.172031 -0.0154729)
(20.4489 0.212889 -0.014857)
(20.4826 0.25898 -0.0130465)
(20.5624 0.296885 -0.0180059)
(20.5678 0.356083 -0.00812901)
(20.7823 0.37599 -0.0428588)
(19.9999 0.00124551 0.000249103)
(19.9986 0.0042559 0.000824791)
(19.9954 0.00862595 0.00154949)
(19.9898 0.0157795 0.0025497)
(19.9816 0.0279799 0.00401339)
(19.9705 0.0490043 0.0062197)
(19.9576 0.0850467 0.009564)
(19.947 0.145412 0.0146182)
(19.9521 0.241151 0.0218511)
(19.9965 0.372875 0.0307751)
(20.1321 0.523206 0.0386592)
(20.3665 0.54051 0.0392754)
(20.5749 0.363171 0.0301588)
(20.6336 0.128666 0.0145942)
(20.5584 -0.0265677 0.00171037)
(20.4473 -0.0662906 -0.00596228)
(20.377 -0.0444628 -0.00936976)
(20.3546 -0.01955 -0.0106536)
(20.3508 -0.00343995 -0.0111673)
(20.3498 0.0121254 -0.011133)
(20.3532 0.031226 -0.010529)
(20.364 0.0539679 -0.00952488)
(20.3808 0.0806586 -0.00824095)
(20.4043 0.111114 -0.00673087)
(20.4306 0.145171 -0.00493004)
(20.4703 0.180134 -0.003259)
(20.4949 0.220202 0.00151557)
(20.5723 0.251278 -0.00263915)
(20.5387 0.299141 0.0227478)
(20.7507 0.311414 -0.0245759)
(19.9999 0.00112785 0.000237615)
(19.9991 0.00382276 0.000781286)
(19.997 0.00768156 0.00145174)
(19.9936 0.0138964 0.00235198)
(19.9892 0.0242615 0.00362072)
(19.9843 0.0415704 0.00544087)
(19.9813 0.0699953 0.00804443)
(19.9847 0.114966 0.0117049)
(20.005 0.181335 0.0165648)
(20.0579 0.264925 0.0220302)
(20.1664 0.348841 0.0268606)
(20.3293 0.356328 0.0274061)
(20.4792 0.254427 0.0229673)
(20.5393 0.108397 0.0135012)
(20.5055 0.0016069 0.00466913)
(20.4353 -0.036785 -0.000915454)
(20.3831 -0.0302892 -0.00332329)
(20.362 -0.0143198 -0.00393649)
(20.3574 -0.000604036 -0.00393121)
(20.3579 0.0140929 -0.00373825)
(20.3632 0.0315748 -0.00339852)
(20.3752 0.0508038 -0.00293074)
(20.3932 0.0714544 -0.00226523)
(20.418 0.093729 -0.00118824)
(20.4451 0.118465 0.000524959)
(20.4865 0.143487 0.00239909)
(20.5084 0.172734 0.0086184)
(20.5887 0.193198 0.003521)
(20.5397 0.222654 0.0372628)
(20.7536 0.235584 -0.0214486)
(20 0.000901474 0.000227654)
(19.9995 0.00302558 0.00074422)
(19.9984 0.00602899 0.0013716)
(19.9967 0.0108058 0.0021923)
(19.9951 0.0186353 0.0033089)
(19.9948 0.0314009 0.0048419)
(19.9984 0.0516952 0.00692229)
(20.0104 0.0824832 0.00966202)
(20.0389 0.125512 0.0130229)
(20.0937 0.176326 0.0165232)
(20.1852 0.222538 0.0193835)
(20.308 0.22633 0.0196132)
(20.4221 0.168799 0.0167259)
(20.4784 0.0796526 0.0107069)
(20.4679 0.00929985 0.00465383)
(20.4245 -0.0199469 0.000576684)
(20.3866 -0.0187803 -0.0012929)
(20.3684 -0.00856052 -0.0018626)
(20.3637 0.00125001 -0.00198812)
(20.3649 0.0114564 -0.00196274)
(20.371 0.0231867 -0.00176172)
(20.3836 0.0358616 -0.00133816)
(20.4023 0.0494423 -0.000621417)
(20.4282 0.0643395 0.000547435)
(20.456 0.0814423 0.00250323)
(20.4986 0.0987263 0.0044598)
(20.5186 0.119053 0.0114764)
(20.5994 0.131977 0.00475977)
(20.5449 0.14864 0.0405821)
(20.758 0.163745 -0.0243965)
(20 0.000594878 0.000220502)
(19.9998 0.00196653 0.000718126)
(19.9993 0.00387514 0.00131526)
(19.9988 0.00687887 0.0020806)
(19.9991 0.0117413 0.00309393)
(20.0017 0.0195396 0.00443778)
(20.0094 0.0316636 0.00618728)
(20.0263 0.0495534 0.00837087)
(20.0588 0.0736553 0.0108664)
(20.1135 0.100952 0.0133043)
(20.1947 0.124154 0.015108)
(20.2955 0.125461 0.0152077)
(20.389 0.0955219 0.0130957)
(20.4418 0.0475382 0.00895203)
(20.4441 0.00818358 0.00454411)
(20.4167 -0.00930265 0.00133973)
(20.388 -0.00972409 -0.000307007)
(20.3721 -0.00434899 -0.000922249)
(20.3674 0.0011358 -0.00109557)
(20.369 0.00681081 -0.00105722)
(20.3756 0.0133874 -0.000805213)
(20.3887 0.0206571 -0.000304263)
(20.408 0.0286645 0.000471725)
(20.4347 0.0375956 0.00160459)
(20.463 0.0479892 0.00356523)
(20.5062 0.058011 0.00525196)
(20.5245 0.0701123 0.0125732)
(20.6041 0.0759016 0.0043996)
(20.5487 0.0850843 0.0397692)
(20.7542 0.0932356 -0.0274378)
(20 0.000212874 0.000216555)
(20 0.00069386 0.000704789)
(19.9998 0.00135289 0.00128775)
(19.9998 0.00238136 0.00202753)
(20.0011 0.00403358 0.00299323)
(20.0052 0.00665964 0.00425048)
(20.0147 0.0106929 0.00584826)
(20.0339 0.0165645 0.00777483)
(20.0681 0.0243272 0.0098848)
(20.1223 0.0329352 0.0118601)
(20.1986 0.0399876 0.0132355)
(20.2897 0.0402488 0.013287)
(20.3739 0.0309571 0.0115045)
(20.4249 0.0159275 0.00819849)
(20.4329 0.00337528 0.00457621)
(20.4129 -0.00239542 0.00180852)
(20.3888 -0.00272589 0.000285403)
(20.3744 -0.001071 -0.000329181)
(20.3701 0.00072218 -0.000507521)
(20.3721 0.0026156 -0.000465637)
(20.3794 0.0048435 -0.000214974)
(20.3931 0.00735511 0.000269228)
(20.413 0.0101777 0.00102383)
(20.4407 0.0133287 0.0020684)
(20.4694 0.0170045 0.004025)
(20.5134 0.0203514 0.00539346)
(20.5309 0.0246569 0.0133859)
(20.6106 0.0259824 0.00369098)
(20.5553 0.0298869 0.0413847)
(20.7565 0.0309902 -0.0295199)
(20.0001 -0.000218265 0.000634131)
(20.0002 -0.000696879 0.00200614)
(20.0005 -0.00134803 0.00361381)
(20.0011 -0.00235069 0.00563998)
(20.0031 -0.00394031 0.00827834)
(20.0081 -0.00643204 0.0117185)
(20.0187 -0.0101995 0.0160858)
(20.0385 -0.0155563 0.0214016)
(20.0725 -0.0224621 0.0273411)
(20.1247 -0.0298208 0.0329214)
(20.1955 -0.0351886 0.0366106)
(20.2765 -0.0340302 0.0364851)
(20.3466 -0.0247154 0.0316283)
(20.384 -0.0119044 0.0234099)
(20.3847 -0.00179518 0.0150209)
(20.3623 0.00330162 0.00898129)
(20.3349 0.00455308 0.00555546)
(20.3122 0.00443415 0.00369817)
(20.2945 0.00453136 0.00227155)
(20.2784 0.00515991 0.000424963)
(20.2621 0.00627325 -0.00235659)
(20.2453 0.0079316 -0.00639859)
(20.2281 0.0101964 -0.0121286)
(20.211 0.0130574 -0.0197975)
(20.1951 0.016447 -0.0305073)
(20.1852 0.0200619 -0.0435693)
(20.1748 0.0234926 -0.0677916)
(20.2317 0.0265632 -0.0913271)
(20.1759 0.0256965 -0.128601)
(20.5168 0.028811 -0.227507)
(20 -0.00063182 0.00064416)
(20.0001 -0.00202283 0.00204191)
(20 -0.00392422 0.00368982)
(20.0001 -0.00686495 0.00578688)
(20.0012 -0.0115544 0.00855447)
(20.0049 -0.0189659 0.0122262)
(20.0138 -0.0303063 0.0169968)
(20.0318 -0.0466437 0.0229647)
(20.0646 -0.0681133 0.0298821)
(20.1177 -0.0914737 0.0367245)
(20.1935 -0.109308 0.0416964)
(20.2833 -0.10601 0.0420651)
(20.3605 -0.0759389 0.0364555)
(20.3982 -0.035186 0.0267882)
(20.3938 -0.00373363 0.017212)
(20.3657 0.0114685 0.0106808)
(20.3346 0.0145376 0.00723555)
(20.3108 0.0137001 0.00551544)
(20.2931 0.0138265 0.00422684)
(20.2774 0.0154822 0.00260108)
(20.2615 0.0183224 0.000264721)
(20.2454 0.0226077 -0.00315951)
(20.229 0.0286521 -0.00831979)
(20.2128 0.0365737 -0.0156484)
(20.1974 0.0461899 -0.0262148)
(20.1878 0.0565345 -0.0392452)
(20.1773 0.0664037 -0.0626231)
(20.2283 0.0756038 -0.0853128)
(20.1762 0.0754475 -0.12058)
(20.5065 0.0838561 -0.227699)
(20 -0.000988543 0.000665399)
(19.9998 -0.00317418 0.00211773)
(19.9991 -0.00618317 0.00385076)
(19.9981 -0.0108764 0.00609804)
(19.9974 -0.0184496 0.00914001)
(19.9984 -0.0306126 0.0133072)
(20.0036 -0.0496545 0.018955)
(20.0175 -0.0778771 0.0263577)
(20.0473 -0.116352 0.0354504)
(20.1016 -0.160102 0.0452392)
(20.1881 -0.196417 0.0531968)
(20.2979 -0.191172 0.0545874)
(20.3908 -0.133749 0.0471457)
(20.429 -0.0590887 0.0343837)
(20.414 -0.00351062 0.0223274)
(20.3742 0.0215709 0.0147822)
(20.3367 0.0245646 0.0113366)
(20.3118 0.0216552 0.00988604)
(20.2952 0.0215131 0.00840646)
(20.2804 0.0242219 0.00606733)
(20.2654 0.0286029 0.00298535)
(20.2505 0.0349824 -0.000826839)
(20.2354 0.0441075 -0.00603357)
(20.2206 0.0561709 -0.013353)
(20.2061 0.0711315 -0.0242493)
(20.1965 0.0874414 -0.0380727)
(20.1855 0.103495 -0.06223)
(20.2337 0.119632 -0.0864063)
(20.1752 0.120635 -0.119548)
(20.5207 0.142441 -0.247918)
(20 -0.00126337 0.000694494)
(19.9994 -0.00406366 0.00222266)
(19.9978 -0.00794884 0.00407549)
(19.9951 -0.0140827 0.00653838)
(19.9917 -0.0241542 0.00998445)
(19.9886 -0.0407166 0.014902)
(19.9878 -0.0675039 0.0219292)
(19.9943 -0.108931 0.031697)
(20.0178 -0.168648 0.0445934)
(20.0721 -0.241394 0.0598117)
(20.1766 -0.309107 0.0729065)
(20.3229 -0.300032 0.0759426)
(20.4425 -0.199829 0.0653694)
(20.4794 -0.080815 0.0473671)
(20.4454 0.00211245 0.0314603)
(20.386 0.0354859 0.0224685)
(20.3383 0.0349912 0.0193665)
(20.3126 0.0278336 0.0190059)
(20.2984 0.0266347 0.0180688)
(20.2853 0.0303929 0.0152793)
(20.2715 0.0369939 0.0111825)
(20.2581 0.0467325 0.00637001)
(20.2449 0.0603467 0.000547807)
(20.2319 0.078054 -0.0070727)
(20.2189 0.0997589 -0.0184684)
(20.2098 0.123472 -0.0331842)
(20.1981 0.147869 -0.0586697)
(20.2435 0.173331 -0.0855681)
(20.1757 0.175143 -0.117658)
(20.5421 0.22153 -0.274445)
(19.9999 -0.0014282 0.000730135)
(19.9989 -0.00459799 0.00234605)
(19.9961 -0.00903583 0.004344)
(19.9913 -0.016144 0.00707875)
(19.9844 -0.0280759 0.0110474)
(19.9754 -0.0483192 0.0169745)
(19.9658 -0.0824839 0.0259552)
(19.96 -0.138453 0.039265)
(19.9711 -0.225341 0.0583121)
(20.0204 -0.341439 0.0822583)
(20.1544 -0.466722 0.104316)
(20.3662 -0.452776 0.111203)
(20.5268 -0.279618 0.0962496)
(20.5553 -0.0953162 0.0695129)
(20.4893 0.0214888 0.0476068)
(20.3999 0.0579257 0.036169)
(20.3383 0.0477296 0.0335532)
(20.3131 0.034326 0.0339682)
(20.3032 0.0311756 0.0320638)
(20.293 0.033968 0.0269699)
(20.2815 0.0402362 0.0202487)
(20.2705 0.0512444 0.0129124)
(20.26 0.0680501 0.00472618)
(20.2496 0.0905592 -0.00502547)
(20.2385 0.118612 -0.0185242)
(20.2304 0.149722 -0.0353991)
(20.2182 0.183962 -0.0634168)
(20.2592 0.220561 -0.0945705)
(20.1814 0.223973 -0.12922)
(20.5658 0.308676 -0.31876)
(19.9999 -0.00146493 0.00076855)
(19.9983 -0.0047087 0.00248091)
(19.9943 -0.00930017 0.00462572)
(19.9871 -0.0167786 0.00765977)
(19.9758 -0.0296272 0.0122436)
(19.9593 -0.0522564 0.0194204)
(19.9372 -0.092508 0.0309524)
(19.9122 -0.163659 0.0493706)
(19.8997 -0.284912 0.0774557)
(19.93 -0.467466 0.11548)
(20.1133 -0.704119 0.1552)
(20.4401 -0.669629 0.172946)
(20.6626 -0.387622 0.152023)
(20.6657 -0.110971 0.112387)
(20.5439 0.0601057 0.0842387)
(20.409 0.0899936 0.0681874)
(20.332 0.0571376 0.0667093)
(20.311 0.0353975 0.0703204)
(20.3068 0.0336239 0.0691661)
(20.2996 0.0387533 0.0628899)
(20.2909 0.0474449 0.0546076)
(20.2836 0.0623271 0.0453838)
(20.2768 0.0849885 0.0347851)
(20.27 0.115169 0.0220026)
(20.2616 0.152551 0.00528265)
(20.2557 0.194018 -0.0153213)
(20.2435 0.241681 -0.0471921)
(20.2805 0.292282 -0.0833822)
(20.1947 0.299108 -0.127764)
(20.5839 0.420438 -0.362038)
(19.9998 -0.00136488 0.000805304)
(19.9977 -0.00437877 0.0026162)
(19.9924 -0.00865956 0.00491161)
(19.9826 -0.0157677 0.00821347)
(19.9666 -0.0282964 0.0134307)
(19.9412 -0.0511745 0.0220104)
(19.9025 -0.0942762 0.036669)
(19.8485 -0.178236 0.0619284)
(19.7917 -0.338184 0.103171)
(19.7781 -0.639411 0.163659)
(20.0212 -1.08412 0.23552)
(20.5422 -0.913591 0.28527)
(20.8568 -0.493158 0.268492)
(20.8232 -0.128661 0.213474)
(20.6119 0.130655 0.189432)
(20.4031 0.150162 0.170792)
(20.3129 0.0815303 0.161561)
(20.3082 0.0444831 0.152841)
(20.3158 0.0408406 0.137912)
(20.3131 0.045252 0.12151)
(20.308 0.0519108 0.106931)
(20.3056 0.0644867 0.0924565)
(20.304 0.0859187 0.0753711)
(20.3017 0.116897 0.0545681)
(20.2969 0.158004 0.029005)
(20.2949 0.207406 -0.000771447)
(20.2822 0.269202 -0.0425398)
(20.3194 0.341176 -0.0906077)
(20.2309 0.382485 -0.149186)
(20.5783 0.547292 -0.40182)
(19.9997 -0.00113608 0.000837897)
(19.9971 -0.00361297 0.00273339)
(19.9906 -0.00715222 0.00518319)
(19.9785 -0.0130493 0.00873705)
(19.9578 -0.0237494 0.0144787)
(19.9229 -0.0440281 0.0241908)
(19.8643 -0.0844106 0.0421635)
(19.7691 -0.170457 0.0753686)
(19.6284 -0.358157 0.133901)
(19.4925 -0.839528 0.228348)
(19.6087 -1.42828 0.256328)
(20.4968 -1.83369 0.325267)
(21.1042 -0.841871 0.507535)
(21.0196 -0.300053 0.459375)
(20.6769 0.250259 0.544627)
(20.3469 0.204485 0.551538)
(20.2426 0.0788453 0.56938)
(20.2612 0.0227254 0.554454)
(20.2743 0.0214873 0.511937)
(20.2583 0.0387476 0.466203)
(20.2344 0.0636325 0.426509)
(20.2182 0.0968281 0.387101)
(20.211 0.138547 0.342512)
(20.2118 0.187355 0.290984)
(20.2157 0.242898 0.231593)
(20.2245 0.304704 0.164785)
(20.216 0.379271 0.0872891)
(20.255 0.469075 -0.00075095)
(20.1517 0.563326 -0.0898039)
(20.4068 0.739613 -0.337497)
(19.9997 -0.000798281 0.000862581)
(19.9967 -0.00248622 0.00282186)
(19.9893 -0.00487319 0.00538053)
(19.9753 -0.00886789 0.0091756)
(19.9508 -0.0161997 0.0153718)
(19.9075 -0.0301139 0.0259741)
(19.8303 -0.0598624 0.0465661)
(19.6829 -0.12651 0.0866221)
(19.4161 -0.30089 0.162135)
(18.8882 -0.821891 0.303644)
(18.7212 -2.0272 0.285066)
(20.3675 -3.39355 0.152717)
(21.3877 -1.40342 1.27796)
(21.1661 -0.820072 1.41533)
(18.6386 1.03804 1.20207)
(18.0746 0.743511 1.07324)
(17.7464 0.450422 1.02711)
(17.5566 0.286736 0.929451)
(17.3622 0.210968 0.787668)
(17.1718 0.178818 0.651397)
(17.0372 0.173065 0.537414)
(16.9938 0.188349 0.437182)
(17.0523 0.221517 0.341842)
(17.2093 0.271553 0.245932)
(17.4374 0.338149 0.148972)
(17.695 0.417073 0.0536198)
(17.93 0.512961 -0.0384294)
(18.2255 0.624543 -0.12633)
(18.3414 0.766137 -0.192419)
(18.9381 0.94955 -0.361709)
(19.9997 -0.000386624 0.000876372)
(19.9965 -0.00111308 0.00287341)
(19.9886 -0.00208214 0.00549198)
(19.9734 -0.00366768 0.00941979)
(19.9467 -0.00654673 0.0159363)
(19.8985 -0.0121051 0.0273828)
(19.8097 -0.0240393 0.0496205)
(19.6262 -0.0502405 0.0939708)
(19.2345 -0.128989 0.17956)
(18.1285 -0.388066 0.347246)
(16.2837 -1.6397 0.0203077)
(19.6205 -11.4775 -4.19413)
(13.189 -7.81185 10.0072)
(10.3781 -1.91601 -2.1704)
(8.22537 2.34227 -0.436284)
(9.47147 1.82281 -0.524127)
(10.7082 1.34889 -0.468215)
(11.7672 1.02776 -0.446649)
(12.4867 0.807881 -0.457899)
(12.9585 0.653925 -0.459984)
(13.3075 0.545955 -0.442463)
(13.6033 0.46983 -0.417623)
(13.8813 0.417543 -0.396128)
(14.166 0.389624 -0.382854)
(14.467 0.390796 -0.380473)
(14.798 0.421439 -0.389345)
(15.1305 0.487518 -0.408597)
(15.5808 0.583849 -0.432853)
(15.8232 0.713161 -0.440294)
(16.7814 0.920595 -0.510769)
(19.9997 5.47674e-05 0.000878271)
(19.9965 0.000361909 0.00287932)
(19.9885 0.000920863 0.00550907)
(19.9733 0.00195109 0.00944585)
(19.9465 0.0039761 0.0159144)
(19.8979 0.00807422 0.0272798)
(19.8083 0.0171796 0.049585)
(19.6229 0.0372764 0.0940934)
(19.2263 0.102214 0.180144)
(18.1035 0.324919 0.35022)
(15.6341 0.742488 -0.0772195)
(-0.54415 0.325276 -2.02489)
(1.03025 0.0953707 -1.46353)
(4.09132 0.122904 -1.18091)
(6.6932 0.201057 -0.95712)
(8.56119 0.240012 -0.851253)
(9.77091 0.248044 -0.791022)
(10.5805 0.254356 -0.725578)
(11.1802 0.263782 -0.647332)
(11.6581 0.27251 -0.566236)
(12.0582 0.27684 -0.491925)
(12.4144 0.280027 -0.429829)
(12.745 0.28857 -0.383915)
(13.0793 0.306668 -0.355924)
(13.3904 0.344244 -0.346315)
(13.8293 0.407653 -0.351836)
(14.0146 0.464797 -0.338331)
(15.0265 0.677289 -0.429764)
(19.9997 0.000478826 0.000868872)
(19.9966 0.00176115 0.00283304)
(19.9891 0.00380997 0.00543518)
(19.9748 0.0073518 0.00925601)
(19.9499 0.0139613 0.0154435)
(19.9057 0.0265963 0.0260755)
(19.8265 0.054024 0.0469338)
(19.6742 0.116089 0.0874685)
(19.3952 0.28169 0.16448)
(18.8313 0.783328 0.309911)
(17.7783 2.03524 0.220627)
(18.6365 9.61495 -3.28439)
(10.7927 5.73024 4.37501)
(1.99373 0.742782 0.266052)
(13.771 -0.97769 -0.0095897)
(13.2756 -0.699752 -0.180545)
(13.1947 -0.37686 -0.221448)
(13.3042 -0.177937 -0.22831)
(13.3801 -0.0714392 -0.230098)
(13.4361 -0.00401529 -0.221149)
(13.5067 0.0486736 -0.203415)
(13.6058 0.0949187 -0.179345)
(13.7162 0.137853 -0.154272)
(13.8391 0.177863 -0.12937)
(13.9651 0.215837 -0.106106)
(14.1002 0.252255 -0.0851677)
(14.1928 0.287463 -0.062907)
(14.3734 0.33351 -0.0533893)
(14.305 0.321549 0.014555)
(14.8351 0.45579 -0.0987445)
(19.9997 0.00084043 0.000849661)
(19.997 0.00295868 0.00275837)
(19.9903 0.00615005 0.00525711)