/*--------------------------------*- C++ -*----------------------------------*\
| =========                 |                                                 |
| \\      /  F ield         | OpenFOAM: The Open Source CFD Toolbox           |
|  \\    /   O peration     | Version:  2512                                  |
|   \\  /    A nd           | Website:  www.openfoam.com                      |
|    \\/     M anipulation  |                                                 |
\*---------------------------------------------------------------------------*/
FoamFile
{
    version     2.0;
    format      ascii;
    arch        "LSB;label=32;scalar=64";
    class       volScalarField;
    location    "40";
    object      k;
}
// * * * * * * * * * * * * * * * * * * * * * * * * * * * * * * * * * * * * * //

dimensions      [0 2 -2 0 0 0 0];

internalField   nonuniform List<scalar> 
90398
(
58.4195
212.825
300.822
293.299
251.97
212.867
170.9
117.38
123.008
136.641
127.498
102.384
77.19
58.5281
44.5836
34.4944
27.16
21.6508
17.5497
14.6183
12.9765
12.5147
12.5457
12.4917
12.4122
12.2806
11.6982
10.7315
9.81733
8.91315
75.6068
168.134
178.003
166.602
152.894
154.701
193.232
230.049
291.392
310.031
276.702
222.683
167.366
125.541
93.601
70.6482
53.6046
41.1896
31.9396
24.8926
20.5046
19.0765
19.4545
20.1071
20.48
20.2236
19.3772
18.3224
17.3979
15.9136
98.5842
140.518
125.592
122.672
179.704
245.103
305.755
381.943
434.746
439.518
409.8
359.724
299.352
237.04
178.902
130.744
94.8415
70.2932
52.9821
39.9491
31.1947
27.2389
27.2703
28.8279
30.1571
29.7362
28.4659
27.128
25.9846
24.1046
111.729
130.166
115.267
174.087
242.523
293.646
342.855
391.395
412.249
393.474
357.445
321.587
289.313
256.675
220.043
179.374
140.909
108.68
83.6868
63.4866
47.1358
37.7089
35.3883
35.7327
35.8492
35.3276
34.5126
33.4284
32.1237
29.379
123.102
119.617
121.487
199.32
246.429
281.004
306.34
321.362
322.332
310.194
281.916
258.094
241.077
221.658
199.21
173.05
147.787
123.686
102.01
82.0917
64.7815
52.1207
45.7558
43.2064
41.7832
40.809
40.1314
39.0569
37.1623
33.6381
120.294
110.039
166.465
234.272
259.338
267.067
260.628
245.73
234.07
224.182
205.927
193.553
191.376
180.482
165.055
146.905
128.936
113.311
99.7989
86.4597
73.3369
62.1291
54.5221
49.7197
46.7193
44.9503
43.7952
42.1215
39.3114
35.1125
103.668
105.12
218.334
287.296
320.901
337.259
340.315
326.998
283.038
179.392
144.123
137.778
146.097
141.913
130.366
117.176
106.211
96.9835
88.9795
81.2447
73.3543
65.5372
58.3143
51.8684
46.7816
43.092
40.1839
37.1632
33.6583
29.6718
81.5129
95.4493
230.084
315.465
357.578
382.111
397.919
411.655
445.282
423.035
128.321
166.187
102.453
106.453
98.525
89.0659
84.9045
82.1188
78.4887
73.9773
68.3146
61.2849
53.1062
45.0669
38.3218
33.0314
29.0854
26.058
23.1205
19.8325
58.3432
82.3987
224.285
338.281
389.324
419.856
426.872
412.695
484.058
727.093
185.179
295.816
53.5686
67.9047
75.7302
69.1575
67.931
69.7575
69.1995
65.7731
59.8098
51.2324
41.5069
33.0966
27.0083
23.1819
20.9992
19.3598
17.6175
16.1641
40.6079
69.3437
221.676
360.519
425.193
464.016
452.826
415.642
388.575
808.191
230.777
265.406
153.558
84.0263
142.518
58.1778
55.5757
58.7171
60.0244
55.8978
48.3891
38.7851
29.9962
23.9822
20.5894
18.8741
17.8185
16.7996
15.856
15.3467
40.4954
61.8051
180.527
351.597
446.882
519.571
516.648
480.249
569.76
976.315
127.472
73.8879
327.527
229.706
115.142
45.4986
48.7145
50.5395
45.4448
37.4081
29.1028
23.248
20.1078
18.5852
17.742
17.0678
16.4705
16.0829
16.0427
81.0373
79.4186
123.387
268.662
410.305
520.911
594.692
603.094
421.984
458.159
189.106
91.5631
58.027
180.188
192.027
118.763
38.8988
41.0442
41.7475
36.4344
29.4767
23.7823
20.591
19.1692
18.5124
18.1115
17.7854
17.5378
17.4292
17.5175
161.356
180.879
146.978
160.99
315.294
476.558
550.69
631.506
653.493
437.669
205.571
113.349
68.4318
93.4115
136.315
83.199
34.2597
34.948
34.4923
29.7068
24.6736
21.3619
19.9022
19.4483
19.3659
19.3788
19.3743
19.3293
19.2749
19.3007
205.75
240.556
212.81
193.115
264.037
489.499
600.383
715.896
699.396
531.762
219.284
87.6819
62.2654
68.0093
90.5626
53.6061
30.36
29.9419
28.657
24.7947
21.4706
19.6446
18.9991
18.8855
18.9561
19.0636
19.0984
18.9737
18.6804
18.3498
253.47
222.743
196.308
224.682
496.39
731.632
921.943
830.096
659.126
446.192
180.765
69.3967
48.0409
54.9052
57.7734
37.0913
26.6463
25.4773
23.6689
20.8553
18.7685
17.6616
17.1673
16.9468
16.8454
16.799
16.7315
16.5597
16.2576
15.8198
350.533
321.466
300.55
448.104
1039.75
1294.79
953.466
685.256
515.563
330.119
136.705
50.5475
39.0287
40.8898
37.7136
27.7428
23.043
21.5937
19.7935
17.8024
16.26
15.2464
14.5918
14.1581
13.9218
13.8847
13.9488
13.9187
13.6741
13.2554
429.948
410.658
371.995
591.724
1420.11
1013.74
713.686
532.559
387.489
241.06
96.4668
34.8838
29.8306
29.1848
26.2494
21.8734
19.538
18.1247
16.5975
15.1788
14.2031
13.7293
13.5657
13.451
13.1078
12.5181
11.8672
11.4568
11.1571
10.8178
446.87
499.612
421.412
579.528
877.773
679.634
531.941
407.339
292.845
171.08
54.8475
24.1726
22.1392
21.2511
19.7874
18.1858
17.2335
16.6949
16.5365
16.8809
17.4716
18.0236
18.3863
18.4435
18.1621
17.4269
16.2368
14.789
13.4979
12.4615
385.456
470.15
410.602
391.906
530.348
393.434
352.926
298.422
206.764
85.3616
22.7094
20.0735
19.8341
19.7496
19.5954
19.6235
19.9013
20.4004
20.9787
21.535
22.1403
22.7999
23.4033
23.8252
23.9804
23.8378
23.4835
22.9855
22.0986
21.4158
328.12
487.623
473.974
379.299
339.888
237.198
187.964
193.621
115.833
33.2565
23.3062
23.0389
23.5739
24.0773
24.2611
24.4275
24.5745
24.8054
25.1115
25.4551
25.8019
26.0799
26.211
26.0814
25.5992
24.7769
23.8208
22.9965
22.1229
21.168
146.584
392.388
510.316
483.725
459.937
520.621
502.415
341.592
306.26
303.155
254.725
190.052
138.589
104.758
81.537
65.904
54.9558
45.9026
37.8588
31.1499
27.2467
27.0678
28.339
28.255
26.6004
24.3121
21.5907
19.062
17.6266
17.34
178.181
336.122
357.456
399.488
609.088
690.687
667.729
667.315
689.477
659.176
589.145
490.124
380.574
283.352
206.819
152.774
118.176
95.1232
76.4509
60.9736
50.0226
45.6982
46.1797
46.9608
46.096
44.1727
41.3156
37.9664
34.3529
30.417
217.444
319.783
446.877
589.055
614.185
679.181
772.964
831.797
835.166
792.485
720.995
640.501
559.475
480.32
398.11
315.931
243.791
188.461
144.505
110.146
85.3491
72.8603
70.1399
70.2698
68.5123
64.9712
60.8361
56.4326
52.194
47.0088
236.039
356.94
487.426
503.044
546.107
623.17
707.994
762.672
756.999
692.765
607.34
538.094
490.847
451.182
409.725
364.851
318.502
266.367
216.567
170.6
131.657
106.089
93.2546
85.8237
80.3202
75.8763
71.7959
67.112
61.7881
54.0601
256.952
433.878
438.491
451.892
475.803
500.141
529.372
566.399
579.376
529.518
460.704
410.506
384.317
367.048
351.025
328.805
301.847
270.305
238.074
202.06
166.144
136.116
115.496
101.964
92.8151
86.9759
82.8497
78.102
71.7531
62.5614
257.355
420.044
406.11
416.305
413.101
392.763
373.899
364.707
361.062
353.555
326.137
306.025
296.141
288.444
283.138
275.559
261.903
242.699
219.673
195.336
171.138
147.736
128.478
112.857
101.353
94.3835
90.354
85.7408
79.1042
69.5295
235.918
375.504
401.182
435.057
451.533
424.051
362.19
311.215
271.357
228.224
210.083
214.635
234.045
233.666
230.245
226.999
221.297
210.111
194.145
176.25
159.215
144.487
130.645
115.324
102.546
94.6772
89.9085
84.7799
78.3113
70.2869
207.42
320.411
404.873
497.657
608.208
620.802
508.91
381.314
278.045
218.54
156.656
164.211
178.266
195.778
194.884
191.999
188.659
181.066
169.752
156.592
144.496
133.986
121.367
106.124
92.8866
83.604
77.0434
70.5084
62.955
53.4221
182.383
263.757
401.652
568.536
824.814
881.096
740.681
608.387
358.35
177.559
92.8106
105.467
114.858
141.708
169.582
162.428
161.785
157.354
148.592
138.379
128.28
116.649
100.995
84.6957
71.7682
62.2467
54.5342
46.8799
39.2917
32.432
162.443
222.948
378.45
624.644
1070.9
1227.01
997.851
773.823
465.754
279.8
84.9648
9.55707
11.82
102.007
141.792
126.12
132.418
136.574
129.415
119.581
107.724
92.933
76.0332
61.5384
51.0608
43.2685
36.8412
31.1501
26.6008
23.5551
159.191
203.344
294.983
556.984
1031.47
1454.98
1232.13
917.2
488.573
525.664
56.383
167.002
116.213
103.238
116.074
110.089
98.633
84.5333
69.0133
54.67
44.0879
36.81
31.412
27.1457
23.8574
21.6979
20.5945
281.887
279.345
285.501
481.094
842.681
1421.41
1417.38
1240.15
962.416
861.471
471.809
94.4086
27.3429
57.5432
167.098
112.544
84.1044
96.3603
90.2254
77.4002
63.2315
50.3995
40.3283
33.8577
29.7737
27.0308
25.1166
23.8478
23.1589
22.8923
483.734
533.016
447.655
479.277
717.667
1173.01
1417.11
1414.06
1274.52
1012.7
554.972
146.208
88.2073
115.211
145.001
95.6501
71.2489
79.2292
71.2643
58.8722
47.4518
38.8692
33.3272
30.5999
29.5002
29.1581
29.1016
29.1288
29.1672
29.1593
627.226
665.854
587.452
608.364
791.588
1151.27
1624.73
1727.62
1509.16
1141.46
463.003
138.776
95.2383
111.086
114.32
75.6211
61.5159
63.7475
55.106
44.9374
36.927
31.8663
29.3771
28.6826
28.8163
29.1849
29.3847
29.1493
28.4211
27.3949
777.49
754.735
742.268
884.886
1250.97
1793.64
2445.04
2055.59
1556.79
963.508
308.527
104.809
86.0455
90.6774
83.1908
59.3743
52.0522
49.6542
41.5836
33.7401
28.4346
25.5705
24.2125
23.6576
23.4854
23.5808
23.8401
23.9207
23.0919
21.7791
919.613
911.487
882.747
1280.53
2951.06
2772.75
2363.95
1876.06
1330.79
687.966
197.538
79.1262
69.1189
67.439
59.0222
46.6776
41.7766
37.6991
31.7924
27.0063
24.2087
22.7324
21.7972
21.0238
20.3168
19.6904
19.2014
18.8587
18.7164
18.5238
995.743
1168.5
1214.49
2495.48
2824.83
2424.8
1855.54
1416.16
965.589
434.21
119.75
57.3673
51.0623
47.7735
42.2549
36.3968
33.083
29.9869
26.7305
24.3969
23.1375
22.5655
22.3905
22.4337
22.4335
22.1053
21.3914
20.8222
20.9823
21.5411
985.783
1272.56
1626.84
2200.94
2242.03
1680.45
1274.42
974.876
626.815
247.831
67.2963
40.9688
36.8928
34.5068
32.1618
29.9209
28.3176
26.8298
25.6221
25.1929
25.6879
27.0197
29.2303
31.7359
33.6632
34.6521
34.7228
34.4439
34.774
36.1891
840.479
1042.62
1066.67
1442.39
1433.91
1055.38
851.224
648.467
373.665
106.34
35.9572
30.535
28.7873
28.6675
28.5742
28.2552
28.0828
28.1308
28.7399
30.0872
32.1215
34.7809
37.465
39.753
41.5887
42.8771
43.6364
43.7196
42.7559
40.2325
698.583
989.605
938.167
1100.58
967.288
568.682
537.932
457.052
228.573
58.4743
32.0601
28.4189
28.8235
30.1068
31.1795
31.8981
32.76
33.7584
34.9907
36.4838
38.2405
40.012
41.6511
42.827
43.2496
42.8401
41.8564
40.6042
39.9189
36.9382
179.626
512.055
716.973
759.835
779.418
772.306
605.157
518.312
514.486
491.409
404.378
302.935
223.688
163.26
119.642
91.7873
76.2166
65.8698
57.4392
49.8882
44.5864
42.6339
42.3496
41.2855
38.1256
33.9807
29.5759
25.6622
22.5135
19.4322
218.942
520.882
718.012
830.964
859.885
876.569
912.416
964.699
970.968
929.166
832.94
705.656
571.479
449.234
342.073
254.099
187.678
144.436
117.702
98.7234
84.8912
77.9798
75.9219
74.5804
71.3038
66.4816
60.4708
54.5124
49.2501
42.3629
277.932
611.128
648.924
681.615
735.398
851.363
958.423
1030.79
1060.86
1006.78
896.672
779.219
676.735
587.57
503.521
423.061
349.656
283.043
226.247
181.174
144.36
121.513
109.137
101.498
94.5541
88.2049
81.8616
75.6425
69.8415
62.9277
328.121
559.611
533.995
561.597
661.123
764.395
851.881
931.126
948.499
865.424
734.495
620.652
549.379
502.267
461.826
420.432
377.008
334.311
295.107
253.093
209.695
170.294
141.612
122.717
110.076
100.902
93.1963
85.8692
78.9356
70.3509
385.817
502.898
483.848
520.141
586.101
651.414
711.364
770.021
771.505
683.835
562.434
470.27
418.963
392.369
373.861
353.117
328.921
301.963
276.23
250.675
224
194.359
165.763
144.228
128.459
117.304
108.652
100.3
91.7416
81.2472
389.131
472.006
462.109
501.809
541.964
559.723
567.46
566.797
535.292
471.039
390.214
339.083
317.641
303.869
296.008
286.666
272.917
255.872
238.474
221.651
204.238
187.66
172.072
156.894
142.447
130.848
122.645
114.507
105.315
93.8066
367.153
461.893
483.007
566.727
620.464
590.416
518.899
445.293
373.246
305.644
260.503
249.934
255.91
252.086
245.592
237.417
227.959
216.602
204.822
193.695
182.773
174.701
170.858
162.925
148.919
136.831
128.426
119.845
109.997
97.5394
317.008
439.323
515.323
706.896
870.258
849.161
740.268
607.012
450.356
316.208
183.343
175.44
192.157
211.563
238.521
220.921
204.85
191.525
181.031
172.5
166.485
166.454
168.616
160.628
144.898
130.929
120.074
108.457
94.9535
78.0342
273.041
369.541
477.88
762.743
1130.58
1187.99
1088.52
980.03
658.589
455.03
206.315
103.466
118.882
164.956
263.047
225.808
198.99
178.757
165.431
157.738
156.374
159.943
156.113
139.951
121.667
106.871
93.6368
79.5577
65.1261
51.6003
244.056
307.387
389.466
658.977
1048.96
1365.27
1343.75
1265.59
995.5
677.1
412.153
45.4536
44.1427
112.599
275.213
214.972
192.169
168.125
153.359
146.984
146.803
143.331
127.417
106.334
88.7075
74.6076
61.8784
50.0504
40.1099
32.6674
246.169
300.075
352.813
575.245
852.426
1181.01
1391.95
1401.65
1247.09
1098.13
599.167
84.1434
237.579
170.009
167.299
154.686
141.616
135.611
129.183
114.562
93.7479
74.4691
59.6852
47.9316
38.2292
30.441
24.8515
21.2997
483.104
552.768
497.934
565.177
845.093
1072.48
1306.15
1380.05
1296.75
1157.33
904.499
386.026
59.7409
140.078
182.766
138.579
138.431
138.218
128.298
118.967
104.908
86.2246
68.2274
54.8397
45.5102
38.8572
33.7971
30.0846
27.5777
25.9214
733.919
885.191
771.638
673.886
876.293
1212.36
1359.59
1466.38
1457.31
1346.4
973.31
382.604
116.342
119.11
142.515
114.287
117.675
121.331
112.182
98.2876
81.8216
66.5015
55.774
49.54
46.5477
45.2351
44.6173
44.3845
44.3017
44.0059
949.963
1066.5
995.519
878.912
948.896
1309.25
1715.63
1909.94
1786.44
1507.06
958.128
362.605
129.693
119.223
114.015
97.0725
102.698
105.625
94.1153
78.2696
64.2912
54.2594
48.8754
46.9638
46.8216
47.2605
47.376
46.5973
44.7112
41.9372
1149.2
1218.74
1143.93
1177.9
1455.11
2375.55
2818.22
2443.13
1916.03
1459.74
770.077
258.509
108.085
98.735
93.8351
84.9833
89.9831
88.7514
75.7624
60.9869
49.6414
42.699
39.4665
38.7069
39.4287
40.9989
42.6809
42.4779
40.0925
35.7723
1284.1
1486.1
1541.72
1869.7
3732.34
3100.98
2632.77
2221.94
1733.81
1131.61
479.072
166.011
89.1918
81.5346
77.7799
74.0026
75.4198
69.7655
57.3039
45.3391
36.955
31.989
29.7185
29.0303
29.3934
30.6285
32.5401
34.49
35.311
33.381
1348.95
1870.82
2552.16
3094.73
3068.54
2637.9
2268.17
1753.86
1296.37
707.033
252.37
101.361
69.4413
65.0912
62.9312
60.8048
58.6278
51.8998
42.9356
35.71
31.3477
29.4788
29.6374
31.017
32.906
34.8881
37.0961
40.0192
43.771
46.0608
1315.14
1915.94
2362.63
2595.44
2541.87
2016.43
1601.77
1232.87
830.83
370.8
120.712
63.0372
52.0573
50.3664
49.4721
47.9601
45.2008
40.7317
36.3501
33.7674
33.3349
34.8807
38.1725
42.4283
46.7923
50.8666
54.1714
56.8394
57.8233
56.6243
1061.67
1411.88
1828.3
1920.44
1745.21
1337.04
1072.44
799.453
458.326
145.777
54.8001
43.6589
41.0634
41.2086
41.2863
40.6061
39.2673
37.7788
37.0512
37.7759
39.8935
42.8134
46.2698
49.752
52.8521
55.2752
56.7474
56.7978
55.913
52.2358
810.754
1168.61
1568.32
1547.67
1161.44
800.627
757.389
600.243
305.988
89.5436
45.0484
39.4671
39.2475
40.1302
40.6973
41.1159
41.6663
42.4144
43.5678
45.059
46.7234
48.4498
50.0658
51.3167
51.9835
51.9721
51.2272
49.4768
48.8341
44.3408
202.55
672.999
973.064
1070.44
1018.38
863.832
734.525
725.647
748.442
727.191
639.816
534.016
429.991
331.313
240.194
165.804
116.536
90.6711
77.3859
68.7904
63.6157
60.7023
58.2137
55.2074
50.1597
43.7094
37.1132
31.3091
26.5249
21.5028
258.656
748.627
906.184
921.469
944.595
1032.42
1146.45
1241.04
1264.98
1218.81
1085.13
914.381
754.036
615.15
491.89
383.163
293.704
224.902
171.768
137.39
120.349
111.417
106.523
102.33
96.3549
88.1787
78.5425
69.2929
61.9285
52.9019
369.281
678.834
647.833
712.273
866.691
1037.56
1194.52
1303.45
1347.5
1262.74
1090.58
917.433
780.584
677.051
590.116
508.623
431.729
364.153
307.852
257.368
211.193
174.681
150.231
133.789
121.28
110.678
101.703
93.6064
86.3658
78.4165
424.924
580.965
563.776
653.128
804.133
956.279
1089.05
1201.18
1225.62
1105.46
910.626
730.247
617.051
549.54
501.241
457.541
416.005
375.442
337.28
302.145
267.335
227.577
188.814
159.256
139.397
124.901
113.356
103.596
95.1951
85.8235
483.95
546.821
552.17
660.74
798.581
903.724
976.118
1057.82
1067.52
942.976
749.944
580.387
479.289
428.113
398.698
371.053
342.292
316.062
292.184
269.584
246.905
223.971
199.76
176.9
158.803
143.791
130.957
119.664
109.379
97.9076
495.903
535.65
568.216
708.02
836.899
897.822
908.233
919.264
897.55
758.498
578.125
442.447
368.349
332.908
315.456
300.117
280.268
259.554
241.498
225.915
211.109
197.26
185.883
177.814
169.751
159.699
149.323
139.119
128.66
116.343
471.6
535.717
610.615
818.745
955.336
947.167
866.851
774.92
674.045
553.723
425.982
362.689
330.754
304.642
278.229
256.377
238.215
220.029
204.243
191.841
181.84
174.62
173.185
178.35
180.283
174.042
164.778
154.229
142.54
128.281
415.753
514.797
637.951
962.199
1192.03
1164.96
1019.9
872.578
746.85
623.087
356.386
287.961
275.128
288.829
340.218
284.117
239.619
208.714
185.91
171.123
162.399
160.788
171.118
188.766
193
182.304
169.002
153.972
136.652
112.696
355.26
433.397
546.831
918.665
1375.82
1500.53
1380.12
1262.84
1168.68
1022.32
581.977
292.231
193.471
239.361
447.874
355.13
273.19
218.898
182.488
160.536
151.157
157.092
180.13
194.433
183.103
165.722
147.578
126.884
103.519
79.8656
313.343
364.704
452.001
686.049
1048.85
1432.56
1531.64
1504.02
1473.21
1179.89
925.735
283.973
132.927
138.377
531.3
404.257
293.541
223.477
179.235
153.049
146.101
163.096
178.964
167.61
144.317
121.503
99.4197
78.3654
60.6274
47.5749
339.09
422.889
476.146
605.434
797.359
1096.65
1359.66
1489.67
1493
1296.16
1084.59
294.161
240.268
129.098
527.532
386.743
286.087
213.98
169.553
145.492
146.785
159.331
150.884
127.09
102.506
80.2231
60.7487
44.4875
32.7822
25.3663
663.688
908.089
824.301
732.569
791.3
938.481
1191.1
1398.54
1439.78
1361.85
1154.55
492.095
249.212
171.02
463.593
307.665
253.574
192.098
154.219
138.756
143.144
138.401
119.895
98.9412
81.1718
67.2217
55.8169
46.8993
40.6831
36.3444
954.239
1147.8
1032.55
856.323
889.229
993.674
1189.1
1457.06
1547.72
1481.34
1209.22
782.598
472.91
289.79
343.929
234.063
205.909
164.328
137.894
131.359
128.871
114.318
98.6413
85.8351
77.7424
72.783
69.7245
68.2459
68.0669
68.1453
1227.05
1382.88
1205.55
1009.84
1015.64
1234.44
1763.31
2141.63
2058.91
1758.05
1329.96
874.333
466.306
301.684
245.189
179.927
162.501
137.016
123.343
119.948
109.931
94.9533
84.2414
78.4107
75.765
74.7694
74.1221
73.0072
70.8797
67.0325
1456.91
1603.32
1407.49
1330.55
1671
2775.71
3320.1
2878.91
2249.4
1765.91
1219.89
683.577
335.638
213.618
174.82
139.949
129.618
115.579
108.408
102.526
89.3987
76.6573
69.6317
67.5096
68.6788
71.6608
74.3345
75.0918
74.1945
70.3128
1603.12
1927.58
2041.77
2638.47
4216.39
3409.34
2767.62
2453.98
1995.33
1464.69
860.043
435.569
221.313
149.413
127.713
110.679
104.436
96.2787
89.9055
80.7989
68.1301
58.5363
53.9969
53.5384
56.3037
61.285
67.5711
74.2439
77.4777
75.8375
1691.64
2284.71
3033.45
3227.24
3131.33
2564.83
2259.77
1922.37
1501.2
987.931
499.569
245.924
139.942
105.976
95.7956
87.6798
83.0094
76.9174
70.3321
61.9541
53.8478
49.3623
48.8839
51.5041
56.1486
61.8327
68.4306
75.6704
79.7869
78.7375
1674.58
2225.06
2525.01
2629.25
2479.85
1984.33
1639.89
1334.87
983.662
562.669
254.718
133.808
90.7705
77.4982
72.9609
68.7991
65.1557
60.8874
56.3371
51.9367
49.3298
49.6221
52.7432
57.8219
63.9644
69.7717
74.3046
77.0371
76.923
73.8004
1313.19
1796.83
2062.9
2045.47
1768.49
1361.7
1106.96
856.144
549.385
254.395
117.561
79.3594
65.4428
60.8118
58.7461
56.77
54.9257
53.2099
51.8232
51.1413
52.0399
54.9274
58.5167
62.3098
65.6996
68.1853
69.2865
68.0705
65.9293
60.3588
900.3
1540.52
1850.93
1692.84
1206.06
924.794
868.058
682.413
379.993
144.795
72.8566
63.3098
59.1419
57.4287
56.4905
55.274
54.5934
54.6783
55.7939
57.289
59.2958
61.4572
63.2204
64.4644
64.8864
64.2582
62.6721
59.2621
57.113
51.9808
220.684
813.234
1210.1
1197.84
1055.2
910.045
888.476
946.168
1023.28
1055.11
1007.02
861.898
715.173
583.779
461.02
342.959
237.353
157.111
111.536
90.426
81.3783
76.9918
73.3639
68.2601
61.3135
53.0821
44.6517
36.953
30.5935
23.8812
278.937
925.012
939.079
922.703
1047.22
1221.91
1413.15
1558.38
1609.51
1550.98
1355.73
1119.55
922.414
769.5
643.455
527.188
419.732
328.038
255.616
199.991
159.502
141.724
132.465
124.918
116.647
106.954
95.2308
82.9438
73.5627
62.402
391.778
792.776
738.329
843.982
1058.01
1303.05
1529.73
1679.09
1703.77
1568.7
1318.32
1068.66
882.973
754.596
662.734
583.987
508.198
436.042
372.753
319.784
272.44
225.722
189.227
163.004
145.195
131.841
121.207
111.929
103.745
94.9793
470.412
675.949
660.693
799.732
1019.65
1254.23
1450
1576.88
1588.49
1422.61
1163.51
901.448
714.731
610.379
544.167
492.804
449.292
409.058
370.951
334.516
299.609
264.429
226.499
191.641
165.236
145.922
131.263
119.55
110.092
100.5
559.351
623.274
650.525
836.41
1085.83
1269.64
1361.73
1441.79
1443.98
1295.74
1046.69
789.237
601.558
495.32
437.534
396.578
362.517
332.896
306.739
283.053
260.447
238.085
215.638
194.441
175.02
158.385
144.044
131.815
121.439
110.329
570.772
596.896
683.38
941.093
1238.42
1388.99
1381.22
1387.38
1361.26
1196.17
935.253
683.817
510.937
411.213
359.397
326.888
298.142
272.668
250.183
230.809
214.148
199.425
186.295
176.409
170.084
164.169
157.508
150.244
142.417
132.106
542.669
578.587
723.777
1076.21
1443.62
1565.27
1468.3
1349.92
1245.31
1040.92
801.14
627.598
509.592
426.827
364.251
309.001
269.936
238.861
214.962
195.934
181.329
170.708
164.003
163.683
169.848
175.909
177.429
174.209
167.076
154.891
483.756
538.149
698.008
1103.08
1579.04
1755.54
1574.6
1353.82
1214.73
1058.93
877.149
761.356
648.653
557.871
492.564
401.837
314.422
252.738
210.555
182.1
163.722
153.678
152.469
164.436
185.572
200.167
202.105
195.008
181.903
159.832
420.552
468.625
597.357
913.198
1366.45
1799.33
1801.55
1593.26
1490.99
1396.62
1000.29
868.75
728.159
595.54
631.533
515.811
388.534
291.866
225.238
182.083
156.209
145.361
152.298
181.219
210.201
216.415
206.153
186.492
159.173
125.159
380.22
428.568
530.928
729.081
1014.41
1401.65
1661.14
1667.79
1666.45
1586.15
1292.65
1104.73
927.952
742.355
702.86
570.848
424.345
310.323
231.716
180.631
150.915
142.885
163.93
201.125
206.626
186.293
157.255
123.543
91.4936
65.5059
427.728
569.581
652.37
729.128
892.019
1114.91
1364.04
1546.37
1589.07
1507.68
1319.6
1138.82
962.757
758.134
684.786
568.116
419.213
303.173
223.694
172.482
144.843
147.372
179.339
191.325
171.486
142.941
111.411
79.8837
54.1549
36.0869
795.356
1073.22
1026.15
908.102
936.14
1071.67
1284.83
1485.78
1504.45
1415.42
1254.76
1050.43
873.851
700.577
646.398
536.563
387.575
277.051
202.407
158.444
140.539
156.985
174.32
164.543
143.392
121.472
100.917
82.4087
68.1804
57.9024
1141.87
1314.46
1216.42
1032.57
960.133
1010.53
1300.47
1609.37
1674.94
1586.63
1404.5
1161.93
919.439
713.914
605.351
468.239
332.692
235.387
174.593
142.46
139.475
155.971
155.387
141.246
126.451
114.297
105.01
98.401
94.7427
92.9512
1446.29
1564.93
1361.37
1120.79
1058.31
1342.21
2134.56
2563.84
2425.94
2030.68
1586.26
1200.94
873.552
636.413
502.887
362.79
261.552
187.929
145.192
129.601
135.505
143.409
135.629
123.835
115.266
109.442
105.355
102.397
99.7884
95.7071
1718.9
1799.41
1617.97
1477.62
2027.34
3509.44
3958.78
3351.75
2578.01
2030.43
1513.3
1058.28
714.446
485.014
362.482
262.214
194.916
146.397
122.235
118.008
123.797
123.474
115.074
108.278
105.305
104.863
104.103
103.243
101.961
98.1248
1899.24
2062.79
2362.62
3405.13
4838.62
3729.46
2763.91
2470.92
2200.28
1695.59
1177.05
760.753
488.003
325.075
243.803
183.591
142.61
114.919
103.705
103.36
104.879
100.758
94.8258
92.4018
93.8443
97.6656
101.751
102.458
101.982
98.7787
2028.17
2440.9
3120.26
3436.66
3197.6
2378.49
2050.28
1874.3
1593.21
1193.22
768.509
474.313
299.308
205.813
161.531
128.482
105.574
91.6519
86.8297
86.5124
85.7446
83.0185
81.7242
83.5559
88.0149
93.8722
98.9928
99.9466
98.7073
95.3055
2018.74
2401.05
2608.84
2671.02
2297.57
1767.47
1487.57
1281.28
1051.37
740.941
445.548
269.57
177.136
132.054
109.645
92.4855
80.8931
74.8095
73.1398
73.3885
73.672
74.2179
76.4557
80.5804
85.8877
90.425
92.9978
91.9889
88.3652
82.2731
1612.07
2081.46
2209.75
2075.52
1651.25
1225.12
1015.11
824.453
619.273
404.235
239.28
153.708
113.058
92.4341
80.9752
72.8297
68.1098
66.6083
67.3373
69.0639
70.8571
72.7285
76.2092
79.8705
82.7877
84.1772
83.2087
78.7232
74.0992
67.3451
1048.11
1852.13
1977.1
1672.18
1155.46
915.871
846.073
671.456
424.613
226.225
133.583
109.173
91.6898
81.3326
76.0263
72.8035
71.7582
71.9958
72.4343
73.6939
76.2378
78.7279
80.9896
82.5132
82.5563
80.7264
77.1495
70.9562
66.7889
60.5224
242.422
862.061
1315.32
1218.03
1071.24
957.284
1038.35
1199.96
1407.35
1552.75
1439.3
1178.39
963.627
805.893
679.312
556.507
427.71
301.821
197.085
132.116
102.853
90.7436
84.4498
78.1149
69.8585
60.4666
50.9276
42.0603
34.6067
26.5772
292.973
974.724
992.778
989.387
1181.33
1427.06
1692.36
1903.78
1998.82
1918.1
1621.88
1300.53
1054.7
884.706
763.762
658.546
552.38
447.375
353.1
276.509
217.348
175.337
153.437
140.535
129.95
119.718
107.997
94.8648
85.0729
73.1144
345.264
891.195
946.674
1076.32
1330.59
1638.68
1930.52
2110.44
2098.77
1890.51
1558.42
1230.14
981.059
821.384
716.258
640.654
572.913
504.517
437.12
375.21
320.421
270.974
226.36
191.221
166.807
149.879
137.658
128.059
120.372
112.895
432.931
783.543
816.025
992.075
1282.9
1616.82
1886.7
2009.04
1978.84
1761.26
1451.07
1115.08
850.416
686.859
590.056
526.63
479.386
439.453
402.191
365.647
329.06
292.424
255.813
220.336
189.508
165.504
147.608
134.135
123.761
114.656
576.288
704.506
751.074
980.946
1315.93
1613.9
1790.59
1850.94
1823.84
1656.2
1370.94
1051.43
786.018
603.707
494.604
430.22
386.975
353.408
324.711
299.293
275.395
251.618
227.882
205.223
184.333
165.322
149.042
135.928
126.013
116.468
619.19
644.979
762.97
1083.96
1467.76
1739.36
1807.17
1771.43
1743.08
1590.69
1316.99
995.793
720.893
543.273
437.627
370.836
326.781
294.086
266.781
243
222.296
204.084
187.807
173.884
162.948
154.41
147.757
143.16
140.01
134.429
605.145
600.919
787.756
1198.61
1601.94
1888.32
1983.91
1872.43
1751.06
1523.12
1215.06
919.603
702.321
566.498
472.856
391.296
326.671
278.728
241.404
212.329
189.856
172.771
160.213
152.396
149.533
151.552
156.989
163.757
168.268
164.86
558.411
556.112
745.675
1118.62
1523.46
1894.1
2083.83
1917.92
1703.42
1477.27
1248.3
1058.17
890.076
747.017
625.887
511.923
407.567
322.942
258.672
211.539
178.779
157.448
145.434
142.767
149.628
165.162
183.845
198.593
203.693
195.119
508.39
519.855
645.173
906.067
1227.85
1631.51
1941.3
1895.74
1757.69
1680.92
1510.9
1323.89
1128.56
941.32
781.141
633.043
490.179
373.583
286.41
222.774
178.534
151.09
139.091
143.347
164.151
193.354
218.233
229.665
219.943
189.459
484.049
527.73
610.259
775.598
988.1
1264.99
1546.67
1687.77
1752.89
1729.47
1599.16
1427.52
1230.25
1027.43
838.419
671.171
516.726
390.528
295.264
225.135
176.065
146.694
138.618
153.699
187.216
215.873
219.974
196.207
156.719
111.322
552.325
709.068
762.148
820.339
928.244
1090.63
1296.92
1514.59
1613.25
1559.7
1435.6
1289.24
1130.46
962.412
800.954
652.725
504.707
381.255
286.909
217.308
169.071
142.828
143.247
168.894
200.866
205.767
186.635
154.64
115.924
77.6449
926.614
1165.98
1103.69
1026.05
1038.23
1135.17
1350.61
1542.71
1540.02
1445.99
1337.38
1214.97
1070.18
911.134
760.818
620.703
475.412
356.896
266.764
201.129
157.64
139.98
150.76
178.34
191.101
180.471
162.709
141.551
119.204
98.4501
1330.21
1449.91
1379.82
1225.66
1164.53
1274.69
1637.07
1853.67
1833.45
1722.64
1532.66
1307.58
1085.81
886.01
722.101
575.968
432.57
320.348
235.256
177.049
143.355
139.298
156.202
172.823
170.208
158.573
147.368
136.701
127.043
117.941
1637.84
1660.47
1523.91
1285.52
1230.56
1759.77
2665.01
3008.86
2865.06
2372.83
1824.8
1397.35
1071.14
825.297
649.786
497.812
370.024
265.745
192.153
148.474
131.735
138.445
153.501
159.396
151.995
142.947
136.095
130.617
125.953
119.062
1958.15
1875.56
1765.57
1746.78
2610.04
4216.92
4377.27
3715.54
2829.51
2275.1
1734.09
1283.98
944.338
699.086
528.894
388.524
284.203
202.798
150.542
125.606
122.469
132.87
142.952
143.815
138.604
132.808
128.453
125.121
122.589
117.638
2197.63
2151.79
2531.68
3722.87
5420.92
3950.92
2633.48
2224.91
2154.22
1852.07
1385.1
1002.63
721.754
516.955
380.272
277.28
202.797
148.835
118.846
108.56
111.754
120.91
127.28
128.165
126.951
125.771
123.493
120.897
118.475
115.017
2385.66
2589.23
3208.19
3697.66
3208.49
2094.7
1732.13
1637.49
1527.16
1282.64
950.97
686.423
485.511
341.246
251.746
186.615
140.542
110.936
97.1027
94.8097
99.5029
106.533
111.843
114.894
117.328
119.088
118.089
114.666
110.134
104.736
2396.77
2574.19
2699.97
2695.14
2056.05
1482.18
1246.16
1120.66
999.483
819.978
602.46
430.262
299.13
213.491
162.045
125.478
101.233
87.9557
83.4919
85.0612
90.106
96.3036
101.759
105.955
109.062
110.333
107.899
101.933
95.4003
87.6209
1939.6
2300.6
2318.13
2020.84
1436.08
1046.13
877.01
735.712
621.656
508.746
373.147
261.476
186.334
139.733
111.945
93.7963
83.4402
79.4958
80.1628
83.8751
89.2424
94.7933
98.5555
101.507
103.394
102.364
97.2097
89.5367
82.8786
74.5698
1246.57
1991.05
1981.79
1571.25
1083.31
854.276
767.318
613.318
435.049
300.479
227.933
183.496
141.115
114.615
100.64
92.7024
89.7956
90.4483
93.3842
97.2126
99.8663
102.004
103.941
105.262
104.32
100.504
93.673
84.8351
78.4246
70.2526
299.129
880.203
1352.41
1264.61
1124.17
1019.97
1209.1
1575.49
1977.48
2175.84
1810.46
1390.44
1103.66
923.641
807.886
713.181
607.649
481.89
345.685
226.322
146.857
110.445
93.3663
83.4014
74.3754
64.9997
55.6298
46.8568
39.5193
30.879
345.95
995.113
1088.25
1115.05
1322.49
1592.8
1950.13
2260.93
2431.48
2287.88
1848.96
1437.06
1138.81
944.627
824.221
738.802
657.52
564.819
464.029
367.731
285.878
222.225
178.465
152.862
138.935
128.121
117.639
105.811
97.3123
85.8773
375.609
915.223
1183.26
1453.38
1683.11
1995.31
2340.84
2560.43
2511.68
2199.2
1794.76
1397.84
1084.56
880.991
754.087
671.515
612.44
557.996
498.547
435.5
373.161
315.18
263.76
221.373
189.55
168.51
154.564
144.895
138.051
131.534
443.642
857.143
1003.64
1243.99