/*--------------------------------*- C++ -*----------------------------------*\
| =========                 |                                                 |
| \\      /  F ield         | OpenFOAM: The Open Source CFD Toolbox           |
|  \\    /   O peration     | Version:  2512                                  |
|   \\  /    A nd           | Website:  www.openfoam.com                      |
|    \\/     M anipulation  |                                                 |
\*---------------------------------------------------------------------------*/
FoamFile
{
    version     2.0;
    format      ascii;
    arch        "LSB;label=32;scalar=64";
    class       volScalarField;
    location    "40";
    object      k;
}
// * * * * * * * * * * * * * * * * * * * * * * * * * * * * * * * * * * * * * //

dimensions      [0 2 -2 0 0 0 0];

internalField   nonuniform List<scalar> 
84826
(
0.234669
0.370929
11.4186
68.0326
105.542
115.84
114.764
111.903
112.942
114.541
107.862
92.1821
73.4923
61.2671
63.1863
64.6225
58.0519
48.3126
39.4688
31.0357
23.4324
17.1522
8.56084
7.04299
6.95961
6.77069
6.51175
6.22822
5.94876
5.69478
0.235039
0.384501
9.02534
47.452
75.2576
84.7066
87.8675
91.1887
97.2499
102.528
98.8742
86.1426
70.6302
60.7796
66.0691
66.8661
57.0402
46.4205
36.1237
26.9524
19.8839
11.6185
8.3603
8.41414
8.32464
8.10517
7.80768
7.45841
7.10929
6.8119
0.235153
0.461078
7.28585
30.7373
49.4625
57.2541
63.1922
71.7648
82.121
89.4005
87.901
78.7739
67.7119
61.2907
63.4692
58.2793
49.2999
39.7619
30.3274
22.5228
15.7548
8.90265
8.54096
8.53431
8.36911
8.16335
7.9062
7.57278
7.22566
6.9409
0.235925
0.56201
5.79726
20.1306
31.3988
33.9171
39.5741
52.2584
65.5482
75.4425
76.375
70.8636
63.8788
58.4818
54.1934
48.0283
40.7845
33.2919
26.3422
19.9808
12.1934
8.26533
8.1979
8.08492
7.90532
7.68682
7.45051
7.11388
6.7129
6.35097
0.237905
0.638611
4.30606
13.5957
22.2307
33.5755
37.1858
39.9844
52.2109
62.3481
65.3006
63.5367
59.4728
53.8246
47.4069
41.1931
35.1226
29.1614
23.3535
17.2554
9.88926
7.97071
8.05067
8.00889
7.87571
7.68593
7.45781
7.15458
6.70943
6.27245
0.241091
0.637591
3.2102
10.4864
25.6939
39.9016
41.391
38.7191
43.1092
52.0077
56.2779
57.9181
55.3201
49.6741
42.7258
36.1262
29.7277
24.211
19.0403
14.1499
8.63588
7.93277
8.06874
8.0193
7.91586
7.76722
7.57107
7.33156
6.85259
6.32988
0.244617
0.564773
2.42616
9.49864
31.5428
45.1174
43.4139
38.2384
36.8099
43.5731
50.5176
54.5933
51.3167
44.4013
36.6101
27.8885
20.6664
16.0028
13.0857
10.0896
8.72637
8.66431
8.33155
8.07929
7.93157
7.823
7.69533
7.52793
7.04825
6.44193
0.248345
0.502806
1.78537
8.51161
33.865
44.8247
42.42
36.7679
32.291
37.2529
43.0234
46.7822
43.1379
36.7908
26.8596
17.2835
14.5481
14.2759
13.5189
12.6412
11.6047
10.3187
9.18264
8.39647
7.97268
7.78897
7.70326
7.62928
7.19407
6.52582
0.253648
0.529472
1.48339
7.90119
33.5098
41.9814
38.2641
35.8895
34.7531
69.1153
54.6849
44.9862
32.4829
26.4322
18.4615
19.6488
20.5932
20.2976
19.2139
17.5255
15.4003
13.0975
10.979
9.34837
8.31661
7.78974
7.57898
7.51718
7.1485
6.44286
0.264761
0.643982
1.69122
9.12121
33.5305
38.9624
34.3808
36.804
58.8948
85.5059
96.974
50.252
48.9799
19.6806
21.6225
25.7795
26.8732
26.6782
25.4605
23.3079
20.4488
17.1933
13.9976
11.3065
9.37006
8.17483
7.54422
7.26117
6.85564
6.1106
0.293841
0.846428
2.33052
10.7623
32.9359
35.3842
32.1148
45.7513
58.3465
74.6431
93.6297
107.781
17.3271
28.911
32.1493
33.6267
33.756
32.6887
30.311
26.9035
22.7808
18.4737
14.5757
11.5107
9.38268
8.05426
7.24498
6.50107
5.57086
0.3142
1.01213
2.97362
12.7111
31.5954
31.693
30.8985
47.1173
56.5697
67.9729
84.412
100.44
37.7799
15.1856
35.3893
39.0511
41.1857
41.868
41.3311
38.9687
35.1213
30.1782
24.7427
19.5082
15.0687
11.764
9.56737
8.02349
6.68145
5.36832
0.285857
0.868334
3.42883
13.45
28.9148
28.1795
28.3325
46.1789
54.9096
65.9557
87.8843
43.4797
20.9354
22.6214
42.357
46.6529
50.0499
51.0394
49.7457
46.6668
42.0848
36.409
30.298
24.4171
19.272
15.1517
12.0979
9.7441
7.74877
6.0511
0.264796
0.556073
2.57905
11.2279
24.3827
24.736
25.6209
45.2378
53.4475
65.0993
79.5832
32.5429
38.1512
44.0519
49.5855
55.1499
58.3875
58.5827
56.604
52.802
47.5233
41.2619
34.714
28.4838
23.02
18.5704
15.1248
12.2719
9.66221
7.75782
0.244558
0.338076
1.18882
7.41047
19.6486
21.925
21.4965
43.643
53.229
63.2868
67.9591
35.5487
43.2453
49.9279
56.7084
62.6598
64.8993
64.459
61.8299
57.3278
51.3904
44.6182
37.7124
31.3076
25.8137
21.3964
18.0343
15.3147
12.6329
11.376
0.234972
0.254626
0.617169
4.91284
16.0982
21.958
20.0794
37.3052
51.6216
58.8569
54.1785
38.5157
47.0941
54.7239
62.9352
67.4443
68.9778
67.9761
64.7763
59.6941
53.2568
46.1252
39.0449
32.6311
27.2653
23.0794
20.0239
17.755
15.4398
14.5764
0.233031
0.233885
0.409661
2.99548
12.8316
20.1236
18.8862
28.6768
47.0792
52.8276
32.2137
40.5009
49.6179
57.9003
65.4808
68.687
69.3773
67.8042
64.1732
58.7723
52.1634
45.0649
38.1937
32.1159
27.1633
23.3949
20.7153
18.7813
16.7574
15.6349
0.232503
0.228338
0.308206
1.46764
7.9867
14.808
16.549
20.8844
38.1813
40.5897
28.0717
41.4086
50.1215
58.4036
63.5353
64.9434
64.35
62.0196
58.1065
52.8412
46.7297
40.4147
34.5076
29.4379
25.3886
22.3461
20.2164
18.7028
17.0234
15.9333
0.232434
0.226336
0.284686
0.99327
4.56877
8.97238
12.3083
14.0851
24.7765
22.9621
23.3458
40.1167
47.5372
54.2968
56.2836
55.0957
52.6509
49.3849
45.4913
41.1244
36.578
32.1869
28.2305
24.8774
22.1829
20.1399
18.6839
17.5804
16.3948
15.5651
0.232087
0.225387
0.288402
0.915452
3.16485
5.40496
6.53881
7.60822
11.3518
10.8161
17.2748
37.132
42.3502
46.5505
45.4518
41.9091
38.2085
34.8575
31.8998
29.2245
26.7567
24.4715
22.3859
20.5361
18.9585
17.6696
16.6691
15.9083
15.1261
14.4504
0.254606
1.88208
48.8356
124.901
161.975
171.084
165.731
159.6
168.689
185.779
185.182
163.039
132.343
115.055
126.767
126.154
111.997
91.0331
71.4987
64.1771
40.4091
15.3331
9.60456
7.91836
7.51768
7.49079
7.47362
7.41925
7.33031
7.20847
0.261571
2.00083
38.0052
90.4965
114.252
119.959
119.438
122.215
136.932
158.024
161.75
146.523
128.454
118.97
135.772
130.12
108.964
81.9566
63.2909
54.9691
24.945
13.5543
10.2667
9.61022
9.80968
10.0088
9.92823
9.61809
9.20396
8.82536
0.275965
2.41511
29.3799
68.5477
96.1566
101.572
102.736
105.675
114.515
129.659
133.897
126.648
119.564
121.22
133.594
121.046
93.5376
70.0305
58.7847
36.8826
18.2398
12.3084
10.973
10.7532
10.8122
10.8904
10.8221
10.482
9.97704
9.50876
0.297099
2.95009
23.4639
57.6599
87.9792
85.836
80.6728
84.7406
95.6037
106.839
111.325
109.822
108.751
112.216
113.145
97.9902
78.4114
68.484
47.1798
25.0421
15.3583
12.5406
12.0149
11.8249
11.7763
11.5872
11.2542
10.7459
9.99075
9.21946
0.325363
3.45075
19.4719
53.5275
90.0267
87.3709
74.6786
67.9272
73.8588
85.4357
93.1468
98.4844
101.562
99.5933
91.7506
81.2867
73.809
56.7892
32.0913
20.3348
15.442
14.2888
13.7702
13.6018
13.5199
13.2239
12.6208
11.8741
10.8831
9.80838
0.358863
3.75349
17.1997
51.935
97.9075
98.1579
83.0554
64.9698
60.2479
68.7263
81.2046
95.6276
97.5085
93.1199
84.3201
74.0091
57.8974
38.6601
26.9942
20.951
18.1547
16.8407
16.2092
15.9188
15.7043
15.2944
14.5165
13.4416
12.178
10.7234
0.401157
3.43109
15.1467
52.4283
96.9207
96.5262
93.4335
69.559
54.1425
59.2878
81.4495
101.369
98.2632
81.5966
52.5776
42.9241
38.6023
33.1518
28.3449
24.8488
22.5828
21.1202
19.9369
19.0104
18.309
17.6343
16.653
15.2083
13.6816
11.7873
0.463667
2.97152
12.4213
45.4283
82.7195
84.8378
86.4577
77.4395
49.888
57.9235
81.1325
104.275
102.019
68.6743
38.5752
35.317
35.8899
35.8441
34.6959
32.9735
30.9323
28.5456
25.9513
23.5439
21.6644
20.2957
18.9681
17.1477
15.3005
12.906
0.549473
2.96699
10.2654
32.2612
69.947
76.6144
72.0701
80.4929
49.8025
66.145
116.54
81.8438
91.5135
52.4009
37.6437
40.6586
44.9267
47.3476
47.7381
46.4395
43.7259
39.7197
34.8876
30.151
26.2962
23.6057
21.578
19.3208
17.0009
13.9869
0.643756
3.11201
9.54039
25.83
63.0965
72.1351
57.4586
71.5447
46.359
59.1488
115.055
161.976
22.0439
50.6004
44.2016
51.2598
59.0969
63.4083
64.522
63.141
59.4512
53.5916
46.2425
38.8017
32.4561
27.9079
24.7504
21.875
18.9264
15.1888
0.705668
3.35259
8.52587
23.0035
57.6233
66.9754
47.3382
46.3693
41.5942
48.5612
66.2119
101.456
55.2463
66.4538
76.4797
81.2661
81.9505
79.8812
75.1568
67.779
58.3115
48.4854
39.7186
33.1763
28.6277
24.9907
21.4221
16.9054
0.662392
3.75146
8.35016
23.0913
53.0832
64.1893
44.0389
39.842
39.9499
51.8169
94.6563
267.467
33.7855
36.4603
70.4376
85.0231
94.675
98.2637
97.249
93.8033
87.4465
78.5845
67.8151
56.934
47.0231
38.9081
32.9958
28.6916
24.7685
19.8808
0.527929
3.43091
9.31772
25.0965
49.2126
61.3151
44.4039
40.3344
40.9667
54.3139
75.8795
40.8271
40.1433
54.3517
89.9236
104.335
110.905
111.59
109.459
104.713
97.0275
86.7348
74.9226
63.2172
52.5174
43.5538
36.8606
32.1245
28.4434
24.6593
0.397365
1.95934
7.58041
23.7317
44.8536
57.6672
45.9548
43.2991
47.0585
57.5852
57.374
57.4333
69.7323
90.6213
109.671
121.02
124.334
123.757
120.122
113.61
104.354
92.7879
80.2067
67.815
56.4697
46.9557
39.6892
34.5053
30.9106
29.2091
0.292672
0.809155
4.29443
19.6544
41.2512
59.5277
49.4724
45.7226
50.1809
59.0152
65.6271
65.0351
83.4777
108.422
126.543
133.659
135.971
134.24
129.03
120.756
109.885
97.1391
83.6698
70.6524
58.9479
49.0812
41.4033
35.6913
31.3934
29.0259
0.254775
0.429201
2.29582
15.6767
38.6599
57.5042
55.0854
47.7163
51.5124
59.7608
63.0784
72.9853
95.2508
123.329
137.083
143.092
144.476
141.78
135.252
125.46
113.215
99.3774
85.156
71.6604
59.7336
49.7883
42.0156
35.8917
31.1239
27.4012
0.246166
0.307693
1.39658
10.9731
34.8847
50.7833
60.4457
48.7512
51.7081
59.9753
59.8598
79.6801
105.076
133.122
143.036
147.18
147.322
143.719
136.294
125.52
112.322
97.9041
83.4103
69.8948
58.2496
48.7381
41.3601
35.5503
30.9622
26.7886
0.241706
0.268291
0.840413
6.46995
26.2382
40.1012
59.8558
50.1042
49.0138
49.3374
66.2009
83.7839
111.848
136.325
142.363
142.984
140.61
135.483
127.244
116.181
103.108
89.2029
75.6976
63.5952
53.4387
45.2529
38.9961
34.1997
30.1565
26.2237
0.240373
0.25496
0.704456
4.11701
16.9946
29.1201
41.7684
47.8578
45.1715
40.5978
70.3366
86.2272
114.911
133.535
133.4
127.948
120.772
112.626
103.223
92.7061
81.583
70.6432
60.6035
51.9392
44.7751
39.0513
34.6174
31.1273
28.2657
24.9986
0.240288
0.25417
0.728119
3.42339
11.0071
18.3954
23.2957
32.8508
33.7208
37.0746
71.5678
86.6383
113.733
126.284
118.635
106.076
93.7543
83.0469
73.7206
65.4857
58.0713
51.3975
45.4802
40.3552
36.0259
32.4003
29.4292
27.0731
25.2809
22.5974
0.27076
4.24199
66.7766
161.953
200.464
209.049
202.667
186.639
193.992
212.087
194.146
151.376
125.262
131.158
157.941
149.84
132.103
112.226
99.063
72.543
27.2503
12.3469
9.34598
9.25421
9.58529
9.6825
9.55218
9.27504
8.91941
8.56567
0.291994
4.17395
49.1659
121.783
143.733
137.724
135.189
138.286
155.231
179.561
174.312
150.64
134.237
135.77
167.804
144.413
120.379
98.428
85.8959
50.9576
20.3903
13.4633
12.9643
14.0358
14.6158
14.6587
14.3868
13.7584
12.9264
12.1209
0.335025
4.46814
37.3062
119.063
136.35
123.842
112.708
111.746
122.945
143.33
145.545
137.388
134.686
148.674
163.821
131.052
104.853
90.2498
65.3456
32.2665
17.5753
15.4701
16.4872
17.3541
17.6041
17.2537
16.6563
15.8628
14.8038
13.7559
0.392932
5.24268
32.3008
119.309
136.429
125.897
107.371
96.9474
100.656
113.124
118.394
121.046
134.416
151.694
144.758
122.365
107.403
75.7761
41.7052
23.6482
18.6926
19.1236
20.1545
20.8732
20.8925
20.2028
18.9276
17.4595
15.8574
14.1199
0.453411
6.12854
31.3239
116.094
141.454
142.347
120.505
93.4227
86.1216
91.3398
99.0558
120.247
143.042
147.707
138.321
118.324
81.331
48.7374
30.1845
24.0012
23.3907
24.1361
24.9641
25.3394
25.1022
24.2091
22.6276
20.3671
18.2314
15.8272
0.510108
6.72391
30.7986
113.263
142.115
150.623
146.77
104.638
82.4186
82.4923
104.805
148.276
147.699
122.928
95.0907
68.6456
50.1042
37.5745
32.3526
30.9313
30.9293
31.3403
31.3766
30.7759
29.7818
28.5218
26.8102
24.1927
21.2435
18.1087
0.596431
6.83874
28.7912
104.611
129.232
135.912
148.296
120.306
83.3989
82.8766
140.725
140.279
89.7414
62.7977
47.185
43.2112
43.0235
43.0627
42.9085
42.849
42.8366
42.1782
40.3657
37.8673
35.2541
32.9949
30.9956
28.3687
24.6953
20.7461
0.715508
6.16967
25.212
87.2247
113.674
111.727
133.746
123.75
80.1704
98.913
148.29
86.815
50.9311
41.3657
42.7558
48.1775
54.5153
58.3024
60.0617
60.4075
59.5416
56.7332
52.308
47.0343
41.9719
37.9133
35.0619
32.4563
28.5049
23.7305
0.829861
5.32232
21.0036
67.3186
99.1733
87.9275
113.172
112.858
79.2626
91.2417
99.4491
55.4787
38.7067
35.3793
51.5419
62.9476
72.7743
78.05
80.476
80.5857
78.4283
73.4754
66.1854
57.8755
49.9633
43.5225
39.1415
36.1487
32.4546
27.3015
0.905167
4.85976
17.5757
50.8385
88.0638
74.4866
97.5103
95.0295
67.4938
75.6455
80.1558
51.5808
52.364
90.8995
66.2492
81.6592
92.5651
97.6542
99.6036
99.4665
96.4068
89.575
79.8905
69.0301
58.591
49.7108
43.3875
39.4126
36.099
31.4516
0.90863
4.75675
14.8437
38.1715
77.6507
68.3471
74.5154
74.5144
59.4414
66.1427
86.5079
141.858
85.9504
102.666
111.761
114.906
115.903
115.118
111.14
102.653
91.1344
78.6198
66.5822
55.8274
47.6933
42.3415
38.9044
35.749
0.811106
4.56799
12.8552
32.1103
69.0955
62.0457
53.5639
61.3779
54.4351
66.0033
128.211
455.132
25.4655
43.3155
109.544
123.47
128.887
129.5
128.964
126.693
120.691
110.542
97.5611
84.118
71.4586
60.3712
51.4001
44.7449
40.4692
38.2401
0.669068
4.35398
10.7112
30.8892
63.3843
61.9364
49.9322
53.1945
53.4783
70.6235
81.4223
54.9448
63.4064
89.4094
133.59
142.268
143.577
142.43
140.171
135.621
127.505
115.393
101.517
87.5593
74.5271
63.0922
53.614
46.2301
41.0366
37.8911
0.478017
2.55247
8.25423
28.3268
59.0001
63.156
51.9461
52.5304
62.7853
82.1409
89.489
85.3885
111.329
138.725
154.572
158.5
158.394
155.567
150.788
143.343
132.643
119.017
104.284
89.882
76.5603
64.8118
54.9671
47.1056
41.2401
36.9046
0.322716
1.08125
5.48913
24.4533
57.8381
65.4179
54.4507
53.8512
65.0443
76.1829
75.4083
95.2375
132.19
159.522
171.049
174.365
173.344
168.861
161.413
151.117
137.987
122.665
106.895
91.7231
77.8788
65.8142
55.6827
47.4716
41.192
35.997
0.2609
0.509162
3.19002
21.5172
58.3892
70.7305
55.1469
49.9313
56.7572
63.276
73.2163
105.317
150.384
176.621
185.998
188.889
187.38
181.675
172.07
159.196
144.014
126.885
109.619
93.3846
78.8041
66.2194
55.8264
47.373
40.8739
35.3439
0.24801
0.348399
2.14191
16.0422
53.9299
79.675
59.632
48.5789
55.949
64.0001
80.6148
118.776
167.464
189.985
197.976
199.963
197.779
191.27
180.409
165.707
148.437
130.06
111.316
93.892
78.5595
65.6432
55.1705
46.7557
40.2873
34.6013
0.242836
0.29326
1.5058
11.2136
41.7745
75.4045
72.4922
53.7663
56.851
62.4751
90.3509
131.008
182.429
199.781
204.823
203.79
199.197
191.066
178.926
163.186
144.937
125.581
106.554
89.4064
74.7489
62.4042
52.7218
44.9952
39.0794
33.6435
0.241743
0.277674
1.41037
8.16734
29.8086
52.2365
67.3622
62.1039
56.2094
63.9054
98.4202
139.853
191.685
204.814
203.893
195.491
184.061
170.949
155.897
139.179
121.552
104.276
88.3972
74.6708
63.3321
54.1654
46.8857
40.8611
36.033
31.3416
0.241274
0.276769
1.59485
6.70734
20.2616
33.1718
43.6517
48.5398
45.5724
64.6883
104.583
146.376
197.29
205.147
195.109
175.296
153.554
133.563
115.868
100.401
86.8009
74.943
64.7545
56.1774
49.0781
43.2831
38.4338
34.3298
30.8153
26.9023
0.296045
6.86173
81.2052
206.294
235.136
242.394
236.256
216.54
223.285
239.863
208.645
151.84
129.358
150.127
178.85
152.068
135.98
128.192
98.5542
51.8873
19.9582
12.985
12.8575
13.6852
13.9771
13.7112
13.0879
12.2444
11.2938
10.4014
0.327374
6.16847
57.8448
163.87
172.27
169.849
167.851
170.37
185.678
208.263
191.807
159.172
141.643
158.105
194.883
139.926
121.592
109.258
78.2536
37.9998
18.9451
17.7946
20.2392
22.0229
22.6066
22.1794
21.1964
19.9612
18.4307
16.9001
0.390088
6.40585
51.4153
157.125
163.403
159.973
145.087
140.405
152.248
171.27
166.837
154.862
155.419
181.601
187.234
134.032
114.441
89.7073
53.3586
28.1815
21.7025
23.71
26.1018
27.5401
27.9665
27.4846
26.0407
24.0565
21.9063
19.7229
0.496404
7.42947
54.5418
154.61
167.584
174.62
151.042
127.687
127.642
140.857
143.626
155.905
189.484
189.715
160.762
124.839
92.9665
58.5719
36.8814
28.2533
28.4933
30.6221
32.2874
33.0079
32.9008
32.2184
30.8523
28.2661
24.8521
21.4663
0.622698
8.59471
56.2015
150.199
171.291
193.646
178.999
134.034
113.728
115.237
129.056
188.151
192.175
155.691
114.441
80.4147
57.1434
42.5443
36.3223
36.044
37.8359
39.6035
40.3352
39.8837
38.7032
37.323
35.9596
33.7511
29.5671
24.982
0.762437
9.73863
53.2477
142.198
165.409
193.798
200.585
157.568
115.773
106.903
161.174
186.777
121.342
85.2515
63.4285
52.4246
47.9789
46.3756
46.9773
48.8223
50.8317
51.813
50.9858
48.6594
45.594
42.7724
40.7408
38.8215
35.0557
29.2982
0.939078
10.5004
47.6748
129.029
153.314
178.214
195.99
172.345
117.737
116.179
172.016
105.373
61.6915
50.2765
48.9534
53.1415
57.8997
61.4825
64.3073
66.8096
68.4306
67.878
64.6458
59.5869
53.8853
48.8859
45.3701
43.0677
40.2643
34.0915
1.09755
10.0705
40.9946
113.365
140.877
152.891
178.773
162.899
107.744
131.436
143.161
53.1738
38.445
42.0692
56.2101
66.9202
75.7481
81.2667
85.1668
88.0802
89.0664
86.5179
80.4231
72.0097
63.3186
55.7094
50.1359
46.585
44.3463
39.2064
1.15722
8.81505
34.5181
97.5582
127.028
122.064
152.58
140.422
97.3475
114.195
92.203
47.5479
44.201
45.7916
69.651
84.3936
94.8776
100.849
105.395
109.033
109.554
105.159
95.9317
84.4522
72.8474
62.7511
55.0322
49.6961
46.9257
43.6863
1.0967
8.26362
30.3344
81.4123
111.397
90.0332
123.204
110.748
86.4041
104.618
112.355
132.305
72.2757
86.1869
88.1766
104.322
113.691
118.335
122.724
127.416
127.241
120.38
108.526
94.6325
81.0155
69.0521
59.5272
52.5341
48.3197
45.9238
0.987861
7.58495
26.3098
64.1869
96.314
76.2347
94.2772
89.0407
77.9374
95.0911
162.15
1053.87
37.6741
97.9174
111.613
125.5
131.312
133.297
137.469
141.801
139.834
130.575
116.899
101.701
87.0707
74.0839
63.386
55.0629
49.4643
45.9684
0.837133
6.77736
19.4702
49.2143
84.9236
71.5313
72.4858
80.5014
72.9215
86.1987
123.93
406.013
23.6079
55.4656
137.555
145.824
146.907
146.303
149.151
150.663
145.781
134.805
120.34
104.82
89.9628
76.7241
65.6291
56.716
50.2951
45.6687
0.685156
5.0261
13.4213
40.9335
75.6288
74.407
68.3154
71.675
68.1133
83.6919
122.13
66.8158
87.2061
117.88
161.908
163.571
160.216
158.474
158.693
156.294
148.575
136.221
121.425
105.973
91.2482
78.0595
66.8368
57.619
50.7046
45.352
0.474443
2.41744
9.46816
35.9425
72.8143
74.7981
67.6249
73.416
86.3515
113.799
120.753
113.194
146.16
172.608
182.188
179.617
175.453
171.802
167.934
161.245
150.704
137.04
121.738
106.299
91.7047
78.5855
67.3146
57.9159
50.6421
44.8219
0.323074
1.13124
6.44863
32.5805
74.7151
67.8562
65.918
79.4867
97.8582
101.504
97.1592
128.51
171.369
194.65
199.136
197.556
193.317
187.307
179.136
168.215
154.647
139.209
122.978
107.03
92.1578
78.8851
67.4476
57.8266
50.2306
44.0336
0.266734
0.617097
4.17818
29.6498
78.3304
62.307
54.6851
58.426
66.4747
70.4752
90.4867
142.551
192.144
210.535
216.829
217.309
213.554
205.864
194.193
179.329
162.383
144.405
126.384
109.148
93.3797
79.4479
67.6062
57.6547
49.7436
43.2248
0.250249
0.399216
2.86588
21.6131
81.1115
70.77
53.2247
50.6829
58.125
67.7353
97.0951
158.145
207.818
225.612
234.845
237.246
234.034
225.697
212.342
194.371
173.877
152.585
131.719
112.291
94.9523
80.0544
67.6639
57.4205
49.3439
42.5943
0.244746
0.323574
2.32345
15.7112
64.6536
86.9694
71.0067
58.6759
60.0856
72.6342
106.736
172.208
218.664
239.713
250.917
253.141
248.898
239.407
224.267
204.46
181.664
157.33
133.43
111.929
93.4458
78.175
65.9227
55.9956
48.3455
41.7517
0.243129
0.315006
2.49155
12.2625
45.3327
73.5312
78.6137
77.1675
65.8209
79.6629
114.277
183.191
227.603
251.424
261.337
257.725
246.221
230.279
210.458
187.736
163.398
139.417
117.192
98.0367
82.0927
69.1743
59.0395
50.7898
44.4772
38.7652
0.242875
0.334975
2.88479
10.4816
32.2756
51.6361
59.0964
58.7234
59.3676
82.8263
120.002
191.73
234.298
258.651
262.236
245.183
218.243
190.032
163.536
139.85
118.95
100.867
85.5048
72.7592
62.4124
54.0383
47.2473
41.4118
36.601
32.1004
0.346593
9.64952
102.647
249.863
281.513
280.488
260.221
241.631
252.513
265.58
226.002
160.574
138.839
169.302
193.157
135.179
125.072
109.081
71.3875
34.7916
19.1564
18.1178
19.7738
20.8034
20.7803
19.9756
18.6614
16.9839
15.0648
13.1631
0.388399
8.57993
78.0377
194.434
210.995
210.504
205.501
204.586
219.544
237.181
208.852
167.448
149.527
179.764
216.88
123.351
107.683
89.6815
54.9774
29.7701
23.3732
26.9214
30.5645
32.5415
33.029
32.4577
31.0226
28.9325
26.4983
24.014
0.486221
8.74045
76.2743
179.808
200.38
205.104
186.109
173.45
184.856
201.84
187.632
168.038
168.097
213.499
208.504
120.986
91.3266
64.8359
41.4674
30.485
31.5254
35.7509
38.6306
39.883
39.9868
39.3416
38.0542
35.8327
32.4617
28.4563
0.677206
10.1933
78.644
172.296
203.825
228.416
202.626
163.505
159.412
171.263
168.642
184.264
220.5
206.755
150.691
91.3578
64.687
48.3795
40.26
39.8217
43.0543
46.146
47.6481
47.4908
46.3128
44.8146
43.3646
41.5302
38.2373
32.5724
0.969515
12.2546
75.947
161.75
203.036
245.958
242.004
179.166
146.667
145.77
163.845
228.981
196.888
150.532
98.414
64.3457
52.8342
49.5129
50.4128
53.5075
57.1076
59.4914
59.5169
57.4525
54.2793
51.0568
48.5891
46.7945
44.5951
38.5702
1.30344
14.1863
68.8492
147.473
193.234
241.274
260.657
216.268
150.534
137.121
206.174
188.318
125.14
94.2808
70.1666
60.4892
60.4509
62.7489
66.3633
70.9162
75.029
76.5923
74.6401
70.0235
64.1041
58.4149
53.9838
51.1829
49.7358
44.7598
1.57045
15.3559
60.6725
131.905
182.631
219.881
248.975
226.911
151.684
150.589
179.02
108.77
75.6498
66.7089
66.4968
71.4733
76.7991
81.0167
86.0669
92.143
96.8366
97.0831
92.5372
84.6372
75.3935
66.717
59.8263
55.1513
53.2391
50.1758
1.64875
15.3276
53.175
118.276
173.234
195.898
220.091
209.81
133.303
149.519
123.174
68.1607
52.3804
62.2943
72.7247
85.2297
94.0465
99.8779
106.815
115.071
120.556
119.031
111.198
99.4851
86.8446
75.1936
65.8175
59.0521
55.5196
53.3218
1.53743
14.2995
47.3295
106.598
158.832
167.451
188.028
172.261
117.489
135.063
129.094
110.736
42.0144
58.2051
84.9291
99.9551
109.791
116.567
125.966
137.121
142.89
139.07
127.956
112.91
97.2436
83.0912
71.5854
62.908
57.5638
54.354
1.31433
12.5254
42.0115
94.0966
138.028
131.596
154.512
137.535
100.616
112.83
122.472
183.259
61.3598
66.5144
104.26
117.305
124.115
130.097
142.235
156.021
160.919
154.747
140.784
122.993
105.184
89.4145
76.4531
66.3645
59.5431
55.1421
1.09727
10.1521
33.9844
78.6715
115.351
96.645
119.748
113.885
88.8988
98.1996
121.07
155.192
60.9859
77.9792
128.213
135.756
136.813
141.627
155.267
170.134
172.742
162.791
146.155
127.328
109.224
93.1215
79.6508
68.8372
61.0114
55.6448
0.884251
7.3862
24.1236
63.1537
99.3557
83.0682
88.0832
96.451
82.796
87.8199
103.549
175.734
70.9319
105.973
151.663
152.234
148.786
152.886
166.295
176.617
174.596
162.714
145.785
127.445
109.846
94.0838
80.7627
69.8475
61.6145
55.6196
0.641544
4.38267
16.524
51.6531
91.8454
85.3339
81.3395
78.9221
76.2582
81.8995
101.968
97.359
132.694
159.521
170.493
166.316
161.424
165.245
174.119
177.612
171.904
159.172
142.782
125.385
108.68
93.6086
80.6573
69.8318
61.4133
55.0085
0.438866
2.31416
11.1652
44.4771
93.8444
83.8299
81.8388
88.3343
99.8212
113.137
122.189
126.878
161.136
181.281
185.382
180.351
176.853
178.16
180.197
177.662
168.967
155.523
139.54
122.892
106.919
92.42
79.8212
69.1311
60.5907
53.8777
0.32092
1.2425
7.22705
40.7582
86.4294
69.0118
72.5947
89.6077
109.29
111.685
110.97
147.771
181.461
195.955
199.7
198.547
196.112
193.53
189.192
181.236
169.372
154.548
138.197
121.643
105.864
91.5276
78.9905
68.2476
59.512
52.4892
0.270354
0.662524
4.80207
36.0697
87.5229
57.6234
53.9955
60.4408
69.591
80.8195
107.645
164.482
191.892
207.197
218.11
222.236
220.801
215.004
205.232
192.156
176.442
159.056
141.058
123.415
106.873
91.9463
78.9735
67.8534
58.7497
51.3256
0.252234
0.43188
3.45452
25.5093
95.2331
65.3839
51.2568
52.5048
59.9964
74.2413
114.023
176.079
195.913
220.27
240.674
250.74
251.248
244.063
230.579
212.749
192.326
170.785
149.316
128.909
110.309
93.9238
80.0074
68.2563
58.7352
50.8979
0.246222
0.357596
3.2547
19.3586
81.9785
90.7557
72.0099
64.4948
62.1971
76.4953
122.515
178.057
199.48
234.825
264.926
280.001
282.208
274.939
259.152
236.955
211.031
183.85
157.356
133.1
111.964
94.1947
79.723
67.8398
58.5037
50.6833
0.24413
0.383736
3.87778
16.2779
59.9237
83.3399
84.1369
80.8183
71.5205
81.1493
128.346
176.206
202.609
249.136
286.049
299.934
296.907
283.188
261.579
234.395
204.125
173.882
145.276
120.758
100.7
84.6775
72.096
61.8947
54.135
47.3582
0.241854
0.426146
4.40438
14.7932
46.4501
69.5806
70.501
63.7902
69.5801
84.516
131.232
174.184
204.827
259.828
296.192
298.044
275.866
244.591
211.722
180.696
152.604
128.036
107.101
89.8332
76.0446
65.0354
56.1843
48.852
43.203
38.207
0.434431
13.0687
114.732
273.52
311.994
308.352
282.646
273.041
283.615
287.427
246.446
182.322
158.232
197.372
199.037
107.303
85.9724
71.2203
46.9952
29.0129
24.6238
27.0846
29.5301
30.495
30.0803
28.7257
26.7872
24.4075
21.5703
18.4638
0.498647
12.1414
96.8275
219.91
258.922
264.311
248.518
241.326
254.529
262.481
225.46
180.041
163.824
202.963
238.601
113.616
74.658
60.4116
41.3053
31.555
33.7536
39.7635
43.7877
45.5637
45.6492
44.7146
43.1105
40.9471
38.2058
34.9596
0.669494
12.6296
94.5237
203.605
253.068
270.403
244.045
214.983
220.526
228.593
202.007
175.6
176.818
238.761
250.32
118.164
67.6726
51.0503
40.7809
39.9654
46.0135
51.7246
54.7867
55.3389
54.3518
52.7348
50.9081
48.7421
45.868
41.3188
1.02293
14.5438
94.4642
191.408
251.411
296.173
279.875
214.812
196.36
196.99
182.25
191.359
234.839
265.868
215.475
107.37
64.3211
52.8175
51.5734
56.2683
62.3161
66.68
67.9574
66.3222
63.0649
59.5348
56.5625
54.1473
51.8387
47.097
1.57803
17.1596
89.2182
174.154
238.193
305.355
320.378
248.28
187.963
173.33
184.081
245.12
242.933
224.837
169.499
101.156
72.8152
67.231
70.3761
76.3851
82.6758
86.1301
85.3092
80.7706
74.4516
68.04
62.8287
59.1628
57.2636
53.7553
2.07759
19.819
80.1595
154.515
220.441
290.371
331.572
284.942
192.476
164.597
227.18
219.02
182.285
166.799
139.256
105.625
90.4738
88.7312
92.9817
100.268
107.42
110.028
106.337
98.2071
88.0435
78.1082
69.9571
64.0722
61.1932
59.1717
2.30489
21.8775
70.8874
136.68
207.849
268.929
313.05
292.716
188.574
175.286
201.715
149.053
130.146
128.896
123.802
115.001
110.347
111.608
117.843
127.47
135.951
136.903
129.375
116.696
102.302
88.7676
77.6478
69.2733
64.4042
61.8455
2.2322
22.3569
63.0888
123.63
200.351
247.638
280.794
272.706
163.135
170.646
151.089
105.324
93.0978
103.421
112.787
122.188
127.048
132.533
142.504
156.148
165.694
163.809
151.605
134.252
115.876
99.0889
85.2436
74.6231
67.7766
63.8424
1.96755
20.63
56.3933
113.644
189.155
216.498
240.951
228.037
141.326
148.956
121.816
75.151
71.3773
88.1611
105.464
124.463
137.334
149.025
165.276
183.758
192.624
186.857
169.883
148.392
126.831
107.568
91.7454
79.4361
70.9968
65.5414
1.62361
16.2773
49.0586
104.752
170.949
171.34
190.167
185.89
121.43
118.474
81.7351
78.1088
75.2498
94.6427
114.786
129.344
142.975
160.157
182.796
205.443
212.991
202.897
181.069
156.563
133.191
112.857
96.1189
82.9151
73.4317
66.8082
1.29487
11.8785
39.8888
92.0606
145.759
124.158
136.149
147.742
112.134
102.482
70.7803
88.0184
88.5998
114.121
133.706
138.869
146.512
165.108
193.336
219.135
221.088
204.786
181.124
156.441
133.661
113.945
97.5898
84.3772
74.4171
67.284
0.988827
8.08494
29.3736
77.1944
124.024
95.2921
96.1795
112.007
102.74
90.7629
87.5011
87.0563
109.987
137.414
148.964
148.034
151.776
169.671
199.634
217.948
214.273
197.302
175.053
152.24
131.129
112.602
97.0198
84.2027
74.2944
66.9238
0.690605
5.1543
20.2286
64.1685
111.802
87.237
84.2073
93.4068
95.615
85.2091
85.4147
102.616
136.116
153.997
159.678
157.343
161.151
178.472
199.881
208.673
202.12
186.379
166.664
146.308
127.117
109.984
95.3081
82.9893
73.2278
65.7073
0.456906
2.80782
13.0904
54.5568
102.647
78.1912
82.1024
98.1261
110.511
110.522
120.055
133.77
155.119
166.068
169.666
169.285
174.403
186.725
197.775
199.31
191.101
176.506
158.827
140.397
122.786
106.829
92.9329
81.0479
71.4203
63.7635
0.330516
1.37215
8.11475
46.0862
89.3412
65.0836
71.0098
88.6054
109.856
118.682
125.666
153.137
165.9
174.64
181.776
186.728
192.297
198.157
200.264
195.902
185.478
170.771
153.86
136.45
119.725
104.378
90.8523
79.1183
69.4326
61.5401
0.274464
0.704803
5.17155
37.9338
95.918
55.4645
53.4628
62.7334
76.2298
95.3341
133.797
161.824
168.913
183.226
200.007
211.98
217.818
218.136
213.054
203.212
189.365
172.824
154.991
137.071
119.966
104.282
90.3987
78.2943
68.2078
59.8477
0.253267
0.4474
4.08252
26.647
108.315
66.8425
52.9367
57.061
64.969
89.1578
140.084
160.537
170.098
194.893
224.079
244.592
253.012
251.127
241.376
226.197
207.466
186.755
165.422
144.597
125.175
107.717
92.5577
79.4898
68.6871
59.6305
0.246618
0.414071
4.36651
21.4437
91.0818
94.3872
77.0178
67.6631
65.1257
90.3754
142.396
156.882
171.617
208.198
251.811
283.044
296.697
295.648
283.095
262.403
236.652
208.62
180.622
154.383
131.052
111.094
94.5682
80.7889
69.7666
60.4581
0.243157
0.478062
5.39413
19.8439
69.8602
87.5673
85.1136
77.8693
73.5495
93.7661
143.406
154.573
173.037
220.796
278.768
318.005
331.644
325.954
306.254
276.719
241.838
206.219
173.191
144.549
120.866
101.833
86.8463
74.6381
65.2517
57.1052
0.242998
0.539317
6.25975
19.6337
61.1983
82.8815
75.6539
66.04
71.816
96.4617
144.276
153.121
173.394
228.67
294.775
326.568
319.319
291.815
256.559
220.249
185.936
155.194
128.846
107.205
89.8853
76.4057
65.907
57.3208
50.8085
45.2282
0.55994
16.9523
122.399
282.426
338.546
349.829
333.193
322.615
318.426
307.462
272.871
222.012
197.689
238.442
211.673
87.6959
58.2497
50.1128
38.803
32.8432
34.4941
38.6655
41.4287
42.2124
41.3792
39.4216
36.7598
33.6208
30.0824
26.1775
0.652408
16.3547
111.215
237.731
301.48
329.741
312.72
293.614
291.226
282.886
246.709
208.614
200.527
245.762
298.615
142.335
63.2512
50.3863
42.1838
41.926
48.7934
55.9804
60.0984
61.3814
60.7499
58.9579
56.4896
53.4715
50.212
46.6948
0.920692
17.2512
108.932
221.593
292.684
341.48
326.371
278.125
262.125
250.651
217.409
194.778