/*--------------------------------*- C++ -*----------------------------------*\
| =========                 |                                                 |
| \\      /  F ield         | OpenFOAM: The Open Source CFD Toolbox           |
|  \\    /   O peration     | Version:  2512                                  |
|   \\  /    A nd           | Website:  www.openfoam.com                      |
|    \\/     M anipulation  |                                                 |
\*---------------------------------------------------------------------------*/
FoamFile
{
    version     2.0;
    format      ascii;
    arch        "LSB;label=32;scalar=64";
    class       volScalarField;
    location    "40";
    object      nut;
}
// * * * * * * * * * * * * * * * * * * * * * * * * * * * * * * * * * * * * * //

dimensions      [0 2 -1 0 0 0 0];

internalField   nonuniform List<scalar> 
90398
(
0.223543
0.313912
0.287587
0.256836
0.243386
0.259136
0.208278
0.108577
0.0948837
0.109922
0.114622
0.098878
0.0786517
0.0635697
0.0515054
0.0425941
0.0360873
0.0310515
0.0273297
0.0248166
0.0237702
0.024163
0.0257604
0.0278268
0.0284527
0.0291961
0.0290683
0.0272562
0.0254597
0.0263538
0.217137
0.229293
0.195416
0.160292
0.194374
0.131627
0.122905
0.153498
0.212377
0.24968
0.251359
0.225614
0.184409
0.1477
0.115961
0.0921804
0.0738774
0.0602008
0.049953
0.0421798
0.0375534
0.037269
0.0409449
0.0453643
0.0483753
0.0500471
0.0501058
0.0493164
0.0501397
0.0516492
0.237269
0.20814
0.185976
0.196399
0.128161
0.144058
0.181313
0.243016
0.304366
0.346314
0.36903
0.372395
0.355779
0.317234
0.259845
0.200855
0.15155
0.116871
0.0919492
0.0735515
0.0617172
0.0576238
0.0617735
0.0707987
0.0805161
0.0850159
0.086038
0.0861186
0.0890561
0.0954593
0.253302
0.264919
0.291552
0.147096
0.15365
0.170004
0.198361
0.241475
0.282156
0.304782
0.315465
0.324661
0.336048
0.344915
0.338157
0.308378
0.26081
0.211988
0.169283
0.133676
0.103746
0.0871637
0.0871736
0.0949407
0.101386
0.105547
0.110536
0.115384
0.120941
0.131419
0.254654
0.353887
0.18573
0.165877
0.157041
0.15826
0.168103
0.187788
0.211653
0.231399
0.238092
0.250234
0.268118
0.282233
0.293062
0.293311
0.282605
0.259639
0.228712
0.192643
0.157981
0.131507
0.119877
0.117845
0.118272
0.120495
0.126413
0.132851
0.138928
0.148709
0.226149
0.260848
0.1827
0.161141
0.152211
0.145543
0.13992
0.136794
0.143292
0.157848
0.164326
0.175159
0.202913
0.216996
0.225787
0.230835
0.230899
0.228071
0.22198
0.206554
0.184276
0.161291
0.14429
0.133124
0.127369
0.126054
0.129028
0.13247
0.135781
0.141782
0.173745
0.193783
0.216591
0.176505
0.168248
0.165447
0.168068
0.174488
0.171678
0.126751
0.110931
0.117624
0.150262
0.164291
0.166841
0.169091
0.173176
0.177636
0.182045
0.181844
0.175959
0.163451
0.146551
0.129903
0.11803
0.110613
0.106511
0.103249
0.101195
0.10021
0.134857
0.150317
0.255145
0.206131
0.201849
0.200571
0.204172
0.220878
0.265048
0.163416
0.0586028
0.0892786
0.0541411
0.059495
0.118263
0.11889
0.126885
0.136155
0.14375
0.148481
0.14795
0.138702
0.120931
0.102043
0.0868191
0.0749053
0.0662925
0.0604675
0.0558139
0.050678
0.113916
0.113076
0.262727
0.244136
0.254838
0.251742
0.2432
0.241511
0.140141
0.21096
0.0771932
0.157507
0.0342561
0.0370539
0.0812223
0.0855639
0.094527
0.105405
0.11325
0.116529
0.113594
0.101649
0.0832429
0.0660236
0.053322
0.0452603
0.0409975
0.0383875
0.0358393
0.034139
0.113341
0.0895971
0.270948
0.299375
0.340015
0.318387
0.277167
0.24978
0.107974
0.11396
0.055557
0.0715737
0.0548023
0.0330966
0.152276
0.0645473
0.0713679
0.081373
0.0883314
0.0876815
0.0805553
0.0672017
0.0525864
0.0419104
0.035746
0.0328084
0.0314899
0.0305326
0.0299449
0.0306646
0.150282
0.0834073
0.262115
0.3554
0.448116
0.44572
0.366935
0.319162
0.147082
0.105492
0.0296263
0.0233327
0.0782889
0.348479
0.146879
0.0538871
0.0618321
0.0673944
0.0638239
0.0552917
0.0445315
0.0360279
0.0312674
0.0290224
0.0280716
0.0277189
0.0277288
0.0283445
0.0301026
0.276666
0.117199
0.169854
0.301954
0.397868
0.552857
0.545546
0.571955
0.15979
0.185711
0.0506374
0.0314067
0.0286344
0.0605614
0.343727
0.175667
0.0419649
0.0479736
0.0509593
0.0465663
0.0394434
0.0328755
0.0289646
0.027315
0.0267891
0.0268307
0.0272838
0.0281323
0.0294947
0.0317454
0.369308
0.279013
0.164515
0.136617
0.267013
0.419681
0.562903
0.73534
0.782685
0.253175
0.104623
0.0569345
0.0879102
0.0927263
0.245932
0.100808
0.034674
0.038018
0.0392443
0.0354735
0.0308996
0.027789
0.0266764
0.0268349
0.0275615
0.0285917
0.0298839
0.0314059
0.0331889
0.0356683
0.432177
0.39297
0.203402
0.136927
0.254016
0.410395
0.676752
0.780402
0.799262
0.57315
0.2287
0.118606
0.121694
0.126203
0.1196
0.0540544
0.0293885
0.0308639
0.031144
0.028487
0.025989
0.0248487
0.0250303
0.0259494
0.0272096
0.028692
0.0303111
0.0318587
0.033221
0.0349663
0.506336
0.380607
0.194773
0.165113
0.518328
0.765939
0.859947
0.881504
0.614713
0.404228
0.171605
0.0912299
0.0633824
0.0645704
0.0575419
0.0339093
0.0249529
0.0254047
0.0251071
0.0235338
0.0224335
0.0222662
0.0227933
0.0236663
0.0246654
0.0257702
0.0269886
0.0282532
0.0294579
0.0308203
0.576594
0.425857
0.28756
0.457717
0.811825
1.07344
0.92842
0.605242
0.399618
0.2556
0.123877
0.0600235
0.0392054
0.0379492
0.0329956
0.0243531
0.0213121
0.0214259
0.0211957
0.0206739
0.0205508
0.0209691
0.0216489
0.0223257
0.0229553
0.0235967
0.0242604
0.02502
0.0261197
0.0278827
0.625008
0.632291
0.452223
0.617917
1.1441
0.971624
0.679445
0.393706
0.261886
0.173498
0.0943842
0.0369149
0.0261148
0.0248498
0.0222704
0.0193718
0.0186014
0.0188403
0.0190039
0.0191739
0.0195249
0.0200582
0.0207314
0.0214012
0.0218278
0.0220628
0.0223334
0.0230502
0.0242057
0.0265848
0.629058
0.696877
0.644005
0.6949
0.879652
0.769593
0.442358
0.28279
0.192297
0.135491
0.0605017
0.0227265
0.0181681
0.0174384
0.0167264
0.0163456
0.016792
0.0177021
0.0190064
0.0208557
0.0230536
0.0253356
0.0274712
0.0292648
0.0306601
0.0314379
0.0315597
0.0315798
0.0330596
0.0367042
0.573439
0.656945
0.632256
0.58745
0.670407
0.510125
0.34368
0.229327
0.159237
0.0832139
0.0174591
0.0154042
0.0145564
0.0149402
0.0159945
0.0172882
0.0192165
0.0215965
0.0243644
0.0273555
0.0305344
0.033892
0.0373028
0.0406249
0.0438157
0.0470201
0.050646
0.0551499
0.0606999
0.0740024
0.512945
0.646691
0.653091
0.58779
0.552361
0.31736
0.167446
0.209252
0.14682
0.0308935
0.0148976
0.0165189
0.0172282
0.0183386
0.0201729
0.0220078
0.0243639
0.0270752
0.0301816
0.0335599
0.0370715
0.0405313
0.0438059
0.0467845
0.0494419
0.0519489
0.0548935
0.0592647
0.0651198
0.0806529
0.459498
0.948528
1.2407
1.09761
0.865375
0.506147
0.395986
0.411939
0.848473
1.19619
1.14661
0.978197
0.810392
0.685418
0.586715
0.511489
0.457456
0.4135
0.374749
0.342883
0.325725
0.331479
0.346317
0.347066
0.331559
0.307338
0.276289
0.246554
0.225679
0.206993
0.469025
0.958989
0.832947
0.39311
0.351948
0.43342
0.666952
1.16844
1.90014
2.18064
2.16772
2.03464
1.81648
1.55597
1.27975
1.02245
0.852927
0.746477
0.660912
0.587668
0.532767
0.51424
0.526466
0.539581
0.538525
0.533866
0.523277
0.507509
0.477056
0.429547
0.598704
0.77833
0.387353
0.361466
0.574421
1.05953
1.50112
1.86641
2.25168
2.37871
2.33639
2.24616
2.05324
1.83757
1.65691
1.4718
1.30272
1.16419
1.03174
0.877377
0.747058
0.68039
0.675501
0.692788
0.704129
0.698274
0.682956
0.661696
0.640718
0.614883
0.829409
0.49711
0.388101
0.527801
0.915804
1.2775
1.66139
2.06631
2.23983
2.20949
2.11111
2.01569
1.94578
1.74285
1.55135
1.39272
1.27655
1.17807
1.07406
0.997837
0.926728
0.843081
0.794124
0.777191
0.770885
0.764961
0.756175
0.740476
0.72061
0.688035
0.816312
0.478554
0.38913
0.488505
0.633017
0.89132
1.33241
1.67139
1.9519
1.91842
1.81592
1.73186
1.68971
1.65987
1.58166
1.3248
1.14435
1.02262
0.943486
0.886953
0.857791
0.835155
0.813658
0.81801
0.82823
0.822041
0.817355
0.805302
0.784053
0.746517
0.616867
0.452735
0.39507
0.478334
0.558329
0.649167
0.778101
0.969446
1.16771
1.37422
1.42076
1.44128
1.44435
1.43901
1.42591
1.39313
1.12823
0.945297
0.834496
0.782127
0.77627
0.782469
0.79745
0.833135
0.866134
0.861082
0.85936
0.849634
0.827715
0.788243
0.568356
0.453733
0.463888
0.717904
0.874533
0.86801
0.772251
0.702702
0.68709
0.725315
0.824229
0.912455
1.18195
1.25378
1.25141
1.23377
1.1895
0.93411
0.786863
0.724231
0.721107
0.745899
0.791531
0.868183
0.877937
0.870679
0.864405
0.848357
0.816917
0.763618
0.520971
0.479364
0.55647
0.964917
1.15222
1.123
0.93269
0.774541
0.598704
0.42251
0.437702
0.396309
0.760114
0.789578
1.08633
1.08668
1.06369
0.935559
0.758067
0.688361
0.685266
0.721329
0.79525
0.864462
0.847705
0.820304
0.7852
0.731851
0.653003
0.515119
0.426168
0.515843
0.646883
1.0406
1.37484
1.47395
1.23314
0.967464
0.389644
0.234154
0.2555
0.191911
0.296313
0.312951
0.873185
0.848445
0.922666
0.888919
0.710283
0.641459
0.651456
0.707949
0.777321
0.780197
0.731191
0.670976
0.603793
0.523848
0.437134
0.354677
0.369842
0.545316
0.675335
1.06103
1.16583
1.33518
1.35632
0.95873
0.496258
0.32085
0.0747962
0.00331062
0.0176384
0.0509989
0.624077
0.598984
0.718054
0.802029
0.637287
0.594685
0.636267
0.687603
0.697741
0.64033
0.569762
0.500206
0.432397
0.366507
0.309358
0.26613
0.390829
0.536193
0.57359
0.960923
1.0775
1.28661
1.28712
0.873708
0.243601
0.135129
0.028548
0.329472
0.371327
0.599672
0.697436
0.567289
0.570645
0.634845
0.641942
0.5766
0.501131
0.432924
0.37297
0.320196
0.276141
0.243341
0.221445
0.840892
0.5404
0.61893
0.657921
0.990587
1.32133
1.55361
1.52418
0.595573
0.542738
0.240687
0.0257629
0.0185175
0.0392128
0.387612
0.256006
0.511865
0.572729
0.520914
0.585033
0.598609
0.546716
0.478272
0.418042
0.370711
0.332462
0.300847
0.275507
0.256285
0.241852
1.67191
0.98123
0.897392
0.71592
0.86135
1.3364
1.65279
1.71941
1.81116
1.43906
0.776856
0.114887
0.142225
0.194269
0.352004
0.239422
0.468386
0.476144
0.519383
0.565501
0.528866
0.48044
0.434568
0.404748
0.386626
0.373646
0.362015
0.350153
0.337535
0.323784
2.25813
1.46883
1.08368
1.00215
1.01884
1.63996
1.70911
1.91258
1.88557
1.54509
0.885995
0.307168
0.208032
0.264179
0.272073
0.280613
0.429926
0.423655
0.530929
0.504727
0.468073
0.431814
0.408519
0.399553
0.39729
0.395683
0.390153
0.377691
0.358169
0.334767
2.15524
1.34957
0.793956
0.843732
1.72438
2.12975
2.5126
2.40973
2.0638
1.33961
0.680264
0.264471
0.18077
0.225688
0.251207
0.293694
0.331374
0.378087
0.460981
0.420514
0.375082
0.340271
0.32029
0.311088
0.309425
0.314045
0.321379
0.322453
0.303268
0.274675
2.03861
1.97156
1.32734
1.83118
3.62509
3.14497
2.96083
2.66306
1.80406
0.952121
0.422713
0.158383
0.156041
0.192551
0.227742
0.247469
0.282034
0.323038
0.343109
0.307041
0.238445
0.192184
0.174377
0.174694
0.187388
0.218663
0.227977
0.22907
0.224804
0.214666
2.21044
2.48179
1.96964
2.67134
3.1979
2.97979
2.6093
2.10339
1.19153
0.591161
0.20296
0.110181
0.125942
0.152506
0.17919
0.193016
0.210577
0.20909
0.189344
0.168652
0.158956
0.163191
0.178249
0.197847
0.213351
0.217069
0.218912
0.224468
0.223681
0.220806
2.27325
2.71573
2.24321
2.56783
2.96797
2.21511
1.73062
1.27121
0.760329
0.311071
0.103245
0.0789267
0.0951776
0.12121
0.142098
0.155109
0.166698
0.176285
0.191975
0.225472
0.28573
0.312801
0.345993
0.376788
0.392867
0.391812
0.379292
0.366223
0.361576
0.365844
2.04493
2.51993
2.37071
2.04068
1.82545
1.11603
0.87109
0.727652
0.444774
0.153132
0.0700249
0.079025
0.118955
0.156557
0.170717
0.197014
0.221621
0.257622
0.315451
0.38731
0.423618
0.458062
0.484256
0.501489
0.511811
0.514988
0.512475
0.50497
0.49114
0.465866
1.81936
2.28487
2.26221
1.89757
1.37513
0.643837
0.655687
0.466504
0.31425
0.104984
0.0960598
0.134354
0.226581
0.271507
0.264787
0.305275
0.337981
0.393407
0.435005
0.462621
0.488506
0.51031
0.528004
0.517135
0.512028
0.517226
0.528835
0.522447
0.511652
0.486238
0.554773
1.20399
1.37838
1.18701
0.820106
0.673184
0.615023
0.916788
1.53202
1.98344
1.9987
1.77071
1.49083
1.21915
0.984548
0.813936
0.716971
0.658789
0.61728
0.582076
0.554322
0.539158
0.53161
0.519234
0.492259
0.456216
0.413868
0.372585
0.3342
0.2868
0.743273
0.91928
0.709418
0.626826
0.665839
0.836399
1.26891
1.64913
2.11044
2.61701
2.78313
2.5141
2.15623
1.86458
1.61435
1.38694
1.2075
1.11285
1.02522
0.925463
0.843667
0.79683
0.78048
0.738816
0.678969
0.647546
0.627229
0.608389
0.575955
0.52453
0.841938
0.707712
0.625565
0.924838
1.47146
1.76404
2.09364
2.51814
2.85766
2.89668
2.82064
2.70169
2.57201
2.24941
1.957
1.74174
1.58074
1.43697
1.29052
1.1882
1.09462
1.00642
0.942461
0.922676
0.893398
0.868623
0.830294
0.789506
0.765075
0.791814
0.737822
0.701283
0.846327
1.21691
1.57802
1.99488
2.38403
2.64439
2.74116
2.67224
2.51139
2.34931
2.2484
2.18196
2.10505
1.92904
1.66063
1.48634
1.3551
1.2189
1.11074
1.06801
1.05622
1.01625
0.992376
0.980916
0.967427
0.946475
0.919651
0.884278
0.643973
0.701795
0.932024
1.15035
1.40554
1.70131
2.02985
2.34125
2.46239
2.3806
2.19368
2.02562
1.93086
1.88792
1.85329
1.8
1.72535
1.48504
1.29047
1.1381
1.03728
0.98859
0.979598
0.989614
1.00552
1.03106
1.02837
1.01174
0.985625
0.948965
0.584094
0.702748
0.959653
1.13115
1.29189
1.42707
1.57576
1.75309
1.89645
1.90787
1.77623
1.67464
1.64449
1.62971
1.61786
1.59028
1.54082
1.4688
1.23342
1.0519
0.937623
0.879411
0.860099
0.885979
0.953924
1.02147
1.0727
1.06883
1.04711
1.0131
0.590322
0.69547
1.02493
1.27526
1.44001
1.44715
1.36575
1.28286
1.23332
1.22166
1.12102
1.16169
1.36481
1.42954
1.44056
1.41946
1.38116
1.32572
1.20475
0.991992
0.864312
0.790495
0.77217
0.821008
0.926237
1.02698
1.08941
1.08784
1.06395
1.01884
0.620995
0.691929
1.07858
1.38695
1.48172
1.58175
1.57425
1.42523
1.05074
0.692139
0.511656
0.645758
1.02051
1.07755
1.28436
1.32404
1.27481
1.217
1.15259
0.947632
0.79471
0.710236
0.713527
0.79975
0.939262
1.03665
1.05701
1.02011
0.949012
0.826762
0.594067
0.688383
1.00563
1.41149
1.57747
1.87364
2.09341
2.04655
1.18568
0.654252
0.243905
0.264216
0.597645
0.722379
0.970225
1.1135
1.18288
1.13948
1.06896
0.864046
0.693449
0.634784
0.677488
0.795369
0.902949
0.928306
0.891815
0.800211
0.679686
0.549067
0.488294
0.726635
0.872485
1.30433
1.60252
1.77751
2.25402
2.49031
1.85168
0.952863
0.398878
0.0189307
0.0345833
0.0951772
0.686278
0.690301
0.913168
1.06458
0.944938
0.726355
0.590223
0.58702
0.666764
0.751409
0.763689
0.707961
0.625199
0.531088
0.432612
0.351384
0.533781
0.564353
0.799828
1.12221
1.60383
1.64938
1.98138
2.22488
1.59402
0.535574
0.236728
0.0434414
0.677734
0.578239
0.682113
0.959685
0.772905
0.584278
0.521476
0.58436
0.673345
0.718156
0.630369
0.532106
0.43476
0.348261
0.281081
0.234335
1.3812
0.712573
0.795661
1.20622
1.21331
1.62451
1.86565
2.24906
1.88356
1.58466
1.2471
0.0353394
0.0519744
0.0552045
0.735272
0.609323
0.591972
0.811024
0.601731
0.489257
0.513306
0.647799
0.691064
0.619241
0.542845
0.471112
0.406619
0.352988
0.311472
0.279323
2.25893
1.7673
1.68743
1.52709
1.00578
1.32277
1.92382
2.06574
2.20293
1.94166
1.23296
0.390177
0.162539
0.300381
0.601993
0.56425
0.571561
0.628365
0.482516
0.454324
0.573739
0.68731
0.650743
0.613107
0.584538
0.562311
0.542153
0.522993
0.502695
0.477368
2.67017
2.24967
1.58807
1.59731
1.52092
2.10264
2.39052
2.5357
2.40921
1.95606
1.27435
0.629378
0.271245
0.440944
0.522065
0.531723
0.508855
0.483572
0.420705
0.452844
0.597765
0.647786
0.629784
0.622272
0.622582
0.623764
0.618013
0.59929
0.563905
0.514262
2.36445
2.4039
1.67823
1.71197
2.24468
3.21095
3.52029
3.21591
2.64914
1.8197
1.00119
0.499101
0.290794
0.40289
0.477296
0.425816
0.402124
0.395678
0.386997
0.428853
0.499633
0.531226
0.533231
0.528627
0.538803
0.557417
0.57285
0.559439
0.514366
0.446821
2.34482
2.92516
2.54432
2.43085
3.8044
3.61329
3.38458
3.27077
2.38685
1.24242
0.654978
0.364719
0.267809
0.291508
0.31058
0.310674
0.327007
0.342919
0.354802
0.387817
0.439806
0.403226
0.375436
0.367294
0.37415
0.391012
0.409727
0.417669
0.404196
0.363386
2.49296
3.36201
2.71398
2.9608
3.84281
2.89183
3.00899
2.78449
1.48035
0.753921
0.411105
0.260968
0.212707
0.226172
0.245532
0.264706
0.292166
0.315302
0.335366
0.36764
0.37365
0.353341
0.353182
0.36631
0.383221
0.39787
0.410725
0.424436
0.435858
0.399086
2.56611
3.34333
2.97871
3.13636
2.91646
2.4449
2.43381
1.72813
0.880394
0.453684
0.23993
0.198082
0.185799
0.201665
0.22845
0.250635
0.277632
0.302016
0.334578
0.386248
0.41711
0.439085
0.473295
0.509921
0.539224
0.558598
0.535135
0.513004
0.509183
0.485854
2.66361
2.9438
2.91082
2.70892
2.09852
1.47736
1.31877
0.988957
0.607097
0.276211
0.185101
0.158576
0.171725
0.199853
0.226583
0.248833
0.274098
0.306142
0.351679
0.420659
0.509581
0.545049
0.578493
0.605849
0.624566
0.632701
0.603399
0.570991
0.54749
0.556598
2.46252
2.8806
2.6264
1.97533
1.5374
0.969616
0.762764
0.585496
0.454884
0.193961
0.168467
0.148366
0.19359
0.227965
0.227144
0.25667
0.292482
0.345067
0.419475
0.526814
0.566657
0.595408
0.618818
0.635279
0.643455
0.643245
0.635425
0.619347
0.604043
0.572017
0.736087
1.24857
1.37624
1.39077
1.21054
1.04077
1.00411
1.27925
1.76407
2.28938
2.66108
2.46987
2.16887
1.8015
1.43222
1.13765
0.981109
0.896449
0.827176
0.783709
0.749375
0.716659
0.685503
0.657687
0.621022
0.574694
0.52307
0.47222
0.422573
0.358221
0.915229
1.08595
1.03754
1.1435
1.27919
1.38948
1.70453
2.02143
2.45882
2.92216
3.08752
2.86371
2.4867
2.13992
1.85396
1.61475
1.41955
1.27348
1.18344
1.17078
1.08419
1.01313
0.855329
0.779887
0.726283
0.675401
0.629391
0.59861
0.572515
0.533137
0.81111
1.03367
1.24264
1.48883
1.97025
2.28056
2.50586
2.81228
3.09797
3.2944
3.14884
2.96332
2.79909
2.64862
2.28445
1.96939
1.75453
1.59961
1.46714
1.33112
1.22502
1.17657
1.12914
1.08118
1.01324
0.940739
0.86664
0.803688
0.760725
0.765701
0.787024
1.05443
1.23526
1.57214
2.04268
2.51028
2.87726
3.10777
3.1768
3.05092
2.81004
2.55831
2.397
2.3063
2.2282
2.13539
2.03556
1.82135
1.61451
1.44021
1.30787
1.24469
1.25607
1.21031
1.13865
1.09767
1.06903
1.04172
1.01275
0.977783
0.740903
1.03818
1.23787
1.58142
1.9969
2.37647
2.67358
2.89954
2.95218
2.80367
2.53074
2.25572
2.08066
1.99065
1.93745
1.87622
1.80063
1.72471
1.65152
1.51718
1.31668
1.19062
1.13583
1.09659
1.07794
1.09246
1.11969
1.09764
1.07149
1.03731
0.715062
1.05828
1.29704
1.6699
1.86074
2.1355
2.46046
2.6028
2.64306
2.45294
2.14597
1.89142
1.77318
1.73229
1.70065
1.65781
1.59469
1.52373
1.4586
1.39888
1.25646
1.09042
0.97192
0.903413
0.90375
0.956683
1.01363
1.06045
1.08809
1.11471
0.728652
1.12391
1.40275
1.78381
1.73449
1.89118
2.29242
2.21319
2.07882
1.85744
1.57919
1.46956
1.49823
1.55351
1.56505
1.51387
1.44811
1.37546
1.3096
1.25526
1.16585
0.990804
0.846435
0.77257
0.798923
0.883116
0.96651
1.03846
1.07614
1.09909
0.759054
1.13448
1.44608
1.67882
1.73852
1.90791
2.27702
2.29736
2.01946
1.70166
1.13332
0.87787
1.02319
1.18247
1.49754
1.52491
1.40981
1.307
1.22071
1.15822
1.08796
0.894449
0.736699
0.706707
0.779702
0.887991
0.98767
1.06042
1.06705
1.01631
0.761477
1.04019
1.25865
1.65262
1.73302
1.92271
2.33832
2.68085
2.58531
2.06413
0.93981
0.412122
0.370215
0.754758
1.30724
1.34628
1.33509
1.29065
1.17798
1.09744
0.988781
0.761013
0.650764
0.68187
0.775511
0.881499
0.936611
0.92098
0.829506
0.707527
0.6335
0.937825
1.09064
1.583
1.72538
1.81918
2.30869
2.71624
2.66534
2.37299
1.37349
0.204485
0.336245
0.284725
1.12704
1.08845
1.15917
1.13925
1.09037
1.01655
0.822053
0.634282
0.601382
0.656727
0.745434
0.792346
0.763433
0.66557
0.543199
0.43968
0.698484
0.632944
0.901198
1.44217
1.85792
1.95136
2.27359
2.58712
2.56221
2.42277
1.6702
0.0719352
0.240847
0.248048
0.908992
0.852099
1.01573
1.04494
0.974929
0.860214
0.651364
0.55349
0.580329
0.665433
0.749941
0.744325
0.609633
0.467787
0.348789
0.264676
1.79365
1.31197
1.29472
1.70523
1.7807
2.15688
2.46827
2.5427
2.41406
2.11382
1.42622
0.21643
0.225929
0.0690768
0.788507
0.699668
0.914206
0.964828
0.856906
0.690983
0.540925
0.538381
0.639475
0.771421
0.781416
0.69498
0.597208
0.503372
0.426144
0.364322
2.59563
2.82357
2.4613
1.98827
1.83707
2.01688
2.48415
2.55035
2.47066
2.0385
1.47586
0.912393
0.534743
0.452992
0.713737
0.648415
0.846446
0.871498
0.723678
0.559324
0.507153
0.591702
0.762171
0.844013
0.820756
0.793063
0.764904
0.741208
0.721148
0.69374
2.96169
2.99292
2.43023
1.99422
1.90711
2.28394
2.95176
3.12331
2.88099
2.21153
1.65764
1.20371
0.804993
0.619898
0.670696
0.684121
0.790709
0.73592
0.581005
0.491299
0.512357
0.623672
0.741008
0.831075
0.861221
0.86584
0.865451
0.855432
0.827029
0.766927
2.76027
3.21294
2.53466
2.24682
2.67679
3.35519
3.74791
3.62228
2.99858
2.14379
1.52622
1.06318
0.745106
0.595866
0.671864
0.683147
0.650777
0.564837
0.474796
0.457148
0.497751
0.562111
0.619864
0.666602
0.711005
0.778317
0.868895
0.867532
0.836712
0.766928
2.83663
3.64691
2.79513
2.73542
3.95722
3.64907
3.41331
3.22017
2.74575
1.69241
1.08904
0.793254
0.583618
0.522948
0.547119
0.509223
0.475643
0.439699
0.41932
0.439796
0.482608
0.543005
0.606837
0.637828
0.660761
0.673984
0.70687
0.752149
0.730376
0.669426
2.89119
3.98753
3.56253
3.69514
4.1712
3.11556
2.89891
2.90124
1.97791
1.11382
0.757641
0.567133
0.430355
0.383684
0.374024
0.36734
0.373653
0.381944
0.405648
0.45834
0.542013
0.581517
0.581469
0.601465
0.633931
0.669334
0.660304
0.667856
0.666159
0.626392
2.75959
3.74453
3.81305
3.68759
2.75286
2.35537
2.47803
2.05476
1.16085
0.70691
0.481823
0.393289
0.310817
0.278215
0.286773
0.301046
0.326372
0.358252
0.410416
0.497197
0.584332
0.600512
0.628682
0.665008
0.702299
0.70676
0.664348
0.625121
0.607087
0.608946
2.92212
3.23488
3.17335
2.65006
2.12659
1.99863
1.78971
1.28606
0.831811
0.475051
0.319798
0.274721
0.233021
0.227808
0.245684
0.262804
0.289272
0.325576
0.378428
0.450596
0.541208
0.642124
0.675421
0.702333
0.72139
0.730268
0.728331
0.693844
0.649326
0.659726
2.56634
3.14121
2.38439
2.17784
1.77722
1.35399
1.10195
0.907521
0.723207
0.339481
0.292204
0.218419
0.220778
0.234243
0.234929
0.25012
0.274613
0.315457
0.379026
0.467776
0.583397
0.673423
0.699112
0.716444
0.723925
0.720575
0.708138
0.683542
0.659938
0.62553
1.13103
1.62947
1.77822
1.82234
1.68142
1.5331
1.43436
1.62596
2.08048
2.67083
3.11161
3.10941
2.78294
2.37241
1.96604
1.59897
1.28765
1.07595
1.05911
0.963851
0.908809
0.867104
0.824437
0.778587
0.726453
0.672461
0.614447
0.553166
0.49123
0.414111
1.07187
1.51744
1.55134
1.57062
1.94092
1.97131
2.14914
2.4595
2.88604
3.30807
3.41544
3.23529
2.90341
2.5173
2.17309
1.90532
1.67927
1.4764
1.31349
1.21682
1.18999
1.16488
1.00723
0.880867
0.79622
0.725965
0.661843
0.616489
0.585393
0.551329
0.991648
1.4005
1.52779
1.86978
2.33847
2.55635
2.77309
3.02881
3.30056
3.43929
3.44184
3.19885
2.9778
2.80881
2.65537
2.28467
2.00953
1.80455
1.63888
1.49165
1.37725
1.31393
1.30532
1.24803
1.14382
1.02638
0.913458
0.825692
0.766479
0.751094
0.972591
1.30425
1.50109
1.94589
2.52516
3.0613
3.44648
3.65457
3.67822
3.48705
3.17585
2.82777
2.56038
2.41518
2.31646
2.22373
2.13293
2.04336
1.93148
1.72115
1.56249
1.47035
1.45221
1.41441
1.30915
1.23324
1.1786
1.13532
1.08721
1.0618
0.943042
1.30533
1.50988
2.00358
2.50634
3.06942
3.3504
3.50296
3.4909
3.30411
2.98473
2.61758
2.31816
2.1347
2.02418
1.93545
1.8532
1.7788
1.7112
1.64806
1.58474
1.50358
1.38431
1.30443
1.24818
1.22492
1.19986
1.16351
1.13312
1.10031
0.925964
1.31403
1.60305
2.13601
2.11561
2.37311
3.26422
3.40787
3.37222
3.15279
2.78377
2.38628
2.09269
1.92619
1.82719
1.73949
1.64828
1.56507
1.49301
1.43208
1.37975
1.33237
1.25918
1.10466
1.01149
0.99371
1.00488
1.02462
1.03976
1.11402
0.939674
1.31881
1.71423
2.08905
1.98649
1.99434
2.30916
2.73892
2.9126
2.85191
2.42896
2.09631
1.90546
1.82708
1.7695
1.6659
1.54668
1.43599
1.34779
1.27937
1.22837
1.19191
1.11467
0.942163
0.837945
0.827961
0.862994
0.915252
0.965193
1.01659
0.970443
1.27045
1.68461
2.02925
1.92679
1.87386
2.1213
2.7726
3.06234
2.73401
2.29357
2.04333
1.88568
1.69642
1.64995
1.69846
1.59828
1.43016
1.29723
1.20109
1.13766
1.10299
0.992859
0.814256
0.750363
0.785091
0.848226
0.921688
0.966859
0.968768
0.988438
1.2158
1.49805
2.21125
1.94752
1.89592
2.22141
2.884
2.96646
2.67198
2.19696
1.80486
1.4678
1.38377
1.57452
1.59296
1.52407
1.44011
1.29887
1.17109
1.08872
1.051
0.862694
0.717658
0.726184
0.781791
0.832054
0.871531
0.845695
0.757751
0.869415
1.13566
1.38663
1.89549
2.53666
2.01777
2.22689
2.71668
2.67804
2.50243
2.16779
1.59609
1.36669
1.24872
1.5229
1.50906
1.45159
1.31805
1.19414
1.0861
1.01935
0.925602
0.720516
0.680857
0.700093
0.721646
0.739189
0.732428
0.685424
0.555745
0.907585
0.928355
1.2972
1.89976
2.31978
2.64086
2.5241
2.55862
2.45312
2.37844
1.90903
1.35689
1.24095
1.1347
1.33111
1.34837
1.38936
1.24008
1.0898
0.976877
0.904599
0.747225
0.658695
0.663727
0.678545
0.70209
0.719993
0.70422
0.515207
0.353556
1.90303
2.12306
2.30574
2.29983
2.34846
2.68177
2.9607
2.76662
2.62812
2.34161
1.71396
1.39746
1.2508
1.02815
1.17783
1.24885
1.33729
1.157
0.998427
0.888327
0.776323
0.659567
0.657906
0.698874
0.753121
0.798647
0.816331
0.763944
0.644179
0.536927
2.92882
3.20351
2.84535
2.41672
2.23296
2.36693
2.90739
3.24095
3.24249
2.42939
1.79042
1.60544
1.43979
1.17394
1.14246
1.19695
1.24867
1.04812
0.918579
0.806702
0.672332
0.640419
0.700406
0.794665
0.896638
0.964874
0.989478
0.9672
0.943527
0.91569
3.34084
3.42353
2.79185
2.27999
2.13289
2.55812
2.82035
3.34766
3.55171
2.78569
2.00997
1.699
1.43118
1.10944
1.15685
1.12801
1.09321
0.94502
0.838827
0.707778
0.605803
0.642877
0.726817
0.826412
0.929734
1.01229
1.06754
1.06478
1.05719
1.02461
3.3842
3.69108
3.00439
2.58019
2.70017
3.07411
3.53179
3.7739
3.37062
2.64731
2.06187
1.72775
1.38919
1.09281
1.05522
1.04155
0.934625
0.838321
0.72312
0.601389
0.57191
0.623582
0.679781
0.746858
0.825593
0.914964
0.994851
1.05573
1.06162
1.02309
3.50896
4.02401
3.31922
3.30791
4.01844
3.48392
3.31244
3.28475
3.06807
2.39856
1.75551
1.38705
1.09386
0.931562
0.916242
0.835073
0.736451
0.667753
0.583897
0.541971
0.567867
0.621831
0.667165
0.713287
0.756636
0.804969
0.860855
0.896671
0.900982
0.895645
3.40188
4.29465
4.76701
4.67121
4.09879
3.02435
2.94004
3.00458
2.71372
1.86023
1.33235
1.02366
0.817679
0.711901
0.644618
0.572765
0.53431
0.508086
0.498234
0.531512
0.612998
0.71327
0.793115
0.826412
0.81747
0.797691
0.78071
0.757265
0.742607
0.73684
3.02016
3.96018
3.97306
3.57473
2.58395
2.34467
2.52059
2.27706
1.79894
1.18335
0.871519
0.702766
0.562127
0.468207
0.424839
0.401088
0.398647
0.408738
0.445483
0.52246
0.644987
0.774039
0.803822
0.833502
0.860242
0.816237
0.754079
0.711681
0.678031
0.691756
3.1974
3.45272
3.09791
2.52479
2.3422
1.9306
1.74905
1.53908
1.23451
0.759052
0.5558
0.480141
0.38094
0.331791
0.318927
0.314741
0.324075
0.347512
0.392603
0.463785
0.556323
0.652412
0.746722
0.811199
0.824404
0.823418
0.8057
0.772569
0.731102
0.698815
2.74154
3.24757
2.86441
2.43657
1.72
1.37082
1.29586
1.13365
0.908359
0.588093
0.490467
0.375037
0.337728
0.321667
0.308394
0.312345
0.326273
0.35198
0.390431
0.450952
0.537053
0.633445
0.730694
0.808635
0.814902
0.805119
0.781935
0.742719
0.710261
0.67143
1.25798
2.12815
2.34242
2.07009
1.77642
1.71172
1.94999
2.07581
2.55477
3.21893
3.56237
3.51551
3.24775
2.84483
2.44396
2.10893
1.79531
1.48479
1.2322
1.15702
1.06721
0.994166
0.940182
0.885108
0.82213
0.754877
0.685482
0.614612
0.544995
0.459892
1.29875
1.90199
1.74754
1.84738
2.31101
2.58881
2.74425
3.04327
3.49027
3.8483
3.77654
3.56369
3.29392
2.92182
2.53383
2.2422
2.01892
1.79884
1.57551
1.38985
1.27698
1.23221
1.17244
1.0408
0.911813
0.810535
0.726248
0.66612
0.631108
0.608733
1.23247
1.79142
1.90346
2.21594
2.40134
2.71371
3.02205
3.33138
3.67538
3.79101
3.66901
3.40861
3.09857
2.89944
2.75132
2.6308
2.33566
2.09378
1.89418
1.72018
1.57484
1.49079
1.45487
1.40229
1.2788
1.12133
0.97388
0.862112
0.791757
0.777973
1.21683
1.6463
1.73077
2.06907
2.82233
3.10905
3.28625
3.58738
3.95419
3.91381
3.55209
3.13058
2.76347
2.52357
2.3747
2.27242
2.19081
2.1158
2.04055
1.96233
1.82312
1.70026
1.63018
1.57013
1.4595
1.36604
1.29282
1.19459
1.09678
1.08107
1.2365
1.51261
1.72309
2.07251
2.67828
3.22062
3.79558
4.09406
3.98861
3.7638
3.42421
3.01751
2.63387
2.33623
2.13166
1.99405
1.89663
1.81988
1.75325
1.69381
1.63635
1.57568
1.51022
1.44309
1.37741
1.31336
1.25533
1.20741
1.17154
1.13991
1.23912
1.44706
1.79472
2.10083
2.39824
2.79695
3.67111
4.00351
3.90239
3.68682
3.16066
2.85283
2.52134
2.21754
2.01131
1.84838
1.7173
1.61547
1.53206
1.46213
1.40297
1.35142
1.30491
1.26517
1.23529
1.21385
1.17414
1.12885
1.08479
1.15437
1.25468
1.41862
1.9038
2.19877
2.36365
2.45784
2.81491
3.38322
3.31959
3.05797
2.94214
2.76996
2.41501
2.18149
2.01904
1.85385
1.68399
1.53715
1.41673
1.32183
1.2496
1.19675
1.16068
1.14228
1.11897
0.991355
0.919082
0.901952
0.922743
1.00847
1.2801
1.38856
1.88055
2.29824
2.34634
2.2274
2.3485
2.77148
3.14817
3.25282
3.09462
2.77987
2.50118
2.19058
1.95747
1.92942
1.79073
1.5914
1.41887
1.28039
1.17864
1.11229
1.07925
1.07964
0.960775
0.859108
0.835905
0.862546
0.90932
0.953658
1.2498
1.412
1.73317
2.36363
2.56462
2.18235
2.24627
2.82779
3.08752
2.81443
2.56119
2.40332
2.26765
2.14103
1.97842
2.02787
1.86856
1.64308
1.44242
1.27632
1.15031
1.0695
1.03973
1.00452
0.861631
0.814239
0.827595
0.864327
0.868356
0.817309
1.16423
1.40798
1.73623
2.18615
2.7162
2.60682
2.41026
2.82405
2.6574
2.39273
2.2775
2.20198
2.16271
2.10748
2.01297
2.05013
1.84065
1.62104
1.42031
1.25049
1.12013
1.04009
1.02659
0.889445
0.799066
0.793619
0.789154
0.760207
0.711467
0.659162
1.30481
1.47803
2.13227
2.32899
2.65697
3.0623
3.19342
2.74096
2.40284
2.34533
2.20998
2.068
2.02812
1.95708
1.87842
1.95084
1.76097
1.55717
1.34477
1.16812
1.03497
0.977759
0.938053
0.808363
0.798027
0.792437
0.763228
0.73254
0.683955
0.614237
1.95565
2.38975
2.96983
2.77709
2.82798
3.05198
3.38818
2.99966
2.95226
2.70253
2.17222
1.93846
1.87371
1.81257
1.74637
1.85314
1.6726
1.47861
1.25712
1.08952
0.962424
0.927624
0.848876
0.820098
0.841781
0.8422
0.836635
0.826019
0.786054
0.71546
3.0897
3.51791
3.09311
2.91401
2.80648
3.0021
3.50391
3.69121
3.53934
3.16954
2.23833
1.91446
1.82906
1.75287
1.71211
1.75981
1.578
1.35634
1.15766
1.01226
0.914349
0.868917
0.824078
0.864984
0.913295
0.949745
0.983656
1.01152
1.02505
1.0267
3.63367
3.71623
3.20911
2.68144
2.53794
3.23202
3.14344
3.65528
4.03833
3.49801
2.49097
2.00761
1.84353
1.67621
1.65688
1.61905
1.42362
1.18254
1.04519