/*--------------------------------*- C++ -*----------------------------------*\
| =========                 |                                                 |
| \\      /  F ield         | OpenFOAM: The Open Source CFD Toolbox           |
|  \\    /   O peration     | Version:  2512                                  |
|   \\  /    A nd           | Website:  www.openfoam.com                      |
|    \\/     M anipulation  |                                                 |
\*---------------------------------------------------------------------------*/
FoamFile
{
    version     2.0;
    format      ascii;
    arch        "LSB;label=32;scalar=64";
    class       volScalarField;
    location    "40";
    object      nut;
}
// * * * * * * * * * * * * * * * * * * * * * * * * * * * * * * * * * * * * * //

dimensions      [0 2 -1 0 0 0 0];

internalField   nonuniform List<scalar> 
84826
(
0.0144158
0.00748135
0.0548415
0.176152
0.262383
0.278033
0.247329
0.225143
0.234424
0.281289
0.314186
0.297129
0.26736
0.238872
0.240871
0.24658
0.235751
0.213294
0.191127
0.16825
0.14554
0.0562328
0.0152262
0.011055
0.0109278
0.0109243
0.0109552
0.0110259
0.0112401
0.011621
0.0144077
0.00679953
0.0473092
0.153774
0.257068
0.274525
0.252905
0.210372
0.206308
0.23793
0.292003
0.286085
0.260943
0.235406
0.242239
0.248
0.23228
0.208871
0.183472
0.156742
0.0800145
0.0232679
0.0128073
0.0127435
0.0128161
0.0128716
0.0129099
0.0129142
0.0130392
0.013387
0.014151
0.00669948
0.0384677
0.122911
0.206435
0.223389
0.20279
0.18468
0.177575
0.195071
0.229287
0.267061
0.253454
0.235947
0.240769
0.236037
0.218098
0.197874
0.172753
0.115406
0.0387203
0.0147406
0.0129765
0.0128785
0.0128712
0.012991
0.013126
0.0131774
0.0133163
0.0137128
0.0143611
0.00767085
0.0310252
0.0994495
0.166151
0.0926737
0.0887342
0.121643
0.138998
0.155801
0.182831
0.203465
0.197164
0.19484
0.195581
0.171722
0.147631
0.161834
0.164979
0.0622052
0.0233503
0.013205
0.0123808
0.0120548
0.0120191
0.0121189
0.0122657
0.0122696
0.0122403
0.0123849
0.0143122
0.0100685
0.0254752
0.0799189
0.0836621
0.0626852
0.0599201
0.0763598
0.106626
0.124196
0.147003
0.160177
0.159743
0.154693
0.142088
0.124327
0.130479
0.176343
0.102491
0.0411833
0.017972
0.0127868
0.0121316
0.0119055
0.0119384
0.0120869
0.0122456
0.0122914
0.012161
0.0121265
0.0127838
0.0112501
0.0218725
0.0516412
0.0730898
0.0672065
0.0644117
0.0698321
0.09539
0.110194
0.125202
0.141842
0.1479
0.143597
0.140074
0.16278
0.181752
0.119081
0.0584571
0.0307032
0.0151897
0.0124865
0.0121095
0.0119767
0.012077
0.0122944
0.0125082
0.0126599
0.0124635
0.0122529
0.00898849
0.00814392
0.0179932
0.0433167
0.0802643
0.0798052
0.0773464
0.0839757
0.115144
0.117257
0.121445
0.145829
0.156077
0.180532
0.174066
0.0815094
0.0539431
0.0344339
0.023685
0.0162867
0.0132564
0.0129077
0.0123853
0.0121657
0.0122701
0.012569
0.0129038
0.0131841
0.0129877
0.0126118
0.00807043
0.00607019
0.013378
0.0409367
0.0852507
0.0867187
0.0882196
0.100498
0.16661
0.124054
0.0506035
0.0536264
0.0507109
0.046158
0.0609962
0.0273686
0.0207584
0.0191693
0.0180517
0.0171391
0.0161917
0.0148297
0.0136022
0.0128382
0.0126199
0.0128223
0.0132302
0.0136758
0.0135531
0.0130327
0.00728895
0.00529081
0.0127342
0.035374
0.0896203
0.0891764
0.0888905
0.101419
0.108693
0.121391
0.0564847
0.0386929
0.032747
0.0373786
0.0302624
0.0275534
0.0273823
0.0262016
0.0248863
0.0232703
0.0212607
0.0189102
0.0165904
0.0147492
0.0136594
0.0133083
0.0134814
0.0139298
0.0138972
0.0132301
0.00689084
0.00539838
0.0161839
0.0448508
0.0993749
0.0931112
0.0811183
0.083273
0.11054
0.102935
0.0393656
0.00769308
0.0134355
0.0133708
0.0311988
0.0337567
0.0344017
0.0340018
0.0331192
0.0314845
0.0290473
0.0258083
0.0221821
0.0188217
0.0162773
0.0147515
0.0141167
0.0140952
0.013908
0.0130153
0.00860355
0.00648136
0.0183219
0.0540589
0.113139
0.10133
0.069555
0.0731617
0.0841669
0.101274
0.0666788
0.0267832
0.0106498
0.0391451
0.0405693
0.0425823
0.0434036
0.0434871
0.0423813
0.0400142
0.0362129
0.0313
0.0261082
0.0215721
0.0182468
0.0161788
0.0150201
0.0140054
0.0124883
0.0103564
0.00766758
0.0201836
0.0636841
0.125341
0.116587
0.0642391
0.0627058
0.0760175
0.102306
0.0709249
0.0406651
0.0119711
0.0154329
0.0449123
0.0486285
0.0524081
0.0548093
0.0565577
0.0567221
0.0550751
0.0512372
0.0452881
0.0380819
0.030943
0.025103
0.0210591
0.0181788
0.0156775
0.0130031
0.0102438
0.00933373
0.0272439
0.0727075
0.12692
0.13335
0.0642105
0.0582081
0.0663863
0.0687345
0.0374848
0.0603612
0.0197161
0.019807
0.0516662
0.0582072
0.0642362
0.0681304
0.0703055
0.0711139
0.0700088
0.0663609
0.0601782
0.0521934
0.043658
0.0358547
0.0296238
0.0246061
0.0203286
0.0164294
0.0101152
0.0152646
0.0331333
0.0738449
0.122551
0.130232
0.0661606
0.0568743
0.0600758
0.0686208
0.0989094
0.0518914
0.0465932
0.0527235
0.0598544
0.0689915
0.0756733
0.079955
0.0829031
0.0844469
0.0839401
0.0806732
0.0746378
0.0664304
0.0573183
0.0486986
0.0414162
0.0349637
0.0288951
0.0246783
0.0140535
0.0116695
0.0153861
0.0563333
0.111245
0.120705
0.0691962
0.0533283
0.0573446
0.0673588
0.0866023
0.0472905
0.05091
0.0591733
0.0685125
0.0783015
0.0848512
0.0897906
0.0935304
0.0956979
0.095587
0.0925636
0.0865615
0.0783821
0.0694339
0.0611302
0.054515
0.0491154
0.0434544
0.0429134
0.0143333
0.0100963
0.00780688
0.0449086
0.101319
0.127845
0.0947481
0.0479085
0.0546944
0.0687025
0.0914842
0.0501885
0.0555684
0.0644506
0.0755763
0.0838822
0.0904028
0.0957314
0.0998399
0.102188
0.102086
0.0989757
0.0929786
0.0850367
0.0766614
0.0693862
0.0643573
0.0616705
0.0592573
0.0702874
0.0144107
0.0104259
0.00812455
0.0384422
0.0905997
0.120615
0.12358
0.0461783
0.0568019
0.0827669
0.0748597
0.0504138
0.058105
0.0675972
0.0777678
0.0845088
0.0901757
0.0949629
0.0985726
0.100364
0.0997358
0.0964076
0.0907029
0.0836368
0.0766318
0.0709542
0.0675342
0.0665242
0.0648867
0.0795108
0.014422
0.0141934
0.0121799
0.0260469
0.0728624
0.097754
0.110111
0.0546077
0.0621497
0.113464
0.0573906
0.0507738
0.0583318
0.0674989
0.0743641
0.0785493
0.0820307
0.0849537
0.0870026
0.0876134
0.0864016
0.0833609
0.0789505
0.0740069
0.0694645
0.0661055
0.0645852
0.0650505
0.0644457
0.0779888
0.0144192
0.0141755
0.013412
0.0214109
0.0544765
0.0721584
0.0671492
0.0685642
0.0734877
0.0890673
0.0461522
0.0486888
0.0549274
0.0620518
0.0648549
0.0653286
0.0654878
0.0656509
0.0657228
0.0654221
0.0645786
0.0631967
0.0614377
0.0595984
0.0580397
0.0572017
0.0574919
0.0589799
0.060029
0.0725971
0.0144171
0.0141644
0.0132329
0.0207686
0.0461142
0.0451547
0.0378702
0.0374511
0.0435256
0.0397326
0.0344813
0.0448791
0.0486702
0.0527042
0.051718
0.0489039
0.0465908
0.0452406
0.0448037
0.0450112
0.0455694
0.0462188
0.0467794
0.0471995
0.0475808
0.0481363
0.0491785
0.051119
0.0532848
0.0637129
0.0283859
0.0274464
0.240186
0.851271
0.831227
0.826395
0.840473
0.87664
0.96605
1.05317
0.946281
0.936451
0.898684
0.868855
0.947913
0.929289
0.851917
0.692568
0.52414
0.348436
0.108847
0.0388143
0.0425474
0.0863168
0.144266
0.150059
0.14909
0.144513
0.13895
0.133862
0.0181096
0.0321255
0.233899
0.744734
0.615105
0.560707
0.597289
0.665108
0.790687
0.93205
0.983927
0.93953
0.860551
0.832579
0.912513
0.873428
0.773909
0.564404
0.408778
0.176912
0.0611968
0.0430838
0.084579
0.184558
0.211713
0.218173
0.214546
0.206554
0.196227
0.185853
0.0132318
0.0371011
0.242604
0.54047
0.312663
0.282363
0.33351
0.478186
0.597148
0.746768
0.826384
0.822376
0.786446
0.74556
0.669616
0.743835
0.578144
0.411654
0.195881
0.0836236
0.0487465
0.0575015
0.106338
0.19346
0.217431
0.228419
0.227979
0.222154
0.212702
0.202983
0.0124611
0.0421529
0.230564
0.303979
0.229737
0.226627
0.22393
0.2936
0.455175
0.579303
0.665471
0.689247
0.67567
0.657108
0.633974
0.543348
0.406887
0.185107
0.0941673
0.0571457
0.0492667
0.0639861
0.102774
0.163896
0.206721
0.221848
0.224455
0.219007
0.207849
0.194732
0.015162
0.0429313
0.190568
0.231435
0.238012
0.316807
0.324848
0.25958
0.349313
0.44173
0.524321
0.557193
0.540975
0.505623
0.444319
0.295548
0.160448
0.105161
0.0663793
0.0507689
0.0516431
0.0683555
0.102416
0.144984
0.177263
0.204933
0.22787
0.223979
0.212491
0.196237
0.0170352
0.0412103
0.150157
0.225722
0.283545
0.429493
0.421451
0.330812
0.301232
0.353161
0.428024
0.411199
0.342543
0.238944
0.168471
0.12926
0.107541
0.0777882
0.0569024
0.0513134
0.0585412
0.079344
0.109847
0.1375
0.156262
0.173741
0.197318
0.224653
0.222182
0.203526
0.0166927
0.0381396
0.128489
0.215036
0.347144
0.522154
0.355917
0.358288
0.285631
0.311831
0.297688
0.201041
0.163659
0.129889
0.0971673
0.0753678
0.0704604
0.0648855
0.0646879
0.0721793
0.0902339
0.114084
0.133148
0.143271
0.149415
0.158462
0.174417
0.198507
0.219199
0.213093
0.015284
0.0365508
0.118056
0.204229
0.423571
0.443274
0.296174
0.310562
0.282817
0.301463
0.277441
0.136575
0.109219
0.0854615
0.0751492
0.0970842
0.116554
0.125812
0.135308
0.151538
0.170043
0.177624
0.171216
0.160459
0.15366
0.15427
0.162755
0.179095
0.200647
0.219145
0.014103
0.0433295
0.103296
0.227731
0.497
0.318713
0.243303
0.271447
0.264016
0.127318
0.109106
0.0542368
0.0925417
0.0601291
0.109349
0.196293
0.256041
0.268508
0.270939
0.274425
0.26735
0.243891
0.21293
0.185451
0.167044
0.159103
0.160153
0.168226
0.183679
0.196314
0.014876
0.0504505
0.0800364
0.25747
0.466456
0.228818
0.192278
0.222615
0.131004
0.075283
0.0459697
0.0271196
0.00879304
0.0179288
0.205013
0.382657
0.431807
0.410808
0.398537
0.383193
0.352667
0.308516
0.260979
0.219939
0.19019
0.173011
0.166079
0.165906
0.171725
0.173647
0.0144788
0.0388572
0.0745738
0.30602
0.400067
0.181485
0.144725
0.172715
0.114894
0.0790094
0.0529551
0.0191816
0.399579
0.478986
0.532081
0.513411
0.501707
0.477496
0.434176
0.378643
0.320138
0.267851
0.2264
0.198912
0.182805
0.173725
0.169067
0.156698
0.0120294
0.0358251
0.135647
0.380971
0.393622
0.160515
0.122815
0.135463
0.0966607
0.0755886
0.0915943
0.0321912
0.0229037
0.0364303
0.494359
0.593928
0.599721
0.594183
0.57671
0.537035
0.483208
0.426033
0.369569
0.318253
0.273562
0.238499
0.212958
0.195148
0.181373
0.154468
0.0128562
0.0337785
0.12588
0.426354
0.467478
0.165655
0.11027
0.13639
0.105547
0.106143
0.0907552
0.0938998
0.208196
0.317797
0.615872
0.647873
0.647569
0.622214
0.590254
0.547189
0.499727
0.450179
0.401731
0.356971
0.316167
0.281432
0.252736
0.22951
0.211735
0.17789
0.0220196
0.0294566
0.0871103
0.288886
0.478499
0.173496
0.109074
0.155768
0.150633
0.185817
0.256841
0.26529
0.488036
0.624618
0.665175
0.689787
0.659823
0.62644
0.58899
0.548022
0.507547
0.467294
0.428413
0.391417
0.356309
0.326666
0.300798
0.27677
0.258425
0.223071
0.0187644
0.0316985
0.0589954
0.225495
0.399097
0.198304
0.110338
0.166848
0.189877
0.239272
0.194321
0.347626
0.581159
0.735734
0.737673
0.713065
0.671588
0.632724
0.593935
0.556081
0.520043
0.48578
0.453296
0.423212
0.396341
0.374689
0.357494
0.340394
0.324515
0.286806
0.0250743
0.0133039
0.0464255
0.169292
0.362558
0.206274
0.112571
0.129202
0.210543
0.171774
0.18579
0.374897
0.671861
0.815692
0.779533
0.734945
0.694754
0.654223
0.61546
0.57924
0.545809
0.51377
0.484433
0.458371
0.437607
0.424712
0.419806
0.418001
0.43055
0.426304
0.0316265
0.0143612
0.026832
0.13039
0.325351
0.213717
0.115566
0.101843
0.177204
0.143076
0.154307
0.389585
0.755627
0.854791
0.805744
0.768398
0.733862
0.696491
0.658961
0.622964
0.589254
0.557817
0.528575
0.502941
0.485034
0.477593
0.481448
0.49067
0.472589
0.448048
0.0602976
0.0167789
0.0270589
0.113589
0.254754
0.294896
0.139769
0.0914439
0.137619
0.144102
0.154597
0.526809
0.82719
0.867506
0.82483
0.806169
0.784716
0.754794
0.719883
0.683771
0.648323
0.61414
0.582777
0.557484
0.540812
0.535172
0.542217
0.520834
0.492075
0.465079
0.121828
0.0228717
0.0439604
0.126125
0.220414
0.298346
0.21484
0.113829
0.11669
0.116884
0.149704
0.564219
0.882422
0.857335
0.825512
0.825453
0.819893
0.798363
0.764002
0.724691
0.686039
0.651035
0.621569
0.600009
0.587702
0.581388
0.551037
0.524865
0.500558
0.4758
0.109689
0.0268754
0.0648216
0.147681
0.210069
0.257075
0.261074
0.154018
0.136438
0.0912527
0.139451
0.54191
0.89586
0.830819
0.798035
0.799409
0.798305
0.779044
0.744668
0.707936
0.677941
0.657012
0.644071
0.631702
0.597456
0.566903
0.540398
0.517834
0.498767
0.478302
0.0317846
0.0390308
0.354445
0.964609
0.549173
0.531394
0.722513
0.991534
1.12837
1.24105
1.32191
1.21967
1.1126
1.15029
1.07694
1.08189
1.00778
0.881055
0.514211
0.189669
0.0979777
0.0861105
0.169919
0.19943
0.211368
0.210843
0.204039
0.194027
0.182574
0.171324
0.0152276
0.0472176
0.375981
0.724265
0.581439
0.561561
0.593485
0.737632
0.904139
1.1078
1.18129
1.12969
1.04364
1.06723
0.950945
0.995615
0.890943
0.687012
0.284461
0.138285
0.0987204
0.151494
0.241126
0.276889
0.288886
0.288965
0.283359
0.2712
0.254278
0.236213
0.0120795
0.055818
0.564433
0.447006
0.540456
0.623633
0.562667
0.575948
0.684556
0.874466
0.976701
0.975903
0.941663
0.793184
0.808768
0.849369
0.640684
0.290996
0.159842
0.120835
0.12025
0.1693
0.236139
0.284903
0.298914
0.303382
0.302131
0.294501
0.279383
0.261114
0.0126402
0.0615415
0.512444
0.362576
0.516964
0.601417
0.540454
0.490713
0.540587
0.669892
0.76657
0.794179
0.659276
0.573091
0.63026
0.483438
0.257416
0.174885
0.140854
0.126933
0.126413
0.158909
0.193823
0.22206
0.249891
0.279458
0.304175
0.298099
0.282779
0.259054
0.0143547
0.0640786
0.332271
0.353276
0.51687
0.519431
0.545988
0.489097
0.461567
0.528546
0.600462
0.505252
0.405375
0.386032
0.318556
0.251502
0.191288
0.165491
0.14713
0.132237
0.146289
0.171629
0.187558
0.200941
0.216593
0.236399
0.259425
0.285347
0.295872
0.269657
0.0162399
0.0585201
0.250902
0.350221
0.574212
0.601671
0.490043
0.455835
0.448075
0.461861
0.378792
0.301123
0.301943
0.26661
0.22319
0.196617
0.19199
0.174906
0.158994
0.165925
0.187588
0.200182
0.202682
0.204458
0.209963
0.22054
0.235343
0.25382
0.282899
0.286376
0.0184645
0.0538904
0.219491
0.345535
0.653693
0.644809
0.530432
0.43866
0.396288
0.389944
0.252007
0.274739
0.212428
0.198702
0.207553
0.229386
0.239912
0.22184
0.21928
0.230665
0.242071
0.242397
0.23351
0.223505
0.218549
0.220524
0.227802
0.237792
0.257939
0.28903
0.0203896
0.0584102
0.205837
0.344918
0.71914
0.568159
0.489888
0.470877
0.50157
0.311512
0.22528
0.185223
0.170153
0.194265
0.29216
0.35479
0.301895
0.288183
0.29642
0.310817
0.317958
0.306135
0.281811
0.257077
0.239064
0.231139
0.230757
0.233715
0.242724
0.265989
0.0214427
0.0770639
0.208687
0.343288
0.736075
0.509252
0.438695
0.488145
0.421343
0.284558
0.20461
0.0846224
0.0841698
0.116292
0.394048
0.385377
0.373805
0.38621
0.414987
0.436417
0.43209
0.398859
0.352372
0.307371
0.272739
0.251797
0.242024
0.238478
0.239264
0.25013
0.0199134
0.0739482
0.196666
0.349391
0.593044
0.378032
0.362751
0.386511
0.290604
0.176832
0.0960845
0.017289
0.0314884
0.045674
0.506213
0.460798
0.493698
0.533764
0.580898
0.596207
0.566366
0.505868
0.436669
0.372968
0.320808
0.284304
0.262462
0.250879
0.246335
0.245102
0.0135363
0.0630205
0.140005
0.397687
0.406446
0.313341
0.271439
0.325424
0.236627
0.163983
0.112064
0.0507991
0.558979
0.574957
0.639836
0.694848
0.737388
0.724602
0.661136
0.582854
0.506536
0.437336
0.37612
0.327076
0.292887
0.271859
0.262287
0.255873
0.0111031
0.142017
0.145216
0.428514
0.320401
0.278186
0.232152
0.256347
0.179297
0.124184
0.0992778
0.0487071
0.0446985
0.0556603
0.605842
0.705361
0.767011
0.800337
0.800936
0.750824
0.677814
0.605115
0.535078
0.471697
0.414342
0.366844
0.329216
0.30094
0.285948
0.277945
0.0133374
0.0447425
0.129526
0.353681
0.327434
0.272536
0.203067
0.200522
0.15772
0.130591
0.0968033
0.116403
0.305642
0.423541
0.701621
0.812644
0.824501
0.823514
0.795064
0.737673
0.675487
0.61284
0.55344
0.497421
0.445357
0.40077
0.364053
0.33502
0.318843
0.311994
0.0272986
0.0289073
0.114008
0.341944
0.338444
0.256286
0.211774
0.20413
0.19768
0.217165
0.230507
0.478172
0.590464
0.73825
0.823231
0.858668
0.842368
0.818869
0.776941
0.723808
0.67061
0.61854
0.569425
0.521783
0.475573
0.434323
0.400223
0.373397
0.360844
0.379709
0.0216464
0.0369624
0.0873086
0.41576
0.303802
0.243286
0.224049
0.224598
0.251643
0.268197
0.422866
0.695201
0.701446
0.866547
0.893333
0.879953
0.852976
0.815672
0.770156
0.723121
0.677409
0.632501
0.589486
0.547552
0.507696
0.471576
0.441338
0.417385
0.406855
0.475876
0.0263366
0.0131361
0.0741975
0.253615
0.274927
0.212133
0.219965
0.222775
0.259993
0.323709
0.448144
0.767512
0.874967
0.942436
0.919754
0.902991
0.871391
0.830689
0.785688
0.74161
0.701189
0.659933
0.619651
0.581685
0.545815
0.51523
0.490772
0.471946
0.461171
0.512969
0.0299158
0.0128204
0.0421729
0.19337
0.285026
0.206036
0.204488
0.215196
0.25323
0.311854
0.491469
0.847754
0.970525
0.960899
0.943998
0.932835
0.905766
0.867972
0.825921
0.783204
0.74273
0.704782
0.665283
0.627874
0.59424
0.567333
0.549046
0.53729
0.529251
0.534337
0.0407052
0.0147704
0.0380062
0.172548
0.35597
0.233621
0.186982
0.215808
0.203929
0.242705
0.497525
0.926221
0.989719
0.960046
0.962884
0.966568
0.952113
0.922548
0.884604
0.84387
0.803385
0.762417
0.720823
0.682304
0.650148
0.623553
0.609728
0.604112
0.594142
0.556486
0.0595641
0.0228155
0.0676402
0.164466
0.320419
0.311729
0.205296
0.178141
0.205719
0.183439
0.45283
0.953975
0.971743
0.946087
0.962725
0.982785
0.986538
0.969916
0.936551
0.895211
0.851206
0.807038
0.763577
0.723355
0.68979
0.665238
0.653326
0.646039
0.609208
0.570174
0.0572134
0.0371442
0.0721256
0.199739
0.280625
0.332289
0.279742
0.193706
0.198251
0.15151
0.416355
0.899259
0.952089
0.930801
0.94596
0.96753
0.980714
0.975707
0.95188
0.918113
0.883093
0.850793
0.820975
0.791509
0.762385
0.720237
0.67988
0.642668
0.607849
0.571156
0.0290792
0.0499064
0.513086
0.673978
0.509435
0.555451
0.774123
1.1703
1.31692
1.29949
1.48186
1.33278
1.21999
1.31203
1.20163
1.02355
0.981989
0.619635
0.304561
0.203618
0.171769
0.205297
0.261224
0.285194
0.288722
0.281428
0.267532
0.249086
0.22795
0.207075
0.0160146
0.0588318
0.479531
0.702393
0.762244
0.721245
0.691182
0.876952
1.11131
1.28031
1.34275
1.24041
1.12699
1.11968
1.05765
0.94888
0.823123
0.430697
0.255403
0.212229
0.206007
0.276826
0.336661
0.361383
0.370642
0.36987
0.361601
0.34671
0.323892
0.297161
0.0130736
0.0749071
0.434617
0.663589
1.00093
0.893247
0.739167
0.716392
0.90004
1.0804
1.14714
1.09869
1.00799
0.800563
0.945437
0.735371
0.42019
0.283139
0.252632
0.223363
0.246148
0.286426
0.315213
0.327529
0.339017
0.354621
0.373928
0.377855
0.357636
0.328753
0.0130283
0.0933386
0.310737
0.643559
1.0478
0.816133
0.751113
0.705385
0.739854
0.877621
0.947418
0.816666
0.600691
0.600556
0.513846
0.37576
0.312318
0.288987
0.239895
0.234127
0.233715
0.272852
0.297133
0.307109
0.31353
0.324326
0.342369
0.366547
0.372502
0.338438
0.0146396
0.106615
0.254204
0.64052
1.08808
1.03094
0.70932
0.666766
0.660765
0.712134
0.752379
0.470637
0.489652
0.430156
0.367656
0.326483
0.271776
0.247958
0.259377
0.256548
0.280601
0.307873
0.319263
0.317979
0.313085
0.311905
0.317919
0.333568
0.356756
0.361785
0.016877
0.105788
0.232041
0.61681
1.10829
1.21159
1.10285
0.622154
0.60957
0.637113
0.407342
0.43023
0.415064
0.34293
0.284259
0.267533
0.275802
0.302638
0.311212
0.325372
0.353227
0.368491
0.364456
0.349583
0.33219
0.318997
0.313271
0.316623
0.329397
0.369582
0.0199136
0.103681
0.222905
0.592755
1.06806
1.08476
1.25206
0.922717
0.619699
0.48351
0.353946
0.362349
0.287397
0.279585
0.305873
0.357256
0.355166
0.348838
0.377032
0.419724
0.45126
0.451935
0.427251
0.395093
0.363184
0.33887
0.322351
0.315097
0.315391
0.342511
0.024781
0.103621
0.22114
0.56231
1.01637
0.808995
0.955971
1.11836
0.736071
0.448759
0.312523
0.209767
0.171538
0.297866
0.422163
0.381089
0.398426
0.442942
0.51101
0.57284
0.592578
0.560743
0.507514
0.452367
0.404277
0.3681
0.341909
0.325054
0.315675
0.329948
0.0292858
0.101404
0.213365
0.501562
0.951428
0.642497
0.670635
0.930701
0.539273
0.398377
0.256
0.0902737
0.0525004
0.207369
0.445711
0.479749
0.530457
0.60802
0.712561
0.778309
0.753202
0.675869
0.591278
0.515738
0.452435
0.403822
0.36864
0.343267
0.326322
0.335015
0.0246653
0.0889038
0.182763
0.435016
0.87006
0.564116
0.599564
0.59417
0.400653
0.286655
0.186294
0.0539792
0.0484543
0.0907272
0.551186
0.625123
0.688469
0.796968
0.910305
0.920316
0.866894
0.751467
0.650942
0.568295
0.497893
0.441223
0.398092
0.366227
0.343274
0.349546
0.0167065
0.110283
0.171477
0.419427
0.626466
0.431387
0.587936
0.492754
0.339923
0.25682
0.137717
0.0540174
0.0548762
0.0591032
0.683517
0.77769
0.841122
0.964176
1.00339
1.00044
0.88805
0.768457
0.677052
0.60087
0.53444
0.477099
0.429298
0.392148
0.366101
0.372476
0.0150905
0.0752311
0.250579
0.457256
0.48005
0.364858
0.3883
0.436235
0.316225
0.241325
0.138296
0.0832457
0.0580747
0.0881803
0.791184
0.910627
0.973647
1.07203
1.06009
0.990065
0.861353
0.761779
0.683706
0.616876
0.556416
0.5017
0.454433
0.416923
0.390751
0.41464
0.0204653
0.0454258
0.159108
0.363956
0.52386
0.355019
0.324304
0.374757
0.283224
0.212902
0.131308
0.179142
0.484222
0.617513
0.908528
1.00097
1.0483
1.08847
1.03679
0.926233
0.826448
0.749737
0.685774
0.627872
0.574019
0.523404
0.478591
0.442564
0.414623
0.453168
0.0302278
0.0356837
0.133922
0.405591
0.456401
0.363145
0.322704
0.344296
0.311621
0.297164
0.306247
0.476667
0.764719
0.951511
1.00196
1.04377
1.06247
1.04449
0.971192
0.881818
0.805347
0.743947
0.690909
0.641158
0.593045
0.546401
0.504396
0.470395
0.441633
0.485218
0.028996
0.0316262
0.11059
0.361735
0.383884
0.337254
0.317471
0.358852
0.384718
0.328733
0.329024
0.685917
0.883159
1.00906
1.02939
1.05436
1.049
1.00784
0.939315
0.866932
0.804482
0.752143
0.705655
0.661159
0.617137
0.574969
0.536429
0.505666
0.477496
0.52289
0.0351965
0.0165152
0.099755
0.229801
0.35625
0.301399
0.265487
0.291497
0.338336
0.414301
0.618815
0.87707
0.972036
1.00375
1.03451
1.05537
1.04232
1.00064
0.94231
0.881256
0.825852
0.777736
0.733718
0.691848
0.651329
0.613178
0.578817
0.55281
0.526736
0.570999
0.0261288
0.0148772
0.0527806
0.193688
0.329205
0.312083
0.239999
0.247519
0.293599
0.391055
0.662402
0.902252
0.983799
0.987915
1.03802
1.06621
1.05596
1.02031
0.972559
0.919757
0.869114
0.822678
0.779637
0.739206
0.700231
0.665025
0.63387
0.613358
0.591059
0.59713
0.0318311
0.0172801
0.0512572
0.215337
0.338029
0.315812
0.281845
0.250461
0.280609
0.399907
0.714393
0.911043
0.947901
0.973423
1.04568
1.08735
1.08758
1.06052
1.01923
0.97392
0.930076
0.885926
0.841202
0.799133
0.760024
0.726264
0.697944
0.681385
0.662848
0.621475
0.0442859
0.0276913
0.0680028
0.224316
0.401987
0.342964
0.310196
0.303379
0.297154
0.353892
0.740116
0.901974
0.91323
0.957779
1.04224
1.09797
1.11766
1.10573
1.07193
1.02812
0.98119
0.934374
0.88676
0.842826
0.803165
0.767807
0.742404
0.727811
0.680125
0.634718
0.0553539
0.0284215
0.0764234
0.243622
0.302716
0.329421
0.331127
0.32188
0.260891
0.298212
0.747421
0.880708
0.891168
0.947099
1.03053
1.0911
1.12673
1.13794
1.12627
1.10036
1.06915
1.03715
1.00356
0.94481
0.877324
0.817477
0.764373
0.714733
0.669059
0.626021
0.0242061
0.0695182
0.667314
0.743194
0.702901
0.837612
1.23694
1.43561
1.58029
1.47855
1.66312
1.45206
1.3245
1.43955
1.29189
0.83072
0.644787
0.450466
0.365823
0.289208
0.250679
0.31781
0.365589
0.381009
0.380013
0.368113
0.347823
0.320266
0.286874
0.251687
0.0172512
0.0827068
0.589268
0.822694
0.997541
1.10335
1.05743
1.25275
1.39565
1.4212
1.52252
1.35165
1.21762
1.29686
1.24375
0.764117
0.549634
0.425574
0.364296
0.271118
0.300954
0.388613
0.434611
0.455136
0.444723
0.445042
0.446282
0.436173
0.412207
0.376474
0.015929
0.111606
0.45273
0.888036
1.30197
1.27984
1.12446
1.06022
1.17832
1.3398
1.34107
1.20418
1.09901
0.936734
0.842398
0.512946
0.458104
0.385693
0.30319
0.29352
0.362416
0.424676
0.43008
0.417587
0.411682
0.416503
0.431126
0.448551
0.453297
0.41734
0.0164641
0.145487
0.363534
0.938345
1.345
1.42153
1.22253
0.998382
1.01159
1.13393
1.14238
0.834879
0.770649
0.746733
0.569161
0.466348
0.363269
0.314361
0.315043
0.36458
0.42531
0.465879
0.459608
0.439765
0.422943
0.415331
0.418907
0.43476
0.45901
0.44379
0.0193326
0.169874
0.330874
0.992334
1.35781
1.51428
1.44831
1.10293
0.938419
0.955945
0.739218
0.640074
0.718207
0.685373
0.486966
0.354261
0.327449
0.347065
0.396376
0.455375
0.503974
0.533251
0.522326
0.487091
0.454947
0.432477
0.420711
0.419364
0.428651
0.474505
0.023975
0.183014
0.319409
1.01919
1.32584
1.50035
1.56749
1.3468
0.976821
0.86568
0.578415
0.638591
0.589433
0.482292
0.398483
0.382955
0.412026
0.458699
0.515021
0.570057
0.610727
0.628322
0.600006
0.546723
0.49802
0.462372
0.437526
0.422481
0.410292
0.441447
0.0290217
0.178514
0.319809
1.00651
1.28741
1.40298
1.5461
1.44861
1.02724
0.639452
0.471721
0.514784
0.429759
0.42955
0.466378
0.521866
0.549087
0.598659
0.664723
0.711419
0.741977
0.743991
0.682845
0.610649
0.547481
0.499378
0.463432
0.437636
0.411698
0.423805
0.0348686
0.157655
0.301439
0.915386
1.25011
1.26907
1.41611
1.3887
0.898507
0.571488
0.41938
0.268135
0.300619
0.482328
0.54715
0.60065
0.650992
0.760101
0.81751
0.860838
0.881861
0.866057
0.761412
0.671418
0.598084
0.538774
0.493652
0.458741
0.424515
0.423638
0.0423824
0.130833
0.256275
0.764152
1.01474
0.933361
1.22795
1.12059
0.649827
0.482086
0.343229
0.151771
0.133861
0.315784
0.587226
0.703563
0.780133
0.906447
0.954956
0.998719
1.00627
0.935576
0.81422
0.719812
0.641406
0.575935
0.52381
0.48212
0.443769
0.435289
0.0397217
0.118853
0.231402
0.657622
0.911319
0.646223
0.848204
0.805137
0.44059
0.292074
0.193104
0.126421
0.154749
0.264842
0.650873
0.805236
0.91058
1.0158
1.06356
1.10266
1.09469
0.957017
0.840803
0.747779
0.66922
0.603757
0.54823
0.503601
0.463343
0.460381
0.0244913
0.132202
0.264366
0.59337
0.897002
0.557472
0.626562
0.633345
0.372623
0.27029
0.128813
0.103019
0.187767
0.312494
0.754856
0.92021
1.07421
1.09629
1.13445
1.16401
1.09373
0.946237
0.839574
0.75372
0.682066
0.620482
0.565939
0.521269
0.479947
0.48205
0.0222666
0.103679
0.311416
0.534008
0.803182
0.474208
0.571212
0.563887
0.377175
0.287997
0.18519
0.124519
0.448774
0.496563
0.890034
1.0588
1.16204
1.15439
1.17475
1.17826
1.04222
0.917264
0.825392
0.750848
0.686966
0.629445
0.577477
0.534812
0.495141
0.502574
0.0264287
0.0825097
0.268944
0.516351
0.636233
0.452219
0.476268
0.479178
0.364261
0.26433
0.163373
0.66608
0.864046
0.962323
1.06699
1.19861
1.22254
1.20329
1.19914
1.12374
0.981103
0.882973
0.809045
0.747322
0.690887
0.638191
0.589118
0.548995
0.511721
0.522916
0.028691
0.0576539
0.166498
0.500926
0.534837
0.453058
0.445298
0.446993
0.404072
0.348218
0.346459
0.682233
0.963466
1.10672
1.1677
1.27244
1.29144
1.25793
1.19165
1.04444
0.937746
0.861213
0.800474
0.747842
0.697927
0.650109
0.604416
0.567346
0.53259
0.54579
0.0350539
0.0287925
0.138067
0.335932
0.518971
0.385807
0.392366
0.436727
0.473212
0.487294
0.485283
0.774999
1.00314
1.12491
1.18846
1.26695
1.29672
1.23307
1.11595
1.00678
0.922573
0.858023
0.805029
0.757415
0.712254
0.669026
0.626888
0.593467
0.561522
0.57496
0.0301116
0.0194058
0.0842946
0.240903
0.498746
0.313443
0.297511
0.334716
0.394118
0.504086
0.615764
0.829013
0.997755
1.07242
1.1607
1.2323
1.23865
1.18153
1.09312
1.007
0.934732
0.875755
0.825882
0.780575
0.738294
0.698091
0.660323
0.630527
0.602005
0.614415
0.0256932
0.0184359
0.0603198
0.193872
0.44965
0.315608
0.255016
0.276248
0.33447
0.470059
0.668495
0.844425
0.962502
1.01611
1.12584
1.20449
1.2141
1.17215
1.10607
1.03653
0.973035
0.917515
0.868774
0.824375
0.782573
0.743831
0.707483
0.680967
0.655092
0.657566
0.0326733
0.0221186
0.0633448
0.21137
0.422209
0.436037
0.305441
0.285795
0.320245
0.461407
0.697553
0.85294
0.923952
0.978958
1.11139
1.20142
1.21957
1.19361
1.14581
1.09036
1.03549
0.9847
0.937624
0.892593
0.84877
0.807757
0.768413
0.741793
0.71331
0.687483
0.0582667
0.0225532
0.0834579
0.271416
0.484756
0.472463
0.42523
0.37516
0.349494
0.445681
0.700262
0.843027
0.889615
0.95717
1.10265
1.20231
1.24086
1.2337
1.198
1.14865
1.09568
1.0443
0.990716
0.942376
0.898725
0.858622
0.8196
0.792742
0.752669
0.702097
0.118183
0.0244118
0.12355
0.3388
0.33182
0.380694
0.465696
0.445683
0.381868
0.455208
0.663253
0.82409
0.856425
0.94836
1.09661
1.20726
1.27272
1.30099
1.29645
1.27057
1.23615
1.20021
1.15157
1.0571
0.974512
0.901863
0.837154
0.778221
0.727151
0.680758
0.0261785
0.0986642
0.761172
0.946354
0.996252
1.33349
1.64876
1.71203
1.83915
1.82922
1.83506
1.58966
1.43826
1.56681
1.16676
0.689138
0.610984
0.51626
0.393454
0.324174
0.365676
0.439651
0.476281
0.489245
0.486907
0.472735
0.448987
0.416409
0.374431
0.325452
0.0211225
0.118339
0.697436
1.01471
1.26574
1.58982
1.5378
1.55915
1.68004
1.6953
1.68339
1.45526
1.31518
1.48773
1.27486
0.712189
0.535844
0.447556
0.355305
0.344277
0.427615
0.505245
0.544136
0.564075
0.553667
0.548018
0.552488
0.554098
0.527054
0.485844
0.0211857
0.15246
0.610714
1.04254
1.48587
1.65578
1.51895
1.40111
1.47436
1.57197
1.48455
1.27555
1.22432
1.33024
0.960211
0.657575
0.462546
0.38126
0.356089
0.40681
0.49441
0.551022
0.578613
0.568001
0.53881
0.524525
0.525255
0.540298
0.55801
0.535088
0.0241621
0.18647
0.530191
1.04618
1.51488
1.76356
1.66597
1.38341
1.31999
1.35887
1.2648
1.17448
1.20878
1.1287
0.863347
0.621435
0.429168
0.396434
0.434183
0.5102
0.577094
0.616914
0.632044
0.622772
0.575384
0.544961
0.529432
0.529175
0.539885
0.567935
0.0302623
0.21931
0.486159
1.10779
1.58749
1.65635
1.75902
1.54606
1.2641
1.17839
0.992254
0.989719
1.12993
1.09463
0.868018
0.594112
0.489432
0.49955
0.560923
0.630176
0.685538
0.714014
0.715254
0.688568
0.62524
0.581062
0.551372
0.535255
0.521163
0.554798
0.0369415
0.222807
0.457038
1.20978
1.53252
1.75281
1.79594
1.69109
1.28687
1.0675
0.810723
0.877619
0.903675
0.867888
0.776619
0.659468
0.622497
0.651832
0.70894
0.771831
0.820407
0.837151
0.820186
0.75592
0.683204
0.627086
0.586087
0.558089
0.52901
0.532355
0.0437993
0.206389
0.411233
1.18786
1.49305
1.66718
1.81488
1.72817
1.26473
0.818353
0.664037
0.752983
0.735516
0.723248
0.67871
0.735833
0.787888
0.8207
0.873582
0.933541
0.974947
0.973713
0.921736
0.829716
0.747875
0.680111
0.628564
0.58903
0.551434
0.53288
0.0521339
0.187668
0.345235
1.01305
1.46816
1.51377
1.68216
1.64643
1.07342
0.741551
0.634151
0.500819
0.557871
0.582406
0.644155
0.782969
0.902131
0.974806
1.03497