/*--------------------------------*- C++ -*----------------------------------*\
| =========                 |                                                 |
| \\      /  F ield         | OpenFOAM: The Open Source CFD Toolbox           |
|  \\    /   O peration     | Version:  2512                                  |
|   \\  /    A nd           | Website:  www.openfoam.com                      |
|    \\/     M anipulation  |                                                 |
\*---------------------------------------------------------------------------*/
FoamFile
{
    version     2.0;
    format      ascii;
    arch        "LSB;label=32;scalar=64";
    class       volScalarField;
    location    "40";
    object      omega;
}
// * * * * * * * * * * * * * * * * * * * * * * * * * * * * * * * * * * * * * //

dimensions      [0 0 -1 0 0 0 0];

internalField   nonuniform List<scalar> 
90398
(
261.334
496.64
577.511
562.858
524.765
480.741
420.565
348.838
366.271
390.051
385.447
348.324
298.813
255.483
219.315
190.185
167.557
149.935
135.865
123.727
114.756
111.176
110.457
110.15
109.379
110.787
110.849
107.018
101.314
97.081
291.074
416.101
426.821
418.274
400.817
441.014
479.305
514.336
569.358
586.099
566.099
512.788
440.971
375.542
319.004
272.85
233.965
203.634
179.894
158.77
140.493
131.355
132.593
136.793
141.451
143.8
142.351
138.825
136.529
129.848
323.362
371.594
352.106
368.863
497.789
550.702
606.435
664.977
692.725
691.338
670.9
636.233
586.497
522.862
448.547
375.153
310.79
262.312
226.914
197.701
171.3
155.648
157.164
166.425
174.685
175.755
172.401
168.247
165.44
158.881
338.502
346.567
352.287
492.519
547.829
591.421
631.855
670.903
677.962
655.056
620.437
588.111
558.732
527.805
489.637
438.914
382.462
328.375
283.771
245.762
208.647
181.508
177.211
184.269
189.326
190.125
188.841
186.048
182.666
172.473
356.524
338.008
430.16
513.461
547.981
571.19
589.211
601.747
603.025
582.238
548.866
521.017
502.486
483.403
457.853
423.155
386.304
349.161
313.064
278.48
243.752
213.424
200.096
200.05
202.156
202.934
202.859
200.492
195.876
184.861
353.69
352.162
489.543
547.505
568.581
571.132
558.661
534.747
507.21
489.606
467.181
451.687
445.927
432.635
412.559
385.329
356.439
331.172
309.777
287.186
261.388
236.049
219.703
213.946
212.776
212.031
210.961
207.097
199.516
189.381
330.7
361.093
517.109
582.544
613.821
630.881
639.612
639.655
611.384
465.784
390.345
380.329
388.929
380.998
363.355
340.36
320.251
305.1
293.32
280.916
264.739
245.561
228.487
217.609
211.031
205.333
198.97
191.239
184.735
176.289
297.066
342.067
520.498
598.351
635.431
658.754
678.936
707.759
767.824
1573.45
687.833
807.941
642.889
659.635
313.726
294.525
283.684
280.692
276.52
268.998
256.305
237.589
217.457
201.43
189.004
177.049
165.454
157.284
152.721
146.137
255.347
317.889
513.367
612.961
652.735
675.24
683.213
680.754
1558.38
2042.24
833.992
1112.55
471.855
523.958
273.263
257.659
253.818
258.343
259.589
252.547
237.609
214.938
190.748
171.634
157.841
148.088
142.409
139.996
137.492
134.084
211.142
294.245
526.558
635.928
683.799
709.546
702.488
677.783
1342.42
4253.7
2141.05
2617.02
1972.02
1363.5
452.151
257.274
228.836
235.855
240.745
230.97
211.615
186.028
163.143
148.564
140.636
137.021
135.5
134.122
132.353
131.292
200.696
280.473
506.35
643.509
714.274
759.802
751.39
732.573
1640.87
4515.52
1667.39
1247
2432.29
521.592
393.072
208.356
215.585
220.473
207.999
186.915
164.206
148.629
141.238
138.074
136.643
135.603
134.611
134.034
134.45
290.588
291.065
419.218
606.061
717.368
792.157
811.185
817.527
1336.44
1413.2
1919
1385.73
1039.89
1674.02
460.253
370.296
194.805
199.446
201.648
188.191
169.425
153.466
145.039
141.976
140.924
140.461
140.064
139.72
139.689
140.316
436.913
406.155
399.389
474.573
686.898
770.257
833.134
858.795
834.937
1320.09
898.413
687.912
543.65
568.604
382.271
294.707
184.509
186.146
185.549
172.827
158.542
148.997
145.416
145.027
145.619
146.356
146.848
146.941
146.79
146.957
476.078
481.058
461.712
468.76
664.493
808.059
884.886
917.342
851.044
713.033
448.318
291.918
238.652
266.522
307.303
234.056
175.212
174.477
171.294
160.238
149.855
143.962
142.174
142.257
142.944
143.833
144.558
144.63
143.831
142.753
500.596
462.017
442.095
550.828
872.527
955.209
1072.09
941.682
813.071
650.186
410.417
253.817
218.337
236.986
241.1
193.374
165.358
162.471
157.345
148.359
140.944
136.707
134.758
133.946
133.735
133.991
134.394
134.42
133.637
132.229
607.937
572.411
564.914
791.633
1280.76
1206.21
1026.98
852.805
724.624
568.854
361.127
214.475
196.009
200.758
192.926
167.378
154.565
150.479
144.711
137.578
131.311
126.726
123.538
121.346
120.089
120.055
121.168
122.365
122.249
120.747
687.908
649.476
624.438
957.611
1241.26
1043.35
894.268
757.429
640.012
497.992
304.019
180.43
170.592
168.469
161.099
149.44
143.011
138.672
133.435
128.157
124.476
123.34
123.625
123.653
122.572
119.78
115.628
111.775
110.356
108.785
710.38
716.93
654.362
833.973
997.864
883.108
777.939
671.88
568.811
427.295
219.193
153.206
148.05
145.583
142.086
137.98
135.38
133.687
133.071
134.291
136.476
138.422
139.884
140.924
141.364
140.201
136.038
129.233
122.53
118.315
672.183
715.661
649.423
667.131
791.084
684.322
643.364
589.01
497.444
321.31
147.426
143.788
143.595
143.876
143.566
143.683
144.391
145.492
146.932
148.359
150.1
152.06
153.933
155.353
156.052
155.855
154.925
153.561
151.114
148.306
639.68
754.028
725.739
645.298
615.337
511.451
477.845
495.984
412.941
222.582
157.963
154.292
155.162
156.7
156.793
156.664
156.578
156.833
157.456
158.257
159.087
159.721
159.921
159.37
157.724
154.838
151.209
148.219
146.62
143.336
162.424
317.413
411.313
440.707
481.688
618.606
706.418
418.17
295.712
253.433
222.154
194.288
171.015
152.839
138.972
128.847
120.133
111.01
101.024
90.8471
83.6493
81.6577
81.8298
81.4109
80.2282
79.1054
78.1454
77.3136
78.1046
83.7712
193.922
331.189
429.146
589.317
908.48
786.535
551.491
399.981
335.345
302.285
271.781
240.889
209.512
182.107
161.609
149.42
138.553
127.429
115.675
103.755
93.8919
88.8655
87.7165
87.032
85.5968
82.7412
78.9556
74.8092
72.0103
70.8118
219.866
356.544
647.246
823.404
636.262
510.829
421.613
378.062
356.979
333.157
308.594
285.154
262.989
242.194
220.199
196.544
174.061
156.204
140.06
125.54
114.247
107.086
103.834
100.8
97.3009
93.0454
89.0777
85.2848
81.4617
76.4516
233.899
422.221
691.57
580.744
500.065
442.569
388.81
352.764
336.754
313.541
287.687
266.953
252.262
240.461
229.579
218.661
207.047
191.178
174.364
157.112
139.548
125.835
117.431
110.428
104.192
99.1898
94.9461
90.6336
85.7441
78.5716
274.338
585.924
626.251
549.607
496.025
446.886
394.342
338.878
296.826
276.018
253.702
237.031
227.445
221.131
216.585
212.052
207.462
201.549
194.056
180.664
163.468
146.572
132.755
121.234
112.064
105.805
101.363
96.9848
91.5157
83.8044
292.57
612.109
588.698
534.73
500.19
465.854
425.223
371.947
309.205
257.277
229.55
212.328
205.035
200.446
198.566
197.798
197.452
197.076
194.798
187.085
174.062
158.492
143.298
128.858
117.018
109.61
105.141
100.915
95.5694
88.2082
277.204
560.046
554.028
510.768
498.215
486.493
469.006
442.883
387.935
296.23
254.885
235.228
198.017
186.369
183.988
183.989
185.671
188.632
189.733
184.209
173.103
160.685
146.679
130.421
116.803
108.74
104.012
99.9342
95.8621
92.0446
251.534
486.81
537.597
515.751
527.858
526.455
515.548
492.31
464.411
517.242
357.905
355.887
234.525
200.19
179.397
176.683
177.363
181.09
183.405
178.287
167.793
155.55
140.026
122.763
109.574
101.918
98.1194
96.3426
96.4085
98.6947
234.672
411.428
525.483
546.355
599.44
597.78
600.645
628.848
602.538
448.964
363.251
453.638
294.36
238.638
186.07
181.533
175.345
175.684
177.051
170.638
158.743
143.478
124.977
108.557
98.1525
92.7704
90.3195
89.4914
89.8848
91.4409
224.087
355.089
506.732
588.718
714.848
712.916
699.596
807.133
938.533
703.388
1135.95
1113.74
647.988
525.003
227.202
196.775
176.237
170.238
169.093
159.145
143.77
125.669
108.175
96.1042
89.6178
86.5014
85.2023
84.9918
85.9872
88.5095
211.219
317.487
446.342
579.634
740.922
818.479
789.153
1049.78
2005.63
3890.1
1975.02
322.732
252.764
172.158
162.628
157.132
142.698
124.799
107.507
94.8144
87.9768
85.0265
84.2213
84.7784
86.396
89.1667
93.0005
202.932
318.99
395.237
536.76
689.563
810.125
717.439
675.841
1204.41
1584.19
1326.93
3664.52
1476.6
1467.46
341.931
275.489
164.309
151.909
140.681
123.145
105.631
92.1859
84.3208
80.9913
80.3151
81.3048
83.4863
86.5597
90.3636
94.654
229.246
344.339
386.971
471.648
632.975
728.622
715.227
645.54
601.656
604.995
662.407
1272.63
620.196
468.261
325.854
246.696
152.116
137.334
121.655
104.106
89.7237
80.9033
76.6904
75.6024
76.3015
78.0368
80.3878
83.1889
86.4123
90.0577
270.098
365.98
402.347
478.704
618.139
702.011
767.741
691.823
637.054
596.031
522.58
451.79
414.034
332.561
283.701
201.257
138.398
120.312
103.792
89.0331
78.8915
73.7963
71.9111
71.7867
72.5322
73.7583
75.3158
77.1775
79.3511
81.8328
318.467
434.552
567.434
668.812
725.464
786.196
777.255
712.166
644.965
580.074
453.54
378.594
335.295
277.129
227.564
164.461
124.349
104.939
90.2068
80.2354
75.809
75.1476
75.5955
76.0479
75.9002
75.0876
74.1807
74.1836
76.1435
79.2903
362.665
450.825
559.722
699.293
802.95
789.308
741.281
681.423
627.108
541.021
392.222
314.076
266.844
222.15
180.482
139.303
113.22
98.3054
89.7549
87.3672
89.2189
92.4659
94.45
94.0883
91.6674
87.9423
84.225
82.3273
83.2564
86.2913
378.706
462.277
587.586
791.198
794.199
757.487
711.127
656.35
604.745
494.059
344.26
259.369
214.666
180.147
150.167
125.858
110.784
102.798
99.6677
99.9108
101.109
101.433
100.422
98.6855
96.8867
95.3622
93.8546
92.7624
93.8047
97.5567
371.779
468.59
626.404
754.192
755.407
751.73
699.045
636.093
569.636
446.694
293.709
218.04
178.885
151.751
132.814
118.786
109.169
102.568
97.6597
93.4914
89.5948
86.3797
84.4823
84.2274
85.6861
88.4405
91.5462
94.0517
96.1733
98.9193
331.429
413.749
449.936
683.206
750.914
744.658
696.308
617.51
513.129
334.187
203.653
167.852
138.122
121.523
110.72
100.616
92.7499
86.4553
81.3625
77.6825
75.8265
75.9305
77.3661
79.2699
81.258
83.2585
85.1484
86.5785
87.0545
86.3606
285.607
390.931
414.712
579.998
651.902
646.393
631.662
609.666
449.967
241.565
150.463
118.15
101.71
96.6083
93.8839
89.726
86.136
82.9284
80.4375
78.8632
78.2804
78.4073
78.884
79.3046
79.3662
78.9894
78.3481
77.7193
78.0195
75.9673
188.99
368.22
503.479
570.346
625.61
715.316
582.833
378.691
290.788
242.655
202.32
171.082
150.042
133.914
121.52
112.77
106.304
99.9863
93.0521
85.7073
80.4342
79.075
79.6628
79.5124
77.4504
74.4838
71.4621
68.8762
67.3654
67.7554
217.247
450.463
657.641
840.589
806.476
616.527
468.116
404.577
366.515
331.567
296.598
263.832
233.725
206.474
181.304
159.04
139.606
124.995
114.806
106.675
100.622
97.8625
97.2759
96.1131
93.3111
89.0054
84.071
79.8465
77.2144
75.5159
266.495
582.501
646.89
598.476
499.773
422.167
388.125
377.264
368.798
347.564
317.897
288.419
263.115
242.414
224.344
206.616
188.717
170.635
153.922
140.338
128.69
120.255
114.503
108.327
101.7
95.9579
91.1388
87.1219
83.573
78.6157
308.722
546.005
532.67
461.495
418.957
383.178
357.328
352.114
346.021
323.857
292.465
264.185
244.342
230.19
219.39
209.816
200.376
190.493
181.464
171.389
158.919
144.627
131.869
120.754
110.921
102.865
96.3342
90.7252
85.8322
79.5574
388.252
530.752
502.077
452.157
416.993
382.89
350.451
328.893
313.316
287.253
256.389
232.161
216.982
207.832
201.729
196.176
190.641
185.316
180.808
176.705
171.378
161.187
148.393
135.576
123.265
113.269
105.654
99.1367
93.0796
85.6167
412.653
524.62
481.537
443.625
419.511
392.218
360.119
323.314
282.26
246.892
219.687
202.481
193.154
186.456
182.963
180.262
177.125
174.205
172.507
171.562
169.864
165.727
158.46
147.463
133.475
121.954
113.883
107.133
100.576
92.5937
392.65
510.511
471.259
444.403
430.874
407.985
379.939
347.109
302.636
250.188
212.75
195.667
184.429
176.341
170.483
167.259
165.049
163.384
163.413
164.969
166.286
166.577
165.232
155.305
138.625
125.87
117.327
110.168
103.385
95.7356
339.41
486.848
477.779
472.64
473.062
447.92
422.877
404.191
383.486
340.39
236.532
207.253
183.561
179.789
177.368
166.853
160.691
157.374
157.065
160.167
164.831
170.025
169.444
155.058
136.496
122.589
113.597
106.319
100.055
94.3853
296.194
425.579
475.204
503.285
533.475
501.953
466.727
463.66
489.505
496.118
410.389
227.138
193.306
191.12
208.802
180.401
165.191
156.876
154.758
159.412
168.651
173.707
163.171
141.997
123.472
112.195
104.947
99.4209
95.478
93.5691
269.004
363.003
446.387
505.223
539.965
558.543
503.553
489.888
537.62
579.233
830.698
1907.65
967.164
413.37
252.875
204.312
172.986
157.926
155.883
163.643
172.274
165.34
144.211
122.949
109.338
101.814
97.2511
94.2411
92.7156
92.9677
248.007
337.589
405.201
488.731
531.493
549.671
536.828
519.783
608.148
1396.44
925.274
1333.3
259.467
214.663
175.765
158.127
159.313
167.356
163.74
142.603
119.679
103.58
94.683
90.0791
87.9318
87.4085
88.4138
90.8945
256.163
396.76
419.316
468.552
562.526
566.395
551.036
517.674
545.501
595.871
580.273
6919.71
1149.43
2368.54
248.569
216.865
170.615
157.791
161.862
161.038
141.809
116.651
98.7279
88.5596
83.8365
82.4797
83.1174
85.2284
88.5397
92.8008
298.749
391.583
405.46
441.286
584.356
647.37
599.378
559.859
538.673
539.937
562.084
628.013
715.776
396.531
236.738
202.547
163.16
157.118
157.642
142.642
116.749
96.7562
85.7083
80.8016
79.6315
80.4449
82.2966
84.8663
88.1284
92.1843
355.769
440.327
492.191
515.717
574.814
612.52
611.127
616.27
601.608
585.625
564.263
523.09
478.141
270.38
218.393
182.562
156.724
153.457
144.033
120.265
97.1965
83.7614
77.6065
75.4715
75.2055
75.7667
76.6586
77.7542
79.2886
81.5484
405.929
478.076
569.769
629.468
648.246
688.708
729.719
685.966
629.354
603.675
550.424
457.567
371.687
238.138
196.597
166.525
150.73
143.346
125.578
101.65
84.6671
76.8355
74.014
73.2215
73.1783
73.5516
74.5063
75.9296
77.9455
80.0596
436.707
508.042
605.944
691.817
829.275
776.999
719.859
665.31
621.935
598.006
487.409
376.281
292.604
209.628
176.987
154.222
140.751
127.096
107.797
90.5648
81.7582
79.3326
79.1574
79.0385
78.5605
78.3314
79.4189
82.5774
87.361
91.8609
452.612
556.458
729.151
787.726
768.663
747.199
691.391
629.868
610.239
547.762
399.033
294.901
232.189
182.636
157.938
139.918
125.673
110.962
96.7748
87.4868
83.8958
83.4287
83.9154
84.6742
85.8668
87.6873
90.3186
94.2879
100.425
108.598
445.875
573.062
695.128
742.984
751.232
721.986
658.132
609.367
576.381
465.493
312.815
227.776
184.994
155.454
137.382
123.139
110.346
98.4862
88.8083
82.7178
79.9186
79.4395
80.6526
83.2056
86.777
91.0611
95.5319
99.3234
101.342
103.2
383.72
479.61
628.105
708.932
740.718
723.553
658.737
589.161
491.994
324.916
207.237
173.568
146.813
129.257
117.592
107.395
97.9499
89.6658
83.4248
79.7172
78.2868
78.5497
79.9833
82.1195
84.6222
87.2006
89.4819
90.9507
91.6317
89.2015
312.557
405.681
572.496
667.347
675.839
679.126
680.164
630.226
461.586
254.533
159.566
136.613
122.317
113.881
108.639
102.445
96.787
91.686
87.5526
84.4591
82.4544
81.3725
80.9056
80.7782
80.7881
80.7967
80.6188
79.8855
80.8454
77.5165
196.573
414.607
565.128
626.927
658.441
657.475
508.21
382.939
318.712
274.918
239.426
216.212
198.256
178.611
156.317
133.604
114.371
101.145
93.5544
87.7754
84.8918
84.7018
84.9212
83.9418
80.7696
76.0569
70.9527
66.302
62.7701
60.0267
236.563
523.522
671.422
704.031
627.805
515.954
453.491
425.52
397.91
367.208
331.067
294.884
264.762
239.293
215.605
193.391
172.852
152.743
132.547
117.349
111.004
109.973
110.64
109.445
106.279
101.735
96.2041
90.5367
86.4629
82.5119
309.555
530.674
521.335
478.412
439.888
412.194
408.317
409.558
405.099
382.213
346.343
309.596
278.87
255.624
237.835
221.787
205.149
188.453
173.308
159.622
146.16
134.489
125.911
118.921
112.548
106.31
101.203
97.1027
93.5308
88.6124
352.348
486.67
456.404
415.44
393.666
380.945
378.501
386.508
385.804
362.335
324.061
285.442
257.427
238.278
224.954
214.266
204.369
194.295
184.684
176.17
167.749
155.802
142.524
131.582
122.423
113.787
106.037
99.4467
93.9963
87.7736
410.654
481.618
446.065
417.816
399.91
380.28
365.098
364.825
361.603
336.336
296.334
257.295
230.354
215.062
205.785
197.766
190.095
183.255
176.918
171.104
165.692
159.8
152.062
143.874
135.391
125.979
116.958
109.019
102.082
94.3861
424.26
475.412
438.088
423.99
416.161
394.048
369.132
353.182
339.587
309.22
269.4
233.923
207.733
192.178
185.492
181.032
175.75
170.342
165.568
161.497
158.15
155.404
153.394
151.596
147.169
138.431
128.999
120.53
112.835
104.37
406.338
465.539
435.299
436.709
438.572
411.927
378.138
350.138
324.244
298.111
269.746
246.801
220.763
196.098
177.776
169.352
164.5
159.968
155.958
152.83
150.985
151.03
154.361
160.11
159.387
149.946
139.117
129.261
120.443
111.036
362.567
453.774
441.158
461.424
478.989
447.037
403.799
379.818
369.826
366.165
314.461
280.34
245.106
221.791
213.846
186.317
169.965
159.689
152.297
147.746
146.277
149.748
160.835
173.601
171.402
155.298
141.695
129.977
119.486
107.42
314.979
407.415
434.46
463.347
517.783
505.437
450.106
429.245
439.514
466.467
479.705
399.891
281.856
250.783
279.481
228.951
192.083
169.603
154.916
146.282
144.968
154.791
175.351
182.988
165.503
147.812
134.612
123.502
113.33
104
280.577
352.747
409.381
433.385
462.826
504.371
476.947
453.764
474.445
497.219
541.415
575.053
331.07
248.001
349.924
273.559
211.692
178.341
157.775
146.221
148.117
169.256
183.626
168.151
145.591
129.711
118.897
111.43
107.118
106.288
265.988
361.766
394.729
419.808
429.167
446.768
454.937
460.671
479.985
502.61
517.593
2087.36
574.011
282.558
384.449
295.155
219.066
179.698
157.473
147.804
159.517
176.892
165.211
140.224
120.704
107.78
99.648
95.1019
93.9885
95.839
295.186
402.691
423.41
429.602
444.375
435.11
442.975
459.335
476.419
496.049
528.109
915.531
535.42
1040.55
377.967
277.775
211.518
173.497
154.538
152.953
167.119
161.701
137.393
117.002
103.878
96.7245
93.463
93.1703
95.468
99.759
345.398
406.507
419.515
430.688
484.047
492.679
478.675
492.048
508.921
528.483
546.702
567.115
590.971
484.032
327.965
244.935
192.328
163.189
151.903
156.832
157.968
136.683
115.023
101.699
94.7205
91.7746
91.1545
92.0739
94.3869
98.2289
407.454
462.05
496.065
506.386
532.557
540.487
573.237
607.155
602.034
585.929
573.394
542.995
512.198
368.898
273.36
210.832
172.466
153.722
150.041
152.108
138.985
115.529
99.605
91.6856
87.9739
86.3548
85.6456
85.3455
85.704
87.4041
459.223
499.019
555.298
592.194
624.258
715.145
762.86
708.678
639.467
606.564
577.953
510.361
435.338
298.894
226.77
182.889
157.904
146.993
144.274
137.676
118.585
99.8043
89.8265
85.7722
84.647
84.8849
85.5506
86.558
88.6739
91.6811
490.517
528.551
621.386
720.428
839.96
792.696
716.333
670.088
621.811
605.058
542.044
439.878
347.66
242.606
193.102
163.755
147.363
138.551
131.227
118.072
100.952
89.4669
84.8763
83.9386
84.8292
86.8952
89.9355
93.9716
98.2798
103.071
511.58
572.962
690.344
741.659
750.704
711.149
667.447
624.816
598.336
568.822
458.848
350.043
270.756
202.328
169.81
149.295
135.797
125.275
114.229
101.182
90.1566
84.8853
84.0696
85.6311
88.5721
92.3795
96.6994
101.014
104.069
106.61
514.418
594.217
662.202
706.757
721.608
684.018
628.765
590.907
569.632
496.752
363.149
267.767
212.478
172.732
150.404
134.446
121.764
110.687
100.014
90.4913
84.421
82.6329
83.8949
86.9492
91.0785
95.6285
99.9309
103.055
103.924
102.049
449.397
555.455
650.071
706.564
720.99
680.035
618.513
564.092
489.566
365.936
256.148
205.478
173.398
150.449
134.596
122.302
111.735
102.525
94.5539
88.5162
85.432
85.2838
86.6374
88.7183
91.0736
93.3703
95.1305
95.4344
95.2428
91.4907
350.811
490.422
634.923
688.577
678.624
683.016
677.983
618.6
467.253
283.2
187.881
170.338
153.569
139.865
130.462
120.787
112.236
105.02
99.5976
95.4539
92.7926
91.2609
90.4296
89.9783
89.6314
89.1763
88.5026
86.6986
86.5429
83.0988
195.118
423.806
571.59
608.306
627.564
593.597
480.3
399.054
353.294
323.555
300.435
272.564
248.263
227.118
206.163
182.047
154.082
125.801
105.311
93.8173
89.5439
88.7919
88.9867
87.6718
84.1056
78.7877
72.6698
66.8028
62.2793
57.6687
232.056
533.948
605.335
587.477
539.549
488.219
465.322
450.282
428.086
400.982
363
321.942
288.608
263.102
242.137
221.422
199.84
178.833
158.924
139.901
123.172
116.895
115.783
114.533
111.966
108.547
104.103
98.4422
93.9012
88.7882
292.321
513.057
483.266
451.38
437.242
435.419
445.288
450.244
443.511
418.842
378.417
334.076
296.519
268.654
249.114
233.414
218.035
202.056
186.45
172.405
159.261
144.564
132.556
123.827
117.289
111.976
107.986
104.927
102.219
98.011
335.463
477.6
440.143
410.986
403.795
409.706
420.718
431.481
431.864
407.971
366.361
318.784
279.15
252.726
234.913
221.611
210.645
200.188
189.757
179.489
169.49
158.936
146.774
135.492
126.216
118.324
111.372
105.3
100.214
94.6508
399.141
467.015
430.847
417.458
419.203
413.641
406.437
411.59
413.64
392.159
350.683
301.514
259.498
232.032
216.153
204.902
195.617
187.146
179.254
171.749
164.346
156.848
149.246
141.695
134.416
127.206
120.051
113.291
107.172
100.271
413.008
454.249
426.3
435.454
456.064
444.826
415.977
407.11
403.669
379.4
335.966
286.562
244.153
213.486
196.693
187.922
180.881
174.221
167.57
161.171
155.208
149.676
144.885
141.538
139.097
135.755
131.073
125.564
119.642
112.114
397.225
438.72
422.218
452.691
498.172
491.506
442.108
411.347
394.395
364.992
329.828
299.382
267.438
233.612
205.85
185.487
174.526
166.338
159.492
153.149
147.618
143.222
140.833
142.092
146.118
147.906
145.731
140.403
133.499
124.685
358.278
423.591
414.343
449.005
520.482
537.181
467.887
414.601
396.668
387.318
382.438
372.605
343.989
302.542
263.384
226.051
196.726
176.72
162.311
151.613
143.911
139.328
139.806
148.226
160.179
164.986
160.769
152.059
142.65
130.767
314.687
385.446
398.756
412.977
469.94
539.014
495.501
440.181
442.548
461.643
455.306
455.551
432.008
371.807
329.426
279.164
233.1
198.387
173.411
155.481
143.48
138.308
144.278
163.015
178.514
177.145
166.19
153.987
141.702
127.468
280.477
342.637
377.839
384.641
399.9
445.22
465.047
447.635
475.252
505.1
516.118
525.698
508.718
455.913
374.444
315.28
257.366
213.342
181.455
158.4
143.382
140.539
156.322
181.445
183.303
166.86
149.83
135.004
123.958
117.87
275.155
364.571
383.209
383.8
384.528
393.931
413.518
439.798
472.718
493.048
511.745
537.549
527.075
479.638
390.264
332.176
265.788
217.191
182.661
157.586
142.965
147.756
172.058
180.533
163.387
143.062
126.409
113.436
105.113
102.069
316.637
380.305
392.284
394.856
398.619
399.612
415.758
443.891
464.357
480.058
501.986
517.684
504.213
477.741
395.943
334.515
260.904
211.048
176.033
152.845
144.574
158.899
170.653
159.441
140.024
124.536
114.136
107.873
105.841
107.84
372.068
410.319
427.512
427.262
429.981
426.939
447.298
483.04
504.421
519.749
538.172
527.826
495.493
453.1
394.124
317.444
242.558
195.227
164.324
147.082
148.801
159.526
153.749
136.395
121.118
111.137
105.183
101.738
100.413
101.509
432.912
457.11
487.623
491.576
496.186
524.687
603.439
641.981
629.268
596.807
572.401
537.76
490.785
436.425
358.245
275.039
213.232
174.136
150.949
143.352
148.249
148.633
135.173
119.442
108.801
102.459
98.6898
96.1677
94.3906
93.4087
483.963
487.503
538.533
572.681
647.238
787.634
815.027
743.159
657.23
608.641
578.213
526.404
463.379
380.203
296.523
228.951
183.254
154.718
140.774
138.404
139.401
132.042
118.9
108.416
102.279
99.2075
97.286
96.2282
95.9659
95.91
518.335
512.621
596.341
735.699
866.354
812.218
706.35
656.182
623.623
593.923
554.46
478.233
397.669
306.649
238.341
190.574
158.916
139.939
131.553
128.592
124.185
114.932
106.103
101.191
99.5008
99.6589
100.728
101.151
101.793
101.961
546.889
568.359
654.554
734.048
749.607
679.663
627.08
602.794
581.23
557.443
489.056
399.423
317.786
242.765
195.304
163.045
141.168
127.965
120.759
115.38
108.935
102.148
98.2011
97.5967
99.2683
102.242
105.487
107.174
107.695
106.593
558.887
606.297
656.632
701.947
697.549
639.629
590.169
562.691
546.258
501.531
405.418
314.87
248.716
198.331
166.565
144.022
128.03
117.66
110.527
104.64
99.4096
95.8839
95.1152
96.6769
99.8412
103.486
106.606
107.711
107.159
103.735
502.057
602.846
673.99
712.292
696.278
634.58
580.378
535.68
485.054
408.642
314.858
246.509
203.345
171.746
149.517
133.429
121.693
113.499
107.371
102.502
98.7469
96.5783
96.9636
98.4599
100.421
102.229
103.123
101.898
100.426
96.3705
382.305
544.259
654.936
686.287
671.78
668.121
652.906
592.296
467.451
317.851
231.23
206.561
180.448
159.708
146.307
135.503
127.338
120.623
114.347
109.214
106.085
103.984
102.773
102.04
101.308
100.266
98.6648
95.5357
94.0342
90.1396
192.707
405.075
561.521
588.394
603.033
559.253
471.353
419.578
396.474
385.188
356.983
316.556
283.826
259.741
240.784
221.679
198.692
169.802
136.937
110.158
96.3752
91.2761
89.8229
88.2546
84.9726
80.1012
74.2946
68.4339
63.4991
57.7902
218.075
512.476
568.1
535.563
511.173
488.693
481.394
472.968
456.692
434.464
393.157
346.495
307.565
279.111
258.847
241.368
222.864
202.597
181.565
161.271
141.99
125.517
117.817
114.683
112.523
110.466
107.802
103.452
99.66
94.4271
234.925
497.48
497.343
472.857
466.688
472.716
485.284
488.513
478.315
452.668
410.097
360.891
316.617
283.291
260.333
243.52
229.12
214.466
199.061
183.615
168.681
153.933
139.65
128.253
120.369
115.002
111.635
109.679
108.392
105.658
274.767
475.943
456.864
433.418
434.084
452.351
468.347
474.767
473.282
450.013
408.513
356.19
307.735
272.177
248.476
231.748
218.817
207.7
197.099
186.333
175.185
163.71
152.001
140.33
129.844
121.156
114.175
108.589
104.24
99.8168
354.963
465.754
435.887
428.591
438.71
448.765
449.496
452.105
457.261
440.034
400.366
348.443
298.426
258.411
232.028
215.752
204.033
194.193
185.205
176.699
168.299
159.689
150.894
142.211
133.826
125.876
118.727
112.578
107.562
102.173
379.456
445.718
425.12
445.274
472.352
476.565
455.036
442.47
446.669
431.454
393.338
339.367
285.917
244.988
217.583
200.628
190.288
182.044
174.132
166.196
158.446
151.014
143.924
137.44
131.91
127.206
123.19
120.034
117.268
112.576
371.658
423.593
413.781
454.116
496.561
515.296
491.25
458.683
449.324
426.084
382.533
331.991
290.815
259.684
234.198
211.072
193.986
181.328
170.396
160.633
151.934
144.367
138.033
133.414
131.215
131.277
132.509
133.706
133.183
128.293
344.748
400.496
396.519
427.79
476.214
523.537
526.248
473.52
444.478
422.416
402.133
380.654
354.648
323.643
290.126
256.645
227.598
202.929
182.308
165.215
151.682
141.553
134.755
132.235
134.958
141.439
148.292
151.96
151.069
144.718
312.438
368.169
372.251
383.338
413.991
470.475
502.904
464.412
452.42
473.101
485.521
466.99
434.478
392.988
347.486
303.046
262.329
227.368
198.562
174.544
155.205
141.272
133.776
134.975
144.657
157.209
166.779
170.239
166.038
154.685
285.897
338.041
351.485
354.778
363.78
391.262
419.702
429.382
467.283
504.701
518.711
504.452
472.747
429.848
377.69
327.023
280.73
240.912
207.887
180.038
157.182
141.04
135.028
142.225
158.184
171.969
175.64
166.922
152.756
136.59
282.429
342.267
353.055
352.229
349.362
356.148
375.544
415.139
461.125
483.809
492.392
486.005
464.562
430.016
383.43
334.587
286.608
244.838
209.999
180.524
156.227
140.301
139.138
151.171
166.513
169.285
160.309
146.858
132.575
119.916
334.366
373.37
371.635
369.468
367.128
371.947
398.624
435.723
457.519
470.562
483.85
484.892
466.647
432.179
385.334
334.947
284.235
241.372
205.846
175.827
151.691
139.516
143.63
154.925
159.299
151.156
140.331
130.303
121.986
116.4
395.137
412.151
423.347
420.609
414.945
424.599
467.211
502.186
518.02
526.45
527.831
512.839
479.314
434.468
381.866
327.289
274.125
230.896
194.729
165.293
144.409
139.587
144.979
148.871
142.995
132.5
123.702
116.589
110.617
105.64
450.74
446.817
474.868
479.414
484.868
544.479
635.95
674.427
669.464
625.487
577.154
534.126
483.453
429.124
368.445
307.056
254.393
210.4
175.489
150.701
138.29
138.486
141.119
138.301
129.096
120.183
113.936
109.231
105.274
100.848
502.28
473.558
514.22
569.204
680.276
823.399
828.419
763.014
668.246
615.333
573.983
528.147
469.882
405.295
334.166
270.304
221.98
182.929
154.691
138.248
132.644
133.757
133.21
128.12
120.819
114.839
111.006
108.349
106.452
103.593
542.475
506.43
559.85
720.503
878.6
809.069
682.983
616.506
600.13
583.487
547.256
492.868
426.675
351.612
282.025
227.372
187.034
156.558
137.424
127.97
125.309
125.23
123.477
119.946
116.494
114.637
113.412
112.435
111.811
110.262
578.875
574.061
643.358
737.245
744.117
645.495
581.325
561.606
553.484
537.467
492.089
428.976
358.406
286.015
229.631
187.997
157.538
136.749
124.776
119.044
116.938
116.098
115.087
114.309
114.604
116.251
117.294
117.138
116.259
113.934
598.557
623.079
661.044
701.321
671.653
595.649
547.904
525.81
513.791
485.635
422.888
352.94
286.896
229.697
188.799
159.091
138.049
124.747
117.15
113.236
111.47
110.881
110.967
111.824
113.725
116.267
117.368
116.105
114.067
110.227
547.18
644.858
699.409
714.747
667.383
596.131
546.519
505.243
470.198
423.908
353.413
286.515
234.336
193.642
164.782
144.661
131.088
122.771
117.876
115.109
113.629
112.886
112.201
112.563
113.929
115.007
114.383
111.764
109.229
104.499
413.75
568.728
660.675
675.618
664.198
647.922
622.726
562.401
460.085
345.541
278.634
244.51
205.843
176.814
158.637
145.867
137.648
132.445
129.001
126.228
122.981
120.05
118.068
116.919
115.638
113.782
110.814
106.529
103.796
98.9546
200.94
385.922
551.238
578.441
597.694
548.295
475.059
451.327
448.915
446.764
400.051
345.138
304.167
276.292
257.678
242.972
227.07
206.413
178.66
144.293
113.338
97.3195
90.3192
87.0593
83.9057
79.8181
74.9832
69.84
65.271
59.4268
219.525
480.658
556.003
525.821
512.456
497.485
495.987
493.912
487.128
468.977
422.084
369.914
325.541
292.227
269.542
253.192
238.44
222.151
203.302
182.347
160.729
140.059
123.514
114.733
111.491
109.905
108.663
105.879
102.919
98.2364
224.704
452.056
518.243
524.705
511.671
509.446
518.699
520.472
509.616
483.725
441.011
389.42
340.271
301.248
273.735
253.803
238.751
225.458
211.746
196.794
180.852
164.592
148.866
135.21
124.673
118.327
114.974
113.66
113.373
111.337
250.786
445.384
477.293
475.532
486.592