/*--------------------------------*- C++ -*----------------------------------*\
| =========                 |                                                 |
| \\      /  F ield         | OpenFOAM: The Open Source CFD Toolbox           |
|  \\    /   O peration     | Version:  2512                                  |
|   \\  /    A nd           | Website:  www.openfoam.com                      |
|    \\/     M anipulation  |                                                 |
\*---------------------------------------------------------------------------*/
FoamFile
{
    version     2.0;
    format      ascii;
    arch        "LSB;label=32;scalar=64";
    class       volScalarField;
    location    "40";
    object      omega;
}
// * * * * * * * * * * * * * * * * * * * * * * * * * * * * * * * * * * * * * //

dimensions      [0 0 -1 0 0 0 0];

internalField   nonuniform List<scalar> 
84826
(
16.2786
24.9965
138.565
288.724
342.631
353.726
352.549
354.284
361.703
362.057
343.306
310.243
274.881
256.485
262.325
262.075
246.242
226.507
206.505
184.462
161.003
132.026
88.1544
88.599
87.8682
86.5071
84.7375
82.7643
80.7668
78.9366
16.3135
26.1293
124.622
244.494
292.753
308.557
316.806
327.172
340.588
344.993
329.833
301.109
270.673
258.19
272.743
269.621
245.567
222.245
196.89
171.954
146.845
104.878
96.44
97.1724
96.4094
95.0575
93.118
90.8254
88.4812
86.4845
16.3277
30.7897
114.116
203.499
239.603
256.298
274.271
297.013
316.306
323.13
311.7
289.411
267.157
259.764
263.61
246.908
226.045
200.946
175.553
152.562
120.546
98.5416
97.6418
97.3661
96.3989
95.3482
93.7238
91.6028
89.3133
87.4268
16.4281
36.0233
102.045
165.063
188.978
202.5
228.176
260.803
287.035
297.803
290.871
275.703
261.01
249.251
236.428
220.579
201.343
180.271
159.67
135.429
102.976
95.7924
95.1525
94.2438
93.222
92.0392
90.6802
88.4883
85.8076
83.3394
16.6225
38.9148
88.6061
137.642
179.358
206.779
209.679
230.892
259.15
272.253
270.275
263.296
252.801
237.012
219.942
202.509
184.104
165.368
143.864
116.397
96.2664
94.1576
93.9291
93.4178
92.6389
91.6469
90.5002
88.4823
85.5631
82.6082
16.8986
38.2322
78.2036
128.899
205.182
225.362
218.48
212.826
234.286
249.405
253.857
254.829
243.749
224.979
204.762
183.475
163.561
143.156
125.244
101.354
93.4828
93.4971
93.3814
93.0301
92.5356
91.8321
90.9011
89.2954
86.2279
82.7691
17.2303
34.6738
70.0653
131.328
223.854
235.818
221.22
205.45
212.532
228.725
244.705
245.748
228.517
206.868
178.107
145.478
121.884
111.17
104.636
97.8776
96.3834
94.8024
93.3443
92.5224
92.1301
91.7943
91.256
90.2342
87.1752
83.263
17.5879
30.5877
62.2505
130.531
232.379
238.948
218.521
199.607
193.812
212.62
447.85
449.745
415.705
369.897
137.062
119.967
120.351
118.259
114.772
110.178
104.824
99.5065
95.2312
92.5777
91.3967
91.0552
90.921
90.6106
87.7907
83.5579
18.0842
29.5617
55.8814
129.606
230.995
233.752
212.186
197.399
199.904
265.812
477.693
416.737
354.832
309.77
129.64
137.685
138.655
136.506
131.921
125.308
117.222
108.589
100.748
94.8992
91.4759
89.9952
89.6306
89.6685
87.2056
82.7819
18.8891
31.8086
53.4918
130.03
227.673
226.285
205.387
206.05
240.661
291.32
635.798
954.148
947.562
573.123
147.435
154.486
156.303
154.795
150.272
142.953
133.337
122.144
110.83
101.15
94.3215
90.2516
88.2774
87.5305
84.9388
80.2917
20.8162
35.7029
63.0207
135.375
223.183
217.53
201.246
225.521
245.623
274.995
617.018
1336.18
571.779
164.048
170.918
173.908
173.597
169.836
162.604
152.553
139.777
125.544
112.057
101.528
94.0663
89.3422
86.0349
81.7524
75.9441
22.7092
41.7646
74.4086
144.662
217.833
208.409
198.573
230.822
247.181
269.169
583.182
1466.44
832.556
508.131
179.553
187.475
192.074
193.615
191.206
184.208
173.2
159.106
143.313
127.573
113.633
102.718
94.8233
88.2754
81.2296
73.0274
21.0739
44.1341
81.1254
149.018
209.516
199.677
191.145
227.066
243.64
267.952
621.61
508.839
302.682
305.811
195.451
204.461
211.387
212.539
208.745
200.698
188.87
174.109
157.76
141.339
126.238
113.496
103.363
94.5231
85.3354
75.0297
19.2868
36.429
77.8386
141.495
195.85
189.938
181.954
224.121
242.519
268.542
302.497
189.711
186.981
199.657
211.165
222.138
227.775
227.252
222.172
213.038
200.425
185.254
168.844
152.465
137.285
124.147
113.179
103.157
92.6466
81.2998
17.402
24.879
55.635
119.559
176.625
181.641
168.622
219.476
242.756
265.208
277.105
181.127
198.473
212.426
225.887
236.642
240.049
238.183
231.904
221.701
208.295
192.743
176.312
160.326
145.811
133.34
122.951
113.474
103.396
93.5841
16.3934
18.2711
37.0665
97.7593
156.687
171.755
160.933
206.019
239.068
254.807
244.008
188.615
206.999
222.554
237.944
245.579
247.503
244.505
237.188
226.075
212.024
196.196
179.933
164.531
150.951
139.692
130.73
123.152
115.712
113.885
16.1707
16.5232
28.4454
77.9217
137.582
160.823
152.827
186.996
230.008
239.65
180.845
194.339
213.272
229.508
242.548
247.744
248.161
244.137
236.037
224.368
210.072
194.413
178.803
164.424
152.156
142.355
134.932
129.163
123.346
119.751
16.1213
16.0876
22.6763
56.3462
109.614
137.836
135.884
162.416
209.74
205.272
169.169
196.613
214.085
230.039
238.241
240.318
238.637
233.372
224.743
213.174
199.604
185.272
171.456
159.143
148.919
140.933
135.024
130.541
125.795
121.491
16.1198
15.9668
21.2262
46.3909
83.8669
107.009
113.945
132.402
168.547
149.542
159.459
193.009
207.415
220.381
222.559
219.927
214.954
207.985
199.279
189.154
178.284
167.46
157.394
148.568
141.234
135.478
131.195
127.917
124.42
120.624
16.098
15.9122
21.7942
44.0786
68.6307
79.264
84.2108
97.1052
113.805
109.979
146.533
184.045
193.724
201.446
197.094
189.43
181.647
174.282
167.355
160.684
154.198
147.938
142.03
136.63
131.9
127.964
124.86
122.285
119.63
116.561
3.02087
18.7337
81.6734
146.723
194.863
207.025
197.188
182.058
174.618
173.873
170.347
160.954
147.263
132.421
133.733
135.754
131.465
131.443
136.411
156.027
207.764
162.339
83.758
59.6611
52.11
49.9189
50.1283
51.3397
52.7551
53.8501
3.28062
16.9678
67.3244
121.515
169.459
199.663
199.967
183.752
173.182
169.544
164.392
155.953
149.27
142.894
148.789
148.977
140.796
145.209
154.829
195.993
200.267
116.6
66.6061
52.0714
46.3347
45.8758
46.2755
46.5644
46.9047
47.4857
4.05426
16.6632
55.9552
106.314
196.799
235.842
238.551
220.991
191.77
173.627
162.027
154.003
152.03
157.338
168.297
162.732
161.79
170.12
200.482
229.366
156.483
91.2602
65.9323
55.5839
49.7269
47.677
47.4695
47.1834
46.9063
46.845
4.92023
16.9869
48.8411
116.318
212.532
226.247
231.914
232.274
210.037
184.427
167.288
159.336
160.953
170.772
177.913
180.345
192.711
232.127
275.534
201.658
126.928
89.5064
73.4848
63.8447
56.9671
52.2303
50.14
49.0665
48.0673
47.3445
5.43512
19.2235
45.9323
127.127
201.912
202.964
205.375
213.117
211.44
193.412
177.652
176.751
187.738
196.972
206.497
232.491
283.988
330.324
256.249
172.474
122.198
98.1571
83.8308
74.6941
67.0926
60.2843
55.3857
53.0146
51.2169
49.9823
5.69243
22.0141
49.1371
128.752
185.564
189.955
197.07
196.395
200.005
194.603
189.72
213.816
237.261
269.667
317.691
369.5
386.372
312.867
228.959
161.373
124.234
103.961
93.1721
85.6943
78.2645
70.1652
62.6756
57.921
54.8109
52.6879
5.78541
22.7072
53.9101
130.572
162.172
184.248
201.686
194.143
189.554
190.128
217.033
290.007
354.076
414.039
396.052
306.687
264.708
216.386
168.479
135.851
116.993
107.012
100.867
95.4041
88.9112
80.6883
71.499
63.9144
58.8866
55.3152
5.94809
21.8956
54.8248
120.158
143.574
191.389
209.278
197.293
176.397
192.141
239.978
393.1
535.49
517.675
206.907
156.703
144.971
138.195
131.058
123.778
117.791
113.182
108.958
104.197
98.2578
90.5634
80.9701
71.1605
63.7687
58.1364
6.32515
21.6306
53.9336
101.072
131.14
210.436
220.73
207.613
188.634
519.526
631.979
1509.01
829.021
575.014
150.952
133.636
132.31
132.644
131.664
129.297
126.244
122.627
118.136
112.66
106.298
98.9575
89.9865
79.3709
69.6539
61.4526
6.70861
21.9745
55.6301
88.802
124.446
232.725
235.464
233.098
353.875
785.686
2502.84
5972.65
2506.97
1391.58
138.233
133.958
135.941
137.732
137.985
136.957
134.798
131.307
126.246
119.824
112.61
105.227
97.3291
87.59
76.6514
65.827
7.30391
23.4798
56.4456
74.1136
117.988
246.913
252.668
268.473
362.023
614.625
1250.34
2067.47
138.261
138.739
140.675
142.147
142.659
142.157
140.307
136.701
131.117
123.989
116.068
108.451
101.605
94.0856
84.286
71.9518
7.5512
26.5985
42.3368
60.6117
110.382
247.851
267.587
294.117
413.301
685.512
1033.43
8308.71
1009.05
329.94
142.483
143.154
144.209
145.448
146.435
146.259
144.121
139.694
133.03
125
116.437
108.312
101.857
96.6243
90.383
80.1362
5.77853
23.2022
35.9884
56.064
101.696
226.463
272.657
295.729
388.135
511.705
836.09
225.196
192.816
171.026
146.01
146.123
148.076
150.181
150.97
150.185
147.093
141.463
133.668
124.601
115.033
105.912
98.7806
94.1124
91.0585
87.9373
4.49831
14.7945
28.7021
50.2092
93.7383
203.18
266.16
277.971
312.405
309.904
183.752
156.517
142.883
145.083
147.064
149.059
152.445
154.247
154.458
152.678
148.433
141.647
132.889
122.913
112.439
102.397
94.1586
88.3775
84.8516
86.768
2.85176
6.91636
18.1704
41.6592
88.4165
182.584
273.252
257.995
264.282
246.573
211.008
150.71
143.64
144.343
147.075
151.84
155.125
156.592
156.065
153.22
147.852
140.073
130.441
119.696
108.625
98.0433
89.0324
81.9956
76.5704
74.5945
2.1534
4.32017
11.1261
35.2497
83.7053
157.78
283.111
251.249
244.665
239.867
209.192
151.976
141.772
142.21
147.615
152.146
154.984
156.012
154.765
150.975
144.657
136.069
125.794
114.59
103.299
92.6842
83.6379
76.0575
69.8949
64.2762
1.9893
3.14251
8.56953
28.7262
75.4657
132.525
288.316
255.787
241.399
248.996
198.387
151.67
139.058
140.157
145.417
148.64
150.574
150.885
148.937
144.404
137.369
128.284
117.771
106.629
95.7909
85.9562
77.7282
70.9417
65.5161
59.7895
1.90382
2.64386
5.60909
18.7943
56.2439
97.9443
242.526
271.703
239.501
222.939
199.658
145.456
135.214
136.768
139.282
139.989
140.013
138.937
136.001
130.813
123.463
114.46
104.583
94.6742
85.4585
77.3732
70.833
65.6634
61.2844
56.3854
1.91581
2.42367
4.46057
12.7819
37.877
68.3069
135.789
233.767
233.049
214.811
205.92
141.296
130.222
130.17
128.463
125.073
121.662
118.038
113.549
107.855
101.048
93.5775
86.022
78.9063
72.557
67.169
62.8222
59.3054
56.4684
52.5401
1.93328
2.45045
4.49911
11.2886
26.4993
43.5349
64.7467
134.331
160.956
202.105
214.357
137.448
124.52
121.114
114.287
105.986
98.6788
92.5587
87.1359
82.0508
77.1264
72.3835
67.9322
63.8834
60.2988
57.1531
54.4585
52.2814
50.6867
47.245
4.2131
26.835
85.7346
167.895
226.321
234.483
215.283
188.232
171.923
164.313
146.868
124.113
112.585
114.021
130.897
135.867
131.083
127.377
147.68
202.863
163.959
93.6904
55.0025
46.4033
45.3489
45.9229
46.8154
47.8027
48.8536
49.9968
4.44474
23.1445
69.5962
145.228
189.978
200.091
199.268
187.473
171.689
162.088
147.561
133.346
128.625
127.217
147.046
145.049
135.114
143.27
182.216
207.81
133.066
74.6671
53.7657
50.6911
50.5937
50.7282
50.7725
50.7316
50.8357
51.3136
5.23238
22.2756
62.9129
159.006
191.068
198.581
200.311
194.021
179.598
163.906
149.017
140.781
143.03
155.118
167.134
154.293
163.658
197.062
235.034
173.516
106.808
73.0388
63.9507
60.9123
58.8935
56.8713
55.1294
53.8632
52.9876
52.6817
6.10606
23.6606
63.0329
166.378
189.884
195.508
198.668
197.564
186.197
168.868
154.447
152.416
170.757
193.288
196.447
208.809
252.443
277.256
208.555
142.171
101.725
85.806
79.401
75.355
71.2783
66.7963
62.2258
58.5695
56.0769
54.5058
6.75401
26.0772
67.3789
163.525
180.234
187.029
190.642
191.01
186.585
172.813
164.966
189.829
229.69
254.606
285.301
332.595
308.157
239.668
175.835
132.093
109.802
99.6056
94.3981
90.2823
85.481
79.6697
73.1196
66.3544
61.6194
58.6938
7.33531
29.3912
72.0615
158.071
165.355
176.089
184.982
184.715
183.939
178.609
201.274
281.274
323.925
354.212
341.156
296.949
249.905
199.656
159.405
131.976
117.327
110.466
106.761
102.929
97.9767
91.9205
84.8017
76.2447
68.3358
63.2341
7.88794
32.0123
74.0721
147.471
152.446
169.155
175.615
175.977
178.11
186.293
291.253
399.178
327.254
273.489
227.34
188.378
171.024
155.216
140.035
129.227
123.23
120.151
117.327
113.429
108.143
101.949
95.1849
86.6414
76.2255
68.1615
8.11019
28.8479
71.1366
129.573
142.16
168.024
170.684
164.692
159.839
226.149
352.491
382.414
299.325
212.934
146.344
135.791
136.626
136.648
134.782
132.597
130.915
129.145
126.355
121.961
116.124
109.511
103.073
95.7422
84.8733
73.8968
8.01697
24.1269
64.9156
110.644
134.732
172.66
172.496
164.721
179.526
320.643
425.719
484.298
335.122
191.962
130.801
132.5
136.454
138.015
137.949
137.756
137.373
135.966
132.864
128.008
121.715
114.626
108.111
101.967
92.8831
80.6662
8.20653
21.9806
60.7656
94.5775
131.117
190.388
184.41
183.266
232.253
427.781
834.222
949.636
1222.39
1059.28
130.872
135.814
138.577
139.536
140.057
141.042
141.417
139.984
136.421
131.096
124.57
117.2
110.402
104.74
98.1811
87.8687
9.1068
22.1261
58.5811
78.4682
130.725
209.401
205.592
201.443
251.203
403.352
771.951
2792.53
135.791
139.316
140.379
140.95
142.112
143.744
144.24
142.214
137.711
131.654
124.824
117.282
110.191
104.304
99.1394
93.015
8.99486
20.9379
46.1831
63.8804
132.37
222.619
230.728
239.433
303.603
531.497
1291.44
9344.26
543.545
214.901
142.212
142.416
142.824
143.418
144.996
146.655
146.417
143.29
137.625
130.638
123.099
115.262
107.833
101.378
96.0843
92.0793
6.76225
19.5785
33.1314
56.2924
122.854
225.241
245.891
265.28
339.07
540.798
841.11
185.97
139.135
140.895
146.578
145.627
146.018
146.946
148.437
149.204
147.674
143.161
136.565
128.858
120.668
112.332
104.399
97.2904
91.1851
86.0585
4.71213
15.362
25.963
50.1775
116.664
219.73
245.29
257.337
317.61
378.242
246.395
142.559
143.506
146.972
149.264
149.251
150.019
150.894
151.592
150.945
147.916
142.241
134.769
126.46
117.728
108.899
100.484
92.8551
86.1227
79.3243
3.05086
7.68622
18.4965
44.5026
121.832
222.147
243.031
239.767
258.479
234.626
163.901
136.993
145.129
149.42
151.925
152.984
153.906
154.503
154.132
152.017
147.603
140.849
132.609
123.567
114.17
104.898
96.1109
88.1482
81.219
73.5154
2.20479
4.99927
14.2076
45.091
124.535
238.447
245.885
224.133
218.303
195.472
163.377
137.218
145.962
152.24
154.681
155.794
156.796
157.027
155.719
152.35
146.816
139.059
129.919
120.048
110.012
100.165
91.1329
83.0542
76.2963
68.9006
1.96751
3.66666
11.6056
39.5333
114.632
250.556
259.158
225.743
220.942
205.225
164.028
140.107
148.888
154.725
156.007
156.598
157.287
157.111
155.135
150.833
144.228
135.75
125.682
114.972
104.335
94.2608
85.2703
77.4916
71.2409
64.7556
1.86446
3.02679
8.87367
29.1012
84.9692
202.227
272.226
248.035
233.817
204.557
165.154
141.443
152.454
155.848
154.912
153.717
152.991
151.722
148.788
143.595
136.136
126.822
116.358
105.705
95.4743
85.9202
77.8742
71.0703
65.7746
60.4571
1.83181
2.77358
7.4949
21.3672
58.8657
122.888
206.832
245.957
235.094
221.485
170.634
142.733
154.482
154.936
150.333
145.065
140.444
135.986
130.705
124.037
115.962
106.984
97.7611
88.959
80.989
74.0256
68.1781
63.1117
59.1473
54.9684
1.82874
2.8197
7.68583
17.2868
40.3638
70.1689
112.663
157.606
168.398
221.006
178.147
143.965
155.024
151.798
141.916
130.187
119.302
109.932
101.656
94.0825
86.9661
80.3248
74.2634
68.8746
64.1679
60.0956
56.5304
53.4177
50.6957
47.1015
5.29505
35.7935
95.3296
195.096
232.043
231.803
211.411
185.03
169.552
161.995
140.8
113.927
106.032
114.424
136.491
139.832
138.474
151.72
188.281
170.948
106.724
63.25
49.2202
47.9857
48.4103
48.7201
48.9209
49.1572
49.5451
50.2301
5.4177
29.8906
77.5092
160.995
171.744
180.718
184.841
178.037
167.081
159.566
142.847
128.321
125.683
129.418
153.642
147.464
147.72
170.957
194.742
151.42
91.9635
64.2809
60.1174
60.9408
60.9929
59.9654
58.6181
57.5732
56.9038
56.872
6.30077
28.691
75.4641
156.505
163.251
175.206
182.086
179.943
169.157
158.524
145.438
140.952
149.191
163.197
175.869
169.7
192.55
214.7
181.925
126.169
88.1688
75.9262
74.4765
74.1372
72.8416
70.4144
67.0192
63.6659
61.2532
59.993
7.72081
30.0488
84.2907
156.112
159.94
172.791
181.127
181.017
172.523
160.499
151.598
165.878
200.535
210.728
222.404
246.751
238.074
202.68
153.74
116.758
98.0908
91.7372
89.4264
87.449
84.7688
81.3537
77.1459
71.8643
66.7165
63.4274
9.07878
31.792
92.9289
152.208
154.02
165.188
175.956
178.453
172.115
161.82
167.353
229.635
264.321
262.497
264.811
246.306
210.259
171.579
140.037
119.711
109.667
105.265
102.61
99.6491
95.9732
91.7897
87.3784
81.9571
74.834
69.0521
10.2048
33.8705
94.663
144.915
149.027
159.953
165.131
172.785
171.399
167.792
226.999
301.476
266.142
248.597
223.136
195.955
173.962
153.238
136.191
124.748
118.959
116.096
113.509
109.892
105.289
100.336
95.6614
90.699
83.686
75.1798
10.9035
35.1645
90.9471
134.346
143.545
158.038
156.535
157.504
161.171
183.311
298.2
269.518
214.656
179.825
160.045
148.749
143.98
138.249
132.383
128.525
126.636
125.178
122.533
118.264
112.776
106.915
101.659
96.9634
91.466
81.6666
10.704
33.4659
83.3181
122.742
138.608
157.603
155.405
145.659
146.377
233.961
304.787
253.49
224.119
141.235
130.805
131.437
133.335
133.183
132.511
132.617
132.98
132.252
129.438
124.52
118.33
111.637
105.591
100.56
96.4739
87.7428
9.97578
29.8441
75.1385
112.554
133.513
156.993
157.498
149.187
180.516
286.65
350.318
526.709
841.918
220.821
127.146
130.381
132.564
132.879
133.706
135.746
137.534
137.241
134.037
128.552
121.761
114.518
107.794
102.048
98.2016
91.7618
9.50752
29.3525
72.92
103.071
128.033
159.6
157.054
170.678
215.658
364.962
603.11
1371.91
1039.91
949.956
129.531
131.693
132.66
132.798
134.817
138.448
141.195
140.747
136.866
130.631
123.306
115.636
108.418
102.102
97.4995
92.2942
9.59187
28.0382
68.9055
89.1082
123.181
176.72
156.866
180.7
229.28
370.264
1177.42
19509.9
686.529
1656.72
134.461
133.875
133.574
133.857
137.005
141.74
144.729
143.511
138.709
131.68
123.718
115.603
108.013
101.21
95.8068
90.1317
8.92117
24.6917
46.4652
69.7401
120.961
196.052
186.675
184.537
230.6
357.189
896.118
4877.29
300.422
179.597
139.966
136.725
135.564
136.473
140.697
145.334
146.847
144.386
138.782
131.277
122.975
114.644
106.844
99.7295
93.8038
87.2608
6.95582
20.6351
33.3669
60.4978
115.962
209.586
210.653
191.257
240.493
393.1
930.105
178.1
136.167
140.603
143.684
140.096
138.819
140.56
144.497
147.483
147.314
143.683
137.471
129.699
121.263
112.86
104.929
97.6225
91.4501
84.497
4.48721
13.0403
26.5695
56.3346
123.24
205.973
209.557
213.235
277.104
382.951
394.3
147.727
147.318
148.803
147.177
144.007
143.386
145.069
147.54
148.486
146.669
142.055
135.296
127.329
118.844
110.401
102.38
94.9443
88.6083
81.66
2.90869
7.74019
20.7258
56.0229
149.444
201.202
207.635
221.502
254.363
248.233
163.876
141.599
151.452
153.371
150.939
148.868
148.687
149.674
150.334
149.287
145.918
140.332
133.06
124.76
116.071
107.489
99.3251
91.7333
85.2596
78.4708
2.22671
5.42408
16.9266
58.9376
169.364
206.726
205.981
200.434
196.476
170.106
146.226
143.026
156.135
157.253
155.271
154.112
154.228
154.506
153.665
150.905
146.06
139.365
131.313
122.418
113.259
104.248
95.8481
88.0696
81.5215
74.9972
2.00527
4.01386
13.9376
51.0009
169.657
226.767
221.77
204.764
197.974
173.212
146.58
148.058
160.452
161.113
159.502
158.869
159.161
159.069
157.411
153.389
147.115
139.048
129.742
119.827
109.86
100.325
91.6698
83.8547
77.4532
71.3317
1.90145
3.40701
11.1112
37.0518
123.934
217.463
251.935
234.272
214.125
181.628
149.408
152.495
163.873
164.423
162.636
161.605
161.301
160.531
157.962
152.933
145.496
135.938
125.107
114.115
103.565
93.9207
85.5679
78.2662
72.5629
67.1816
1.86867
3.38744
10.396
27.749
81.4879
156.012
210.435
238.185
221.504
201.137
154.404
156.338
166.558
166.613
163.531
159.795
156.081
152.074
146.803
139.727
130.825
120.715
110.105
99.9316
90.5974
82.4025
75.6244
69.7844
65.3957
61.0747
1.87392
3.61575
10.7422
23.4303
57.6806
99.8852
132.332
153.458
172.434
204.937
160.555
159.687
168.139
166.841
160.538
150.603
139.358
128.584
118.495
108.995
99.9544
91.5001
83.8073
77.0094
71.1394
66.1037
61.8118
57.9403
54.7052
51.2769
6.44916
41.3104
104.68
197.93
214.052
205.159
186.341
168.313
159.788
154.734
135.89
110.584
104.824
117.607
143.449
142.01
156.316
170.089
160.059
120.3
76.4178
57.0082
54.0875
54.6009
54.6833
54.2648
53.652
53.0306
52.5135
52.2995
6.5517
35.5022
87.8214
160.39
164.445
167.839
169.573
163.31
157.306
153.011
137.175
123.884
122.803
131.438
159.984
152.063
163.634
168.36
150.914
109.805
77.6639
69.2756
70.3261
71.3535
70.954
69.5386
67.6101
65.6804
64.2839
63.7867
7.57063
33.4865
89.6549
150.339
153.905
160.258
165.51
163.597
156.881
150.65
139.912
139.546
146.496
164.779
187.725
184.555
179.987
168.102
136.77
103.86
86.9868
84.184
84.7371
84.4886
82.9949
80.5676
77.5778
74.201
70.746
68.185
9.64689
34.3838
97.6532
145.898
151.543
160.683
165.743
163.77
157.587
151.034
147.624
168.788
198.086
201.221
205.616
195.9
178.069
153.898
127.792
109.226
101.23
99.0515
97.9931
96.1696
93.3871
90.0079
86.4413
82.6337
78.2986
73.396
11.934
36.3695
101.155
139.527
149.532
162.426
167.095
162.446
156.291
152.488
169.395
228.931
225.355
212.541
202.096
181.634
161.351
142.662
127.184
117.502
113.315
111.564
109.72
106.758
102.785
98.3157
94.0816
90.2376
86.4497
80.1825
13.3668
38.0576
98.3029
130.708
145.744
160.812
166.289
160.579
154.106
158.396
227.817
250.752
212.306
195.485
176.084
157.954
146.716
136.797
128.856
124.402
122.852
121.9
119.78
115.969
110.869
105.238
99.9965
95.6823
92.7583
86.7189
13.6611
38.6829
91.7539
120.578
141.86
156.724
161.035
156.641
147.662
181.267
257.155
211.292
176.028
155.299
142.581
136.957
134.356
131.446
129.478
129.52
130.512
130.49
128.238
123.701
117.563
110.813
104.504
99.2833
96.4395
91.7365
12.8064
37.9222
84.278
111.055
138.576
154.364
155.42
151.084
148.361
221.149
259.332
254.203
174.242
129.153
126.928
128.3
129.349
129.389
130.659
133.673
136.706
137.44
134.978
129.687
122.664
115.022
107.797
101.686
97.9742
94.1287
11.4515
36.5583
78.8049
103.054
134.195
153.244
153.123
153.723
180.801
280.163
376.116
729.63
313.865
148.113
124.887
126.215
127.596
128.598
131.908
137.297
142
143.137
140.284
134.223
126.382
118.002
110.094
103.223
98.4697
94.2639
10.3662
34.4727
73.7928
94.906
127.578
153.148
153.806
170.822
228.367
386.304
634.231
1449.6
286.395
181.234
128.451
126.302
126.371
128.073
133.736
141.495
147
147.883
144.252
137.316
128.741
119.842
111.483
104.091
98.5531
93.67
9.83602
28.9691
59.8783
83.3206
120.325
158.929
153.353
179.815
238.575
363.312
939.89
1506.45
235.89
187.507
133.027
127.523
126.234
129.187
136.866
146.162
151.553
151.036
146.08
138.412
129.52
120.428
111.893
104.246
98.241
92.8056
8.23263
22.17
42.1192
70.9259
118.532
175.173
154.204
171.047
219.516
304.933
559.151
1411.31
138.968
138.259
135.72
129.185
128.038
132.439
141.558
149.896
153.131
151.156
145.429
137.496
128.565
119.535
111.09
103.445
97.2177
91.4646
5.74897
15.5681
32.6461
63.8583
122.584
188.7
170.785
164.703
209.351
309.838
624.146
146.167
139.091
140.202
136.254
131.816
132.04
137.328
145.203
150.963
152.199
149.15
143.022
135.075
126.343
117.575
109.32
101.749
95.4281
89.5397
3.85227
10.5979
26.5734
61.7075
145.952
185.031
183.785
197.619
247.038
324.903
352.68
146.101
144.118
142.129
138.102
135.644
136.942
141.629
147.108
150.289
149.838
145.989
139.662
131.822
123.328
114.816
106.766
99.3052
92.9363
87.0071
2.77291
7.92658
22.3194
64.2624
161.165
178.876
185.018
205.18
230.953
226.079
162.289
144.242
146.45
144.034
141.558
140.69
142.356
145.642
148.583
149.43
147.467
142.879
136.312
128.512
120.139
111.748
103.776
96.336
89.9096
83.9766
2.23144
5.5736
19.3215
67.473
175.486
183.84
181.491
180.573
176.574
159.273
145.162
147.699
148.063
146.922
146.212
146.698
148.493
150.489
151.339
150.201
146.774
141.255
134.132
125.995
117.396
108.814
100.708
93.1594
86.6368
80.6946
2.01425
4.1121
15.1992
56.9965
177.284
207.168
200.994
190.064
179.377
157.94
146.297
151.385
148.885
150.118
151.46
153.326
155.546
156.991
156.581
153.862
148.861
141.93
133.59
124.437
115.059
105.929
97.507
89.8065
83.2883
77.4035
1.9228
3.77416
12.909
41.3063
135.835
208.138
235.757
225.668
194.217
165.787
149.312
152.099
149.378
152.98
156.37
159.472
162.104
163.359
162.113
157.893
150.963
141.963
131.675
120.98
110.603
101.022
92.6143
85.1659
79.1685
73.723
1.92677
4.20167
13.0348
31.7834
93.72
157.285
197.862
215.423
204.64
182.079
153.417
152.152
149.343
154.94
159.866
162.438
162.928
161.443
157.536
150.957
141.927
131.309
119.755
108.691
98.7071
90.0505
82.8444
76.6129
71.924
67.4526
1.96602
4.55514
13.4069
28.6084
72.3441
116.757
135.977
143.129
167.728
185.665
159.396
152.904
148.94
155.196
159.584
157.692
150.679
141.573
131.743
121.696
111.649
101.968
93.0036
84.9812
78.0335
72.1122
67.1135
62.774
59.414
56.1242
7.72143
44.1226
106.008
191.003
200.061
187.809
171.43
159.484
154.21
149.006
134.299
114.692
110.016
125.971
151.307
139.694
140.711
137.954
119.443
89.4978
67.3376
61.6049
62.0014
62.3306
61.7783
60.7648
59.6613
58.6143
57.6083
56.7328
7.93119
39.472
95.0756
160.104
166.609
166.253
161.606
154.781
151.502
147.778
133.932
123.718
124.564
136.425
169.007
147.308
139.328
134.981
116.253
91.6559
78.9345
78.7015
80.472
80.7759
79.7091
77.8692
75.7939
73.8784
72.4894
71.9564
9.19982
37.9746
96.6295
149.981
158.431
163.308
160.666
153.438
149.574
145.418
136.073
137.666
144.422
163.782
191.542
162.703
146.304
133.899
114.524
98.2409
93.0675
93.8703
94.6862
93.9023
91.8043
88.9447
85.8249
82.6601
79.7647
77.2187
11.5938
38.8646
101.631
143.724
155.218
167.94
167.995
155.277
148.758
144.967
144.095
162.931
186.406
197.83
200.514
172.778
149.874
133.232
118.782
110.287
107.983
108.086
107.52
105.365
101.927
97.8523
93.8384
90.1131
86.9085
82.9268
14.1437
40.534
102.069
135.24
150.043
169.495
176.773
160.589
148.692
147.09
165.607
212.585
211.444
205.399
195.271
170.264
148.775
134.583
125.465
121.212
120.6
120.628
119.271
115.989
111.222
105.754
100.548
96.0919
93.1481
89.0757
15.4778
42.2384
97.4772
125.135
143.842
165.66
177.85
168.496
149.569
154.189
214.271
226.426
201.715
192.189
179.31
160.166
145.34
136.126
131.156
129.909
130.935
131.431
129.65
125.419
119.394
112.589
106.087
100.556
97.1943
93.7422
15.347
43.5909
90.7075
115.064
139.211
161.308
172.49
169.38
149.102
177.828
231.525
197.949
176.945
167.456
158.472
148.013
140.054
135.992
134.896
136.545
139.444
140.599
138.431
133.307
126.205
118.324
110.764
104.175
99.7451
96.3395
14.2158
43.8927
84.0488
106.56
136.464
159.001
166.925
165.635
151.976
207.096
230.331
210.304
166.881
145.469
141.566
138.966
136.882
135.958
137.69
142.017
146.841
148.415
145.68
139.656
131.625
122.885
114.481
107.074
101.699
97.6518
12.819
42.2225
78.2272
99.8506
134.302
156.076
161.573
165.076
172.202
240.767
286.523
323.408
178.704
137.454
130.213
131.757
133.632
135.542
140.425
147.715
153.523
154.768
151.225
144.316
135.514
126.12
117.192
109.245
103.202
98.4639
11.544
35.8
69.1722
93.1367
131.539
150.839
153.53
169.604
193.479
268.626
369.08
456.303
166.307
139.001
127.938
126.287
129.547
135.149
143.578
153.302
159.466
159.878
154.967
147.041
137.581
127.875
118.71
110.525
104.093
98.8619
10.0482
27.9556
55.2607
83.8206
128.724
149.092
143.1
165.404
195.248
251.682
406.428
673.775
152.144
137.883
129.812
124.498
126.781
134.88
146.697
158.761
163.925
162.04
155.774
147.149
137.521
127.867
118.829
110.702
104.106
98.6261
7.87903
20.8214
42.7098
74.4857
131.498
155.958
136.634
152.439
181.629
223.917
584.169
420.798
134.759
134.626
129.697
124.627
126.851
136.183
150.631
161.305
164.119
160.951
154.128
145.405
135.952
126.54
117.761
109.818
103.254
97.6651
5.62596
15.3463
33.804
67.8539
139.534
159.436
146.987
155.887
184.211
247.662
485.541
145.214
135.822
132.983
128.683
126.125
129.963
140.406
152.673
160.075
161.14
157.396
150.61
142.207
133.156
124.162
115.736
108.033
101.547
95.9062
3.94563
11.0145
27.1064
65.1432
150.187
162.155
168.518
189.943
223.273
271.458
281.079
146.601
137.789
132.721
129.535
129.549
134.483
143.463
152.124
156.712
156.544
152.563
146.038
138.052
129.478
120.94
112.875
105.413
99.0232
93.3586
2.82976
7.72735
22.576
65.5306
158.289
162.333
168.773
185.539
202.907
202.259
161.717
145.453
137.913
133.236
132.218
134.132
139.087
145.606
150.946
153.209
151.969
147.749
141.417
133.814
125.644
117.423
109.598
102.28
95.92
90.2142
2.25577
5.38334
18.9661
67.175
172.217
171.074
168.183
169.427
166.707
158.134
152.969
146.37
137.229
134.706
136.127
139.594
144.208
148.674
151.503
151.864
149.528
144.816
138.328
130.708
122.552
114.344
106.489
99.1243
92.6835
86.8724
2.01703
4.11666
15.1669
56.1373
170.095
196.306
190.624
181.716
168.212
155.688
155.016
145.477
136.299
136.17
140.435
145.865
150.988
154.732
156.227
155.131
151.476
145.631
138.161
129.69
120.824
112.072
103.868
96.2698
89.714
83.794
1.95315
4.22214
14.0538
41.3035
130.806
193.848
221.737
209.357
179.962
161.606
157.793
143.999
134.565
136.807
144.538
152.748
159.408
163.515
164.345
161.748
156.068
147.995
138.39
128.13
117.982
108.486
100.035
92.4644
86.2222
80.52
2.00629
4.96615
14.9849
33.9026
95.0849
149.788
178.626
188.537
185.754
173.735
162.81
143.704
132.322
136.324
147.537
157.814
164.229
166.573
164.905
159.374
150.654
139.923
128.422
117.176
106.901
97.9318
90.4269
83.9057
78.8858
74.0729
2.09811
5.53834
16.374
33.3345
81.6868
121.699
132.001
134.499
157.259
175.746
167.847
143.896
129.849
134.125
147
155.006
154.673
149.27
141.196
131.66
121.383
111.039
101.234
92.3062
84.5033
78.0077
72.6689
68.0627
64.5386
61.277
8.78194
45.8031
105.235
180.287
191.007
183.274
170.994
161.241
154.674
147.941
137.73
126.271
124.157
139.705
157.458
125.204
114.137
109.484
95.0495
78.1023
69.7739
69.5112
70.3626
70.0876
68.8808
67.2722
65.6682
64.2581
63.0997
62.187
9.1295
42.5372
99.3347
158.064
170.252
172.65
166.009
157.06
152.018
146.404
136.491
132.265
137.639
151.617
185.158
154.047
122.303
114.246
101.411
89.6373
86.8951
89.2215
90.6743
90.16
88.2841
85.758
83.1184
80.6724
78.9687
78.403
10.5875
41.605
100.178
149.452
162.261
171.571
169.684
156.988
150.408
144.803
137.934
143.259
153.184
171.35
207.69
182.486
140.399
122.684
109.581
102.04
102.295
104.625
105.414
104.018
101.082
97.4181
93.6886
90.0314
86.859
83.9334
12.973
42.3626
102.633
142.458
155.433
171.242