/*--------------------------------*- C++ -*----------------------------------*\
| =========                 |                                                 |
| \\      /  F ield         | OpenFOAM: The Open Source CFD Toolbox           |
|  \\    /   O peration     | Version:  2512                                  |
|   \\  /    A nd           | Website:  www.openfoam.com                      |
|    \\/     M anipulation  |                                                 |
\*---------------------------------------------------------------------------*/
FoamFile
{
    version     2.0;
    format      ascii;
    arch        "LSB;label=32;scalar=64";
    class       volScalarField;
    location    "40";
    object      p;
}
// * * * * * * * * * * * * * * * * * * * * * * * * * * * * * * * * * * * * * //

dimensions      [0 2 -2 0 0 0 0];

internalField   nonuniform List<scalar> 
84826
(
-262.625
-246.643
-229.196
-161.635
-60.4545
-78.4414
-176.91
-207.932
-203.109
-285.198
-415.426
-471.53
-451.931
-431.424
-515.778
-737.949
-886.547
-815.606
-590.682
-373.387
-225.709
-146.95
-199.436
-320.334
-364.549
-336.475
-281.521
-219.323
-135.118
-23.7165
-278.639
-277.965
-296.183
-329.736
-340.401
-376.171
-433.657
-422.35
-361.121
-371.177
-450.729
-491.352
-471.881
-446.028
-523.895
-750.206
-886.505
-799.643
-576.339
-372.445
-229.551
-172.085
-253.212
-363.485
-386.942
-347.399
-286.236
-222.535
-141.087
-29.1803
-304.899
-315.585
-359.017
-427.407
-454.521
-475.13
-567.235
-646.304
-601.928
-534.302
-519.611
-517.362
-507.594
-505.826
-593.849
-787.653
-866.392
-752.189
-546.704
-367.553
-249.672
-234.547
-331.258
-406.953
-409.53
-360.712
-293.982
-227.889
-147.241
-33.7464
-330.548
-338.423
-394.039
-409.363
-357.205
-343.266
-486.006
-747.827
-852.758
-746.01
-604.577
-544.844
-567.677
-625.83
-698.639
-797.118
-806.907
-689.975
-517.283
-367.373
-285.441
-314.381
-396.261
-440.247
-427.22
-372.216
-301.892
-233.798
-153.087
-37.922
-346.821
-344.721
-376.982
-313.305
-239.626
-268.261
-426.256
-771.037
-1030.44
-916.662
-666.467
-568.813
-627.942
-689.031
-718.761
-752.353
-739.357
-645.493
-502.056
-383.244
-342.935
-390.14
-447.851
-467.402
-440.19
-379.606
-307.276
-237.889
-156.651
-40.2781
-351.053
-337.368
-329.849
-207.096
-239.243
-362.839
-549.482
-913.485
-1183.61
-1026.06
-701.217
-573.7
-651.65
-678.74
-657.138
-684.028
-688.003
-620.217
-503.915
-417.907
-412.017
-459.342
-494.753
-490.582
-447.633
-380.94
-307.695
-238.212
-156.755
-41.0069
-339.407
-320.577
-306.922
-182.313
-351.265
-545.332
-779.36
-1208.97
-1415.3
-1128.79
-769.525
-556.517
-634.865
-661.123
-574.727
-601.953
-650.168
-615.574
-541.589
-496.434
-512.595
-543.555
-545.373
-509.886
-448.311
-374.798
-301.141
-232.434
-151.617
-39.001
-313.122
-302.45
-308.576
-253.191
-445.418
-719.225
-1028.75
-1512.67
-1665.34
-1202.82
-907.857
-515.482
-550.565
-703.291
-540.042
-545.404
-653.365
-677.652
-664.528
-654.62
-656.914
-641.239
-592.936
-520.588
-439.149
-358.986
-285.818
-219.18
-140.692
-34.5237
-290.19
-281.94
-278.658
-301.701
-434.283
-802.419
-1221.01
-1695.68
-1732.82
-1231.03
-1357.38
-686.879
-335.425
-864.146
-577.967
-607.467
-757.926
-842.202
-869.95
-854.363
-805.601
-724.698
-622.338
-515.19
-416.336
-331.082
-259.766
-197.155
-123.646
-27.731
-266.056
-256.586
-205.111
-259.186
-323.785
-716.557
-1138.69
-1597.15
-1661.43
-1375.07
-3407.08
-2397.59
-634.853
-1187.62
-720.56
-788.993
-965.023
-1064.77
-1079.47
-1017.61
-903.886
-762.761
-617.913
-486.698
-377.472
-290.605
-222.818
-166.187
-100.638
-18.8866
-222.665
-223.877
-151.573
-205.824
-207.808
-537.346
-773.274
-1185.86
-1409.36
-1483.37
-2181.96
-5894.18
-1233.33
-932.793
-1025.25
-1192.72
-1256.9
-1216.3
-1091.75
-921.357
-739.76
-572.643
-433.001
-323.365
-240.002
-177.716
-128.28
-72.7231
-8.00891
-182.426
-174.227
-155.407
-200.76
-191.301
-449.09
-467.999
-725.873
-974.257
-802.72
-861.218
-1731.11
-1349.92
-1616.59
-1134.28
-1257.56
-1375.88
-1364.34
-1249.45
-1066.74
-858.868
-660.228
-491.268
-358.179
-257.864
-183.688
-129.629
-88.3331
-43.3901
3.65795
-157.43
-133.537
-172.542
-186.193
-246.921
-430.457
-294.394
-396.767
-675.801
-611.99
-341.384
-1919.61
-1599.12
-1520.81
-1354.52
-1454.05
-1475.89
-1372.5
-1189.57
-965.186
-739.951
-543.237
-387.352
-271.499
-187.771
-127.343
-83.9929
-51.6062
-17.0696
13.8478
-135.231
-124.886
-143.616
-145.74
-285.93
-405.393
-150.759
-130.467
-743.057
-1419.55
-1672.33
-1607.27
-1500.46
-1553.76
-1560.82
-1580.63
-1487.56
-1305.7
-1072.02
-824.488
-598.372
-415.16
-279.447
-185.066
-120.707
-75.9397
-44.4251
-21.1637
3.63398
21.3771
-118.133
-119.669
-92.9609
-117.045
-285.773
-384.147
-105.123
10.0466
-862.306
-1631.74
-1244.98
-1616.04
-1556.89
-1672.34
-1681.22
-1608.26
-1434.56
-1198.34
-935.169
-680.891
-464.64
-299.825
-185.193
-110.694
-63.5405
-33.0923
-12.9576
1.38493
17.3593
25.5075
-108.36
-101.979
-67.0409
-108.463
-260.94
-363.91
-155.145
-10.7038
-823.939
-1443.57
-1196.26
-1491.77
-1578.46
-1726.46
-1704.5
-1566.8
-1349.09
-1085.81
-813.174
-564.082
-361.934
-214.451
-116.458
-56.2846
-21.1341
-0.834219
10.4971
17.0488
24.9104
26.5008
-99.6718
-87.1787
-64.7301
-106.004
-215.272
-325.539
-230.067
-122.794
-724.162
-1172.83
-1148.89
-1297.74
-1570.63
-1715.46
-1659.95
-1493.69
-1261.5
-994.903
-727.948
-490.293
-301.295
-165.775
-77.3283
-24.3445
5.1818
20.5078
26.9324
28.5721
30.8085
28.7616
-92.6376
-83.5781
-72.6869
-101.396
-158.702
-256.484
-300.833
-266.093
-631.704
-928.514
-1019.24
-1213.09
-1549.89
-1665.7
-1587.52
-1417.05
-1191.41
-936.874
-683.592
-458.408
-278.765
-148.982
-63.3342
-11.3854
17.6959
32.2441
37.1623
36.728
36.3589
32.1053
-89.3908
-84.9822
-77.3613
-92.7469
-117.783
-211.688
-351.405
-394.472
-567.132
-756.78
-852.546
-1145.8
-1510.74
-1605.6
-1519.73
-1356.65
-1145.84
-907.772
-668.685
-453.452
-279.045
-150.606
-63.8582
-9.80055
21.2728
37.0325
42.2701
41.6136
40.7856
34.8816
-87.9791
-85.1984
-77.48
-87.472
-103.04
-204.104
-373.194
-462.033
-557.326
-650.122
-753.553
-1103.86
-1478.36
-1565.57
-1480.17
-1324.9
-1125.14
-897.936
-667.298
-457.209
-284.76
-155.94
-67.5404
-11.4803
21.2887
38.119
43.8482
43.44
42.96
36.1232
-264.822
-246.143
-235.038
-249.065
-168.998
-199.24
-344.49
-406.857
-376.447
-414.461
-515.654
-546.548
-498.574
-443.836
-508.525
-749.932
-925.965
-862.639
-617.982
-365.912
-224.435
-207.274
-301.291
-393.441
-398.8
-350.392
-285.331
-218.927
-137.144
-26.8206
-280.866
-271.687
-323.827
-449.534
-470.978
-504.007
-579.335
-588.873
-517.619
-495.826
-549.638
-565.41
-513.629
-451.288
-515.175
-773.944
-929.767
-841.199
-594.785
-366.123
-247.776
-264.755
-366.43
-428.592
-416.874
-361.789
-292.986
-224.945
-143.922
-33.6718
-305.34
-316.071
-431.195
-549.774
-574.393
-635.674
-750.529
-796.185
-713.023
-617.596
-590.984
-574.333
-529.799
-505.97
-615.353
-852.427
-923.866
-780.296
-547.865
-364.467
-289.841
-338.684
-428.77
-463.904
-437.693
-374.481
-300.572
-230.336
-149.914
-38.0252
-332.258
-360.022
-485.405
-499.177
-473.686
-541.9
-733.617
-934.012
-941.136
-782.564
-628.228
-560.412
-570.924
-630.975
-749.241
-875.268
-858.57
-706.229
-516.676
-381
-346.836
-411.291
-481.004
-497.159
-459.326
-388.316
-309.335
-236.664
-155.992
-42.3251
-352.695
-375.6
-461.792
-354.368
-359.463
-485.199
-685.202
-1002.05
-1139.45
-914.114
-623.511
-541.28
-639.685
-722.38
-774.705
-814.323
-775.905
-659.478
-517.162
-422.33
-418.788
-480.389
-527.397
-525.36
-476.359
-399.16
-316.552
-241.898
-160.479
-45.693
-362.396
-359.466
-410.17
-242.912
-385.625
-612.369
-824.861
-1158.33
-1319.94
-984.859
-594.403
-529.018
-665.053
-707.185
-697.008
-719.261
-709.3
-636.063
-539.247
-485.542
-506.072
-555.586
-575.722
-549.604
-486.679
-403.761
-318.905
-243.141
-161.345
-47.3436
-355.475
-338.142
-378.343
-235.104
-427.623
-653.093
-933.164
-1400.7
-1540.27
-1061.39
-640.278
-506.394
-622.773
-660.058
-614.665
-622.616
-664.715
-651.471
-617.873
-610.978
-637.507
-652.626
-628.238
-568.692
-488.458
-399.807
-313.973
-238.126
-156.597
-45.9495
-332.673
-330.085
-357.437
-286.288
-414.772
-647.33
-1025.2
-1601.64
-1736.89
-1167.51
-859.658
-516.884
-633.138
-741.603
-614.727
-601.831
-709.699
-771.41
-804.499
-816.198
-804.969
-755.736
-673.542
-576.007
-477.459
-384.115
-299.392
-225.333
-145.61
-41.5014
-302.967
-324.676
-310.366
-293.754
-342.825
-679.651
-1173.54
-1717.21
-1793.21
-1270.58
-894.195
-564.719
-651.501
-865.527
-702.959
-748.309
-902.359
-1003.48
-1048.83
-1027.79
-949.917
-830.505
-694.479
-563.754
-449.966
-354.078
-272.955
-203.37
-128.172
-34.163
-264.644
-302.382
-184.244
-235.623
-231.094
-639.67
-1139.04
-1640.69
-1753.66
-1456.67
-2372.73
-3948.74
-852.034
-1562.57
-866.899
-992.813
-1154.79
-1241.73
-1248.73
-1167.51
-1023.3
-849.432
-677.295
-526.817
-405.302
-310.097
-234.528
-171.869
-104.475
-24.2783
-229.986
-251.908
-92.2628
-198.117
-173.63
-531.766
-881.26
-1327.06
-1540.33
-1422.22
-2159.78
-871.946
-1118.21
-1261.24
-1380.26
-1408.96
-1351.19
-1207.61
-1013.1
-807.055
-619.572
-465.403
-346.32
-256.581
-188.063
-133.263
-75.7663
-12.0369
-212.103
-169.973
-139.287
-238.332
-239.716
-494.63
-650.998
-985.596
-1182.51
-892.84
-1549.82
-2417.41
-1247.49
-1039.73
-1399.94
-1491.67
-1529.21
-1484.2
-1358.73
-1162.21
-935.111
-715.894
-529.675
-385.167
-277.751
-199.006
-140.011
-93.6148
-46.4896
0.381846
-188.449
-109.21
-198.769
-252.815
-326.06
-490.661
-528.533
-723.244
-1002.64
-1045.11
-1061.14
-1529.91
-1532.58
-1540.95
-1629.98
-1645.25
-1597.56
-1480.35
-1290.88
-1052.73
-808.509
-593.116
-421.831
-295.548
-205.404
-141.695
-94.9275
-58.3262
-21.8446
10.0002
-146.953
-115.686
-175.514
-181.469
-313.656
-436.022
-392.795
-521.03
-1138.22
-1754.71
-2048.41
-1725.35
-1707.04
-1819.72
-1778.03
-1719.66
-1596.75
-1410.46
-1169.77
-907.632
-662.352
-461.214
-311.178
-206.895
-136.872
-89.5277
-55.6657
-29.5477
-4.01181
15.5573
-118.356
-131.596
-100.645
-96.3195
-270.212
-402.169
-308.031
-464.525
-1512.17
-2203.81
-1822.18
-1818.76
-1829.65
-1913.7
-1839.75
-1721.12
-1539.09
-1299.48
-1027.18
-757.771
-523.753
-342.059
-214.285
-130.874
-78.7391
-46.1913
-24.3011
-7.97475
7.41089
17.9169
-109.583
-114.39
-48.5899
-69.2821
-254.823
-397.834
-323.708
-493.985
-1622.02
-2018.51
-1561.75
-1729.22
-1875.05
-1923.16
-1824.5
-1668.05
-1446.32
-1178.63
-895.338
-631.211
-413.025
-251.287
-142.235
-74.8839
-35.9323
-13.9765
-1.22589
7.10391
14.2519
18.6223
-102.014
-88.2863
-46.5231
-78.6529
-214.067
-356.92
-340.251
-483.47
-1329.6
-1491.06
-1373.84
-1605.36
-1858.33
-1870.86
-1757.1
-1579.91
-1344.87
-1073.14
-795.702
-544.625
-342.217
-195.569
-98.9994
-41.0711
-9.30268
6.89485
14.4048
17.5893
19.0367
19.2039
-93.7622
-80.7954
-66.8036
-79.9172
-139.48
-279.986
-346.651
-427.856
-968.239
-1117.24
-1208.58
-1559.06
-1799.97
-1784.49
-1661.81
-1482.37
-1254.76
-996.27
-734.751
-499.317
-309.815
-172.252
-81.3626
-26.5295
3.55227
18.2732
23.901
24.6754
23.1933
20.7639
-90.055
-84.1928
-75.914
-67.1681
-79.2572
-216.631
-374.314
-426.485
-699.079
-872.871
-1051.27
-1492.75
-1725.65
-1695.14
-1570.44
-1399.6
-1188.61
-949.16
-705.223
-483.503
-302.79
-169.486
-79.689
-24.1205
7.35142
23.0753
28.8606
29.0781
26.9046
23.0062
-89.1168
-85.8482
-74.8094
-57.547
-53.28
-183.869
-385.312
-475.275
-606.109
-722.197
-956.955
-1439.06
-1671.07
-1636.47
-1513.97
-1352.2
-1154.27
-928.13
-695.372
-481.411
-304.869
-172.812
-82.4273
-25.4974
7.50702
24.4593
30.8764
31.2125
29.3113
24.855
-254.703
-241.862
-257.934
-135.039
118.236
97.2842
-151.163
-346.321
-381.369
-428.192
-531.274
-559.682
-506.587
-448.828
-515.483
-811.34
-1027.55
-957.46
-676.142
-411.015
-319.1
-374.862
-442.097
-465.638
-433.443
-367.657
-291.977
-218.244
-134.653
-25.2482
-271.142
-275.205
-362.015
-342.865
-216.272
-235.005
-376.386
-485.445
-493.556
-505.619
-571.793
-580.983
-519.874
-468.959
-570.22
-890.794
-1049.12
-938.494
-656.231
-416.945
-362.617
-426.804
-482.276
-489.794
-449.455
-379.528
-301.077
-225.831
-142.106
-32.7698
-297.735
-328.46
-473.222
-491.451
-439.376
-485.115
-600.646
-671.215
-637.972
-591.632
-588.456
-568.536
-514.006
-512.867
-685.092
-964.793
-1025.47
-857.837
-602.614
-438.984
-430.349
-490.158
-529.273
-519.802
-468.453
-392.16
-309.741
-232.717
-149.645
-38.5612
-327.576
-384.865
-548.221
-500.406
-483.403
-601.602
-756.742
-871.092
-826.849
-684.587
-561.988
-512.014
-534.988
-603.575
-767.474
-935.422
-923.212
-764.796
-583.958
-498.602
-513.796
-562.85
-582.001
-554.542
-490.227
-406.532
-320.06
-240.766
-157.296
-44.6077
-351.047
-413.826
-554.476
-408.078
-487.549
-692.419
-886.121
-1077.79
-1052.97
-770.993
-491.676
-451.639
-590.875
-690.047
-773.354
-840.964
-813.514
-710.738
-618.756
-591.729
-616.724
-647.416
-640.283
-590.145
-510.871
-418.891
-328.612
-247.748
-163.34
-50.0237
-362.963
-409.162
-514.784
-350.198
-493.919
-697.681
-962.045
-1294.98
-1299.75
-828.397
-429.333
-427.569
-627.973
-712.514
-728.03
-738.897
-730.538
-707.866
-699.066
-716.094
-743.828
-745.951
-703.84
-625.404
-528.715
-427.598
-333.076
-250.521
-165.175
-53.0201
-361.517
-390.878
-468.58
-347.464
-429.974
-530.546
-895.841
-1460.3
-1508.74
-909.666
-483.233
-448.456
-654.896
-722.089
-687.469
-678.51
-726.675
-788.236
-848.982
-891.534
-897.75
-853.288
-764.28
-653.286
-538.314
-429.309
-331.45
-247.16
-160.95
-52.2018
-346.886
-370.743
-403.641
-343.362
-335.295
-417.783
-892.069
-1580.99
-1640.49
-1038.77
-696.707
-505.417
-672.585
-780.814
-740.954
-747.921
-852.583
-972.06
-1067.37
-1097.45
-1053.75
-946.308
-806.899
-663.542
-532.683
-418.911
-320.602
-236.203
-150.293
-47.6393
-314.355
-346.384
-296.041
-299.52
-237.911
-447.537
-1039.85
-1638.12
-1667.78
-1192.75
-1027.17
-865.105
-596.23
-904.581
-881.854
-934.934
-1073.71
-1209.9
-1295.12
-1277.74
-1167.31
-999.206
-816.758
-648.426
-507.23
-392.783
-297.799
-216.463
-133.601
-40.0966
-276.773
-296.506
-134.13
-226.707
-146.393
-462.78
-1057.18
-1537.93
-1613.74
-1403.27
-1762.72
-4138.15
-1363.14
-1737.8
-1073.57
-1175.5
-1315.99
-1432.15
-1466.71
-1383.18
-1208.79
-994.158
-784.43
-604.133
-460.823
-350.285
-262.174
-187.608
-111.732
-30.5408
-251.343
-213.508
-22.3831
-195.432
-133.339
-407.323
-895.704
-1298.42
-1451.45
-1495.15
-1784.94
24.2627
-1305.52
-1423.26
-1528.82
-1586.41
-1549.63
-1399.33
-1174.86
-931.748
-712.39
-533.568
-396.925
-295.236
-216.731
-151.659
-86.2824
-19.7328
-225.506
-124.748
-50.9936
-225.037
-222.473
-391.788
-746.256
-1063.33
-1237.68
-1122.6
-701.777
1505.4
-1067.94
-1101.16
-1574.85
-1639.49
-1677.9
-1658.54
-1544.68
-1335.32
-1078.41
-824.778
-610.684
-444.562
-322.094
-233.788
-167.313
-113.441
-60.9133
-9.98479
-180.552
-72.203
-123.501
-237.447
-291.26
-417.238
-685.781
-897.039
-1048.32
-922.778
-745.047
-780.082
-1520
-1674.46
-1794.49
-1791.97
-1753.93
-1652.09
-1464.28
-1208.18
-935.047
-688.264
-492.102
-346.941
-243.704
-171.913
-119.293
-77.5067
-38.4105
-2.20241
-132.744
-83.4506
-137.111
-165.186
-258.226
-399.041
-604.247
-796.515
-1024.26
-1088.77
-1274.01
-1623.5
-1906.81
-1993.14
-1935.84
-1870.6
-1756.5
-1577.16
-1330.7
-1047.36
-773.66
-544.763
-371.408
-250.172
-169.132
-115.145
-76.7634
-46.8791
-20.2725
3.52772
-110.635
-118.102
-90.1485
-56.2234
-213.569
-377.669
-551.089
-874.223
-1383.96
-1639.15
-1705.28
-1942.34
-2056.74
-2082.48
-1995.98
-1873.98
-1695.42
-1456.44
-1173.04
-881.107
-619.932
-413.247
-264.961
-166.462
-105.052
-67.393
-42.2311
-23.1804
-7.35251
6.87432
-107.032
-109.567
-36.4166
-8.42043
-180.588
-373.407
-574.653
-1072.02
-1737.46
-1935
-1855.32
-2034.67
-2123.43
-2093.3
-1975.34
-1811.61
-1590.65
-1318.72
-1021.36
-735.132
-492.555
-309.097
-183.113
-103.673
-57.3381
-31.5828
-16.6167
-6.28587
1.02974
8.51621
-101.543
-83.4147
-32.4979
-21.9284
-126.939
-329.912
-545.864
-1084.2
-1657.61
-1744.32
-1796.47
-2032.13
-2113.88
-2034.09
-1889.17
-1703
-1466.33
-1188.17
-896.484
-625.995
-403.587
-239.832
-130.521
-64.1197
-27.15
-8.46468
0.481185
5.15829
6.51
9.61083
-93.8832
-77.3475
-60.5399
-38.9406
-75.5331
-266.613
-470.595
-828.937
-1317.38
-1449.48
-1676.12
-2004.94
-2047.04
-1927.33
-1763.46
-1573.39
-1344.13
-1080.63
-808.068
-558.061
-354.084
-204.625
-105.229
-45.0884
-12.0659
3.95094
10.383
12.3695
10.4115
11.1142
-90.8298
-84.0031
-76.228
-32.2005
-22.571
-211.388
-449.742
-613.302
-933.101
-1163.83
-1548.88
-1939.83
-1957.45
-1809.56
-1636.67
-1455.22
-1245.66
-1005.41
-755.541
-524.821
-334.835
-193.966
-98.9198
-40.2702
-7.32999
8.92035
15.2169
16.495
13.4213
13.1659
-90.261
-87.3169
-78.9007
-23.8877
13.9415
-153.638
-435.083
-586.126
-756.858
-987.047
-1466.41
-1884.61
-1890.02
-1728.71
-1554.58
-1383.62
-1190.5
-967.915
-733.311
-514.122
-331.39
-194.056
-100.019
-41.0324
-7.16091
10.0758
17.0602
18.4842
15.3631
15.1059
-241.482
-241.225
-218.975
113.126
399.18
319.898
28.0689
-240.135
-342.476
-417.675
-529.7
-561.347
-524.873
-495.798
-580.783
-947.592
-1172.87
-1061.13
-756.609
-523.004
-493.177
-542.516
-558.113
-532.709
-470.996
-388.658
-302.545
-220.902
-132.972
-24.1417
-258.205
-281.536
-320.248
-114.265
67.2283
2.78465
-196.52
-382.041
-455.442
-500.229
-574.166
-580.117
-532.917
-518.563
-648.766
-1004.54
-1157.78
-1025.42
-735.472
-547.221
-542.572
-583.903
-588.352
-553.043
-485.174
-399.457
-311.331
-229.05
-141.284
-33.0076
-288.549
-337.156
-448.597
-339.378
-261.305
-328.972
-459.595
-575.822
-599.55
-587.397
-588.994
-564.845
-530.518
-541.161
-708.326
-987.569
-1074.01
-920.336
-698.535
-597.506
-615.277
-643.73
-633.34
-583.164
-504.352
-412.171
-320.187
-236.501
-149.511
-39.4251
-321.743
-394.837
-560.291
-475.695
-469.973
-592.034
-724.134
-807.908
-766.178
-647.394
-536.339
-494.96
-537.521
-596.914
-727.823
-905.552
-930.475
-818.567
-710.207
-689.515
-717.475
-728.721
-695.844
-624.638
-531.059
-430.22
-333.058
-246.368
-158.825
-48.063
-350.458
-437.501
-617.294
-540.839
-564.839
-734.431
-939.172
-1071.82
-978.17
-691.624
-430.649
-413.12
-570.858
-671.136
-737.447
-806.872
-811.985
-785.182
-788.786
-825.472
-853.849
-839.106
-773.737
-674.572
-562.1
-450.29
-347.113
-256.261
-166.172
-55.086
-369.334
-452.286
-617.524
-582.462
-560.165
-704.167
-1025.26
-1320.04
-1227.65
-727.83
-360.935
-386.318
-623.846
-727.043
-743.728
-748.259
-771.842
-836.772
-927.88
-1000.73
-1017.4
-965.234
-858.523
-727.057
-593.003
-469.114
-359.482
-264.04
-169.735
-58.8973
-375.11
-440.622
-568.798
-578.715
-451.521
-538.32
-989.873
-1484.09
-1421.05
-814.526
-423.813
-450.738
-732.812
-823.89
-787.955
-773.015
-840.886
-980.924
-1127.49
-1208.36
-1191.52
-1087.41
-933.346
-768.24
-613.968
-480.332
-365.851
-267
-168.573
-58.9391
-363.467
-404.619
-462.663
-505.428
-309.602
-407.102
-991.637
-1575.17
-1527.52
-948.71
-622.958
-578.525
-789.451
-909.591
-882.745
-893.987
-1009.77
-1196.46
-1363.2
-1419.05
-1345.29
-1179.58
-979.054
-784.176
-615.487
-476.567
-361.013
-261.884
-162.085
-55.7764
-334.624
-348.978
-299.021
-387.924
-210.183
-402.806
-1064.74
-1581.15
-1551.17
-1122.45
-1070.48
-1350.77
-950.418
-1061.34
-1043.88
-1085.49
-1239.8
-1442.3
-1588.68
-1584.8
-1440.56
-1217.82
-980.529
-767.544
-592.575
-454.098
-341.916
-246.481
-149.971
-50.1211
-300.401
-266.078
-123.344
-279.656
-179.271
-433.62
-1037.14
-1471.09
-1534.59
-1330.2
-1722.91
-3756.71
-1307.14
-1641.49
-1256.85
-1323.72
-1488.55
-1668.93
-1750.1
-1667.2
-1455.55
-1191.05
-934.574
-716.682
-544.387
-412.329
-307.898
-220.096
-132.264
-42.9015
-260.547
-173.289
-25.2133
-243.059
-215.59
-432.132
-913.627
-1273.91
-1428.83
-1469.1
-1895.67
-3147.73
-1190.8
-2204
-1499.83
-1576.7
-1712.91
-1826.88
-1822.25
-1661.81
-1398.04
-1109.17
-848.451
-636.309
-474.527
-354.367
-261.531
-184.616
-109.218
-33.9092
-208.963
-113.753
-46.781
-250.648
-273.416
-436.689
-827.285
-1096.22
-1252.6
-1298.74
-1559.99
1048.07
-1373.91
-1723.45
-1758.47
-1803.59
-1873.6
-1899.62
-1802.9
-1574.89
-1277.22
-981.227
-729.87
-534.648
-391.122
-287.259
-208.751
-144.877
-83.7588
-24.277
-155.833
-93.3785
-113.006
-219.038
-269.457
-441.917
-783.676
-988.216
-1048.73
-922.349
-579.301
-916.482
-1680.69
-1875.6
-1982.92
-1968.55
-1958.56
-1886.98
-1702.6
-1422.34
-1109.44
-822.664
-593.641
-423.486
-303.026
-218.446
-156.156
-106.32
-59.8568
-15.8503
-121.062
-95.1302
-130.218
-120.123
-213.162
-433.931
-775.07
-966.536
-967.066
-792.012
-912.565
-1695.7
-2095.02
-2190.95
-2125.96
-2058.78
-1965.15
-1800.63
-1546.38
-1235.05
-924.15
-658.907
-456.956
-314.734
-218.637
-154.084
-108.338
-72.5006
-39.8977
-9.28845
-108.98
-106.31
-86.846
-9.76314
-149.917
-443.841
-861.933
-1116.1
-1198.54
-1175.08
-1482.14
-2059.56
-2267.55
-2281.8
-2186.65
-2065.44
-1898.35
-1662.44
-1363.69
-1041.78
-745.738
-507.661
-334.848
-219.155
-145.206
-99.1238
-68.4241
-45.2394
-24.7223
-4.62173
-106.159
-95.8625
-36.3666
46.0303
-58.8132
-419.832
-942.939
-1329.03
-1543.28
-1658.54
-1942.66
-2285.78
-2355.93
-2289.29
-2156.51
-1992.81
-1776.63
-1499.93
-1183.02
-867.444
-593.692
-383.537
-237.646
-144.498
-88.8725
-56.9376
-38.0762
-24.9654
-14.0693
-1.40912
-100.239
-78.8514
-32.3076
36.5603
3.55303
-331.051
-863.015
-1363.28
-1639.79
-1801.79
-2127.1
-2376.84
-2351.41
-2213.79
-2047.98
-1859.85
-1623.64
-1336.54
-1024.69
-728.337
-480.498
-295.772
-171.354
-94.8267
-51.4935
-28.8671
-17.3531
-10.855
-6.91869
0.98311
-93.9241
-78.9648
-60.117
3.99198
7.79152
-271.573
-681.234
-1108.86
-1471.3
-1717.5
-2148.88
-2371.54
-2274.8
-2079.92
-1887.72
-1692.07
-1461.4
-1189.54
-900.645
-631.194
-408.966
-245.126
-135.644
-68.8771
-31.7628
-13.3397
-5.21831
-1.77598
-2.01736
3.22231
-91.455
-87.0171
-83.4193
-11.8439
22.5633
-219.751
-577.238
-823.781
-1132.14
-1521.6
-2080.15
-2303.79
-2165.75
-1929.36
-1719.3
-1529.52
-1320.49
-1076.83
-817.463
-574.579
-373.092
-223.347
-122.223
-59.7674
-24.575
-6.90921
0.593187
3.449
1.59854
5.71327
-90.7732
-90.6929
-95.3385
-20.0915
52.5565
-141.372
-524.366
-747.571
-948.028
-1377.7
-2009.32
-2237.34
-2080.29
-1821.97
-1604.83
-1425.76
-1237.22
-1016.91
-778.57
-552.352
-362.15
-218.773
-120.566
-58.9774
-23.6286
-5.37779
2.59085
5.82333
3.75068
7.90407
-234.775
-238.855
-170.311
212.952
403.083
266.976
26.754
-192.525
-304.424
-397.982
-512.824
-550.444
-536.643
-516.918
-589.896
-941.135
-1161.19
-1062.99
-809.432
-670.171
-672.364
-689.202
-662.946
-599.214
-510.233
-410.963
-313.998
-224.6
-131.441
-22.4263
-251.841
-281.88
-266.988
-10.1435
99.3841
-6.64663
-182.875
-345.682
-426.078
-483.509
-556.294
-570.052
-553.509
-542.634
-626.594
-927.141
-1117.25
-1010.3
-799.306
-707.375
-720.485
-728.455
-691.917
-619.154
-524.151
-421.544
-322.767
-232.985
-140.106
-32.0319
-285.065
-339.188
-415.129
-296.616
-255.907
-334.612
-453.237
-561.551
-588.503
-580.718
-581.461
-573.026
-583.775
-584.847
-638.701
-842.594
-981.39
-899.812
-791.177
-771.633
-798.431
-795.073
-742.299
-653.479
-546.493
-436.369
-333.17
-241.305
-148.182
-38.5545
-321.369
-401.838
-577.795
-552.452
-517.224
-602.224
-729.136
-809.678
-762.312
-646.234
-545.977
-530.747
-613.728
-651.917
-652.34
-753.31
-833.938
-827.692
-839.44
-887.442
-921.59
-899.355
-820.499
-707.252
-582.28
-460.902
-350.701
-254.327
-158.718
-48.4539
-359.406
-457.665
-699.623
-751
-655.617
-746.635
-947.559
-1072.92
-960.159
-679.621
-449.851
-458.907
-635.274
-710.818
-687.727
-714.641
-775.476
-853.619
-965.215
-1061.47
-1090.2
-1036.75
-921.157
-776.002
-627.796
-492.055
-372.893
-270.007
-168.815
-56.5692
-389.866
-479.284
-752.114
-867.593
-673.901
-759.301
-1081.47
-1314.94
-1172.62
-693.731
-376.895
-422.918
-679.552
-774.241
-755.992
-755.205
-825.856
-977.444
-1160.31
-1280.18
-1286.63
-1188.89
-1027.87
-846.746
-673.875
-523.397
-394.965
-285.49
-177.639
-62.5441
-402.755
-460.12
-710.892
-855.776
-577.136
-664.6
-1132.61
-1482.68
-1331.05
-750.832
-406.564
-457.115
-797.168
-904.26
-876.66
-867.96
-964.923
-1177.26
-1402.23
-1518.69
-1483.12
-1329.07
-1118.06
-901.389
-707.397
-545.487
-410.445
-296.373
-183.733
-66.3259
-390.415
-407.857
-574.005
-707.274
-425.859
-558.621
-1161.2
-1561.22
-1418.51
-863.741
-592.62
-541.512
-967.453
-1057.82
-1010.97
-1025.29
-1164.58
-1421.35
-1658.75
-1740.86
-1642.75
-1426.03
-1170.2
-925.73
-717.854
-549.848
-413
-297.914
-184.291
-67.5099
-358.12
-335.285
-379.218
-500.627
-325.778
-530.595
-1158.62
-1540.7
-1440.18
-1021.82
-1073.33
-617.776
-1021.69
-1162.69
-1165.5
-1217.73
-1406.55
-1682.1
-1890.09
-1902.4
-1729.24
-1457.23
-1169.2
-910.125
-697.919
-531.494
-398.331
-286.78
-176.545
-64.8647
-312.451
-252.683
-202.399
-348.877
-329.382
-560.95
-1080.41
-1419.15
-1425.56
-1231.87
-1811.62
-1672.86
-1084.02
-1353.14
-1368.81
-1453.85
-1669.75
-1920.63
-2050.57
-1972.34
-1728.53
-1416.36
-1112.93
-853.117
-647.908
-490.619
-366.34
-262.684
-160.486
-58.6192
-254.367
-181.957
-110.208
-300.179
-369.836
-581.982
-983.722
-1243.03
-1352.52
-1449.24
-2142.34
-3674.66
-1241.75
-1567.77
-1628.56
-1720.31
-1913.38
-2089.27
-2118.61
-1952.18
-1652.29
-1315.71
-1011.03
-762.46
-572.882
-430.335
-319.566
-227.873
-138.018
-50.1668
-197.352
-147.123
-108.405
-259.746
-349.47
-583.827
-943.761
-1146.7
-1242.83
-1418.41
-2298.71
-1990.95
-1533.83
-1830.42
-1914.91
-1969.62
-2092.02
-2168.25
-2091.67
-1845.15
-1505.39
-1163.33
-872.508
-646.856
-480.026
-357.339
-263.541
-186.647
-112.009
-40.543
-154.11
-136.753
-135.92
-169.383
-268.355
-539.342
-895.543
-1076.64
-1052.65
-1007.29
-1296.16
-1650.01
-2078.46
-2193.35
-2153
-2154.37
-2188.92
-2155
-1974.71
-1664.82
-1307.7
-979.058
-715.08
-519.06
-379.27
-279.767
-205.066
-144.569
-86.2127
-31.2071
-127.146
-123.724
-120.991
-60.23
-186.101
-517.09
-876.36
-997.532
-916.584
-863.983
-1227.99
-1910.21
-2282.79
-2372.65
-2310.64
-2257.76
-2199.13
-2056.15
-1791.93
-1445.98
-1092.91
-789.885
-558.477
-394.301
-282.053
-205.505
-149.919
-105.869
-63.3582
-23.1213
-113.737
-106.474
-72.3432
33.8912
-93.1649
-543.288
-984.956
-1087.49
-1045.94
-1114.94
-1596.75
-2210.11
-2453.6
-2464.29
-2371.68
-2265.87
-2122.8
-1894.56
-1576.88
-1219.73
-885.41
-614.359
-416.847
-283.185
-196.438
-140.944
-102.604
-73.2592
-44.8236
-16.5581
-106.501
-88.9795
-35.665
81.191
35.7656
-511.317
-1081.79
-1253.68
-1316.36
-1532.3
-2029.81
-2445.72
-2524.93
-2453.69
-2328.33
-2181.34
-1980.83
-1701.48
-1360.75
-1011.49
-704.405
-466.861
-300.929
-193.849
-128.607
-89.9452
-65.6631
-48.0403
-31.0792
-11.4318
-99.6206
-80.209
-38.0682
69.2884
103.786
-388.142
-1018.12
-1316.65
-1481.64
-1799.97
-2290
-2544.92
-2498.6
-2353.73
-2198.18
-2026.36
-1798.89
-1502.21
-1164.86
-837.92
-562.511
-356.708
-217.606
-131.317
-81.5874
-54.6
-39.6866
-29.9801
-21.4809
-7.32737
-94.4862
-84.3037
-66.2176
20.2555
66.6647
-292.575
-821.868
-1159.3
-1445.04
-1854.66
-2363.81
-2534.75
-2401.43
-2196.65
-2012.26
-1827.43
-1599.17
-1315.22
-1003.66
-709.724
-466.761
-287.917
-168.635
-95.7865
-54.9281
-33.9512
-23.7122
-17.9944
-14.8149
-3.69042
-91.5621
-90.899
-97.2876
-26.4432
40.2642
-226.156
-665.438
-923.272
-1214.18
-1737.05
-2303.42
-2453.66
-2273.87
-2023.59
-1811.63
-1624.5
-1415.11
-1162.54
-887.353
-627.849
-412.815
-253.857
-147.132
-81.2663
-43.8912
-24.5964
-15.5428
-10.7296
-9.90929
-0.204793
-89.2581
-92.988
-113.829
-50.6467
54.6814
-139.298
-587.882
-844.617
-1069.04
-1622.24
-2223.33
-2374.74
-2174.77
-1897.37
-1668.97
-1487.85
-1300.15
-1075.76
-828.134
-591.366
-392.438
-243.247
-141.704
-78.1781
-41.4876
-22.0526
-12.7262
-7.27752
-6.91756
2.43911
-233.361
-246.331
-175.763
146.026
266.525
123.178
-65.3923
-231.962
-330.769
-420.495
-509.951
-534.467
-525.477
-457.169
-471.261
-733.392
-959.424
-927.234
-824.291
-800.906
-824.598
-818.488
-761.365
-666.923
-553.474
-436.887
-328.076
-230.417
-131.313
-20.9182
-253.19
-288.069
-257.264
-52.8343
3.99784
-100.801
-248.419
-377.664
-446.167
-503.097
-555.31
-562.215
-562.347
-515.134
-496.126
-668.468
-888.854
-884.978
-832.461
-841.883
-871.536
-858.694
-791.755
-688.011
-567.991
-447.904
-337.523
-239.617
-140.577
-31.0252
-289.31
-347.745
-403.126
-348.802
-321.877
-382.393
-490.584
-585.662
-605.658
-601.59
-595.113
-594.501
-633.376
-624.604
-539.93
-578.049
-759.724
-813.416
-853.975
-919.633
-961.374
-937.447
-851.433
-728.955
-595.098
-466.633
-350.937
-249.925
-149.236
-38.0149
-329.46
-422.666
-592.35
-668.863
-600.671
-624.548
-729.983
-813.868
-773.273
-670.69
-587.127
-598.214
-715.783
-747.879
-614.249
-561.786
-684.664
-802.087
-941.041
-1062.99
-1109.88
-1063.31
-946.386
-795.71
-640.929
-498.982
-374.358
-267.175
-161.84
-48.8128
-376.005
-487.287
-762.778
-956.032
-794.76
-780.749
-926.038
-1037.44
-940.589
-691.279
-514.405
-563.073
-772.241
-836.449
-710.59
-636.439
-726.681
-900.498
-1113.05
-1271.47
-1306.59
-1223.26
-1065.43
-880.239
-700.126
-541.234
-404.994
-289.377
-176.424
-59.5524
-410.156
-501.748
-855.092
-1127.13
-869.788
-842.376
-1078.48
-1245
-1095.04
-674.945
-436.952
-545.701
-821.809
-908.192
-831.507
-777.375
-872.367
-1091.7
-1348.65
-1518.22
-1525.01
-1394.38
-1189.36
-966.875
-760.843
-584.933
-437.131
-312.848
-191.762
-69.7956
-419.787
-465.022
-820.977
-1094.48
-798.88
-813.352
-1178.51
-1398.6
-1204.96
-683.249
-444.013
-565.585
-894.268
-1006.57
-978.057
-953.041
-1074.81
-1332.62
-1613.5
-1770.66
-1734.81
-1550.7
-1297.27
-1038.92
-809.791
-619.82
-463.17
-332.122
-204.676
-78.0433
-402.151
-396.214
-666.943
-860.957
-626.995
-763.293
-1240.72
-1473.1
-1262.95
-756.62
-579.117
-642.805
-1039.48
-1135.36
-1118.83
-1136.15
-1299.48
-1593.74
-1878.68
-1996.05
-1901.45
-1660.27
-1363.42
-1077.82
-833.771
-636.296
-475.985
-342.238
-211.759
-82.9503
-362.416
-319.673
-457.772
-562.347
-497.671
-753.963
-1240.82
-1446.35
-1277.49
-945.065
-1040.47
-880.301
-1157.91
-1284.12
-1259.3
-1327.25
-1544.22
-1863.53
-2117.65
-2161.17
-1989.25
-1693.32
-1366.37
-1068.33
-821.889
-626.228
-468.951
-338.089
-209.447
-83.3425
-308.084
-250.663
-272.638
-363.07
-479.937
-777.515
-1179.22
-1345.11
-1286.72
-1195.41
-1420.16
-1286.4
-1317.54
-1454.45
-1444.12
-1555.65
-1815.41
-2119.65
-2295.02
-2236.06
-1984.75
-1644.84
-1303.31
-1008.3
-772.121
-587.583