/*--------------------------------*- C++ -*----------------------------------*\
| =========                 |                                                 |
| \\      /  F ield         | OpenFOAM: The Open Source CFD Toolbox           |
|  \\    /   O peration     | Version:  2512                                  |
|   \\  /    A nd           | Website:  www.openfoam.com                      |
|    \\/     M anipulation  |                                                 |
\*---------------------------------------------------------------------------*/
FoamFile
{
    version     2.0;
    format      ascii;
    arch        "LSB;label=32;scalar=64";
    class       volScalarField;
    location    "40";
    object      p;
}
// * * * * * * * * * * * * * * * * * * * * * * * * * * * * * * * * * * * * * //

dimensions      [0 2 -2 0 0 0 0];

internalField   nonuniform List<scalar> 
90398
(
-6882.63
-7360.61
-9444.04
-11208.5
-10847.2
-9506.13
-8784.63
-8857.67
-8966.64
-8568.8
-7774.79
-6776.14
-5814.87
-4967.89
-4235.08
-3598.96
-3038.55
-2535.12
-2080.37
-1676.45
-1338.59
-1085.66
-903.609
-746.204
-590.865
-451.787
-328.003
-217.243
-118.666
-30.3007
-7017.48
-8059.95
-10251.4
-11531.2
-10853.7
-9647.48
-9273.67
-9435.13
-9413.08
-8812.86
-7809.35
-6725.58
-5782.04
-4965.27
-4247.88
-3617.06
-3056.56
-2554.33
-2101.17
-1696.4
-1356.66
-1102.59
-917.828
-752.14
-590.844
-450.056
-326.547
-216.505
-119.66
-31.3963
-7155.05
-8389.78
-9893.25
-10777.1
-10742.7
-10593.8
-10937.4
-10874.5
-10253.6
-9208.55
-7862.1
-6607.62
-5613.26
-4810.94
-4131.71
-3537.44
-3009
-2533.52
-2098.71
-1703.06
-1363.43
-1105.19
-914.813
-747.469
-588.248
-446.867
-323.045
-213.985
-118.633
-29.8547
-7285.48
-8441.49
-9337.73
-9796.03
-10357.2
-11670.7
-12857.3
-12677
-11547.2
-10038
-8318.56
-6808.61
-5651.27
-4738.47
-4007.6
-3405.86
-2900.44
-2456.11
-2050.53
-1675.57
-1345.08
-1087.13
-894.942
-730.708
-578.123
-441.097
-318.695
-210.007
-114.826
-25.0561
-7493.32
-8454.72
-8642.57
-8798.33
-9957.98
-12221.7
-13903.6
-13784.4
-12485.2
-10813.6
-8899.09
-7185.09
-5941.03
-4914.46
-4061.21
-3379.27
-2838.77
-2387.98
-1991.15
-1630.65
-1311.33
-1056.81
-864.557
-706.667
-564.642
-434.563
-314.89
-207.168
-112.159
-22.7986
-7868.82
-8699.22
-8388.39
-8616.34
-10410.8
-12958.2
-14487.7
-13934.1
-12103.8
-10734
-8929.63
-7148.28
-6100.51
-5144.31
-4249.99
-3495.14
-2887.87
-2394.07
-1973.52
-1603.22
-1283.13
-1029.01
-835.644
-684.476
-554.061
-431.924
-315.789
-210.112
-115.01
-24.7063
-8392.01
-9227.49
-8861.94
-9406.25
-11626.5
-14220.4
-15627.7
-14574.9
-11682.2
-10265.2
-8507.25
-6591.4
-5897.97
-5212.25
-4383.49
-3632.78
-3010.31
-2475.06
-2010.18
-1610.37
-1277.57
-1016.98
-820.777
-674.572
-552.59
-436.15
-323.149
-218.692
-122.514
-29.0201
-8860.41
-9689.46
-9602.31
-10557.2
-13082.9
-15621.3
-16769
-15742.2
-13067.9
-10433.5
-9585.59
-6899.6
-5311.24
-5223.39
-4395.63
-3679.84
-3110.1
-2586.8
-2086.66
-1652.84
-1300.38
-1029.1
-827.151
-681.549
-562.679
-446.951
-333.65
-228.869
-131.176
-32.629
-9162.99
-9790.19
-10186.1
-11661.6
-14465.6
-16858.2
-17276.1
-15793.9
-13181.4
-10974.1
-11256.3
-8313.24
-4620.39
-4927.81
-4615.26
-3680.96
-3125.6
-2674.84
-2176.91
-1722.63
-1353.39
-1070.07
-857.924
-706.438
-585.88
-467.231
-351.317
-245.568
-143.1
-35.0578
-9381.34
-9762.96
-10715.4
-12599.4
-15475.6
-17676.4
-17579.8
-16018.3
-12881.7
-9496.43
-12883.7
-9360.37
-4013.7
-4049.92
-4686.67
-3510.17
-3022.7
-2717.77
-2262.44
-1807.22
-1430.34
-1135.95
-911.638
-750.638
-625.705
-502.682
-379.641
-266.532
-155.715
-35.813
-9518.3
-9882.01
-11242.6
-13169.7
-15995.7
-18123.9
-17586.1
-15755.4
-15041.1
-14140.2
-9558.62
-7054.19
-4111.75
-4925.76
-3470.51
-2912.28
-2737.83
-2340.26
-1898.03
-1520.63
-1218.77
-985.273
-813.784
-679
-547.337
-412.982
-287.979
-166.505
-32.1943
-9549.13
-10140.3
-11642.1
-13371.9
-16226.4
-18620.8
-17769.8
-15126.7
-13167.2
-10520.4
-2535.91
-4320.44
-5556.18
-4271.16
-5226.04
-3642.96
-2995.84
-2809.53
-2422.14
-1991.07
-1617.06
-1311.18
-1070.44
-887.534
-739.8
-598.727
-454.212
-317.006
-184.872
-34.7333
-9644.71
-10450
-11929.1
-13367.6
-16148.7
-18527.8
-17930.9
-15199.3
-12426.7
-8965.7
-4965.33
-4605.76
-5653.52
-5232.46
-5135.16
-3843.66
-3222.14
-2927.01
-2506.26
-2078.7
-1710.99
-1405.29
-1158.7
-963.969
-802.94
-653.305
-502.426
-356.202
-215.893
-53.13
-9880.86
-10801.3
-12009.1
-13286.5
-15953.4
-17656.8
-17376.9
-15394
-12297.9
-9432.32
-6438.67
-5946.67
-5684.26
-5595.39
-4985.81
-4029.76
-3447.27
-3031.2
-2575.16
-2149.09
-1788.98
-1488.02
-1239.71
-1034.06
-857.073
-695.26
-538.164
-386.821
-242.131
-73.4314
-9940.21
-11036.5
-12145.1
-13652.2
-15719.1
-16231.8
-16076.6
-15329.2
-12946.4
-9773.61
-7212.92
-6191.11
-5721.78
-5533.7
-4919.64
-4157.3
-3577.96
-3085.21
-2612.18
-2192.09
-1841.3
-1546.97
-1297.72
-1081.61
-887.354
-708.975
-543.908
-392.717
-250.66
-85.8895
-9710.33
-11298.6
-12450.2
-13666.7
-14265.9
-14868.3
-15285.7
-14762.6
-12776.7
-9620.19
-7255.45
-6494.39
-5939.05
-5555.38
-4913.08
-4213.73
-3618.78
-3089.92
-2613.84
-2202.68
-1858.41
-1568.33
-1319.78
-1100.43
-898.89
-710.418
-537.423
-382.598
-239.344
-80.9976
-9335.97
-11385.8
-12244.5
-12562.2
-13018.8
-13964.9
-14175.6
-13034.9
-10845.3
-8589.22
-7115.43
-6736.02
-6122.58
-5588.28
-4914.16
-4225.66
-3618.8
-3080.4
-2610.86
-2212.56
-1879.94
-1597.77
-1351.36
-1128.94
-920.972
-723.414
-537.988
-370.531
-219.778
-64.4061
-8841.73
-10791.6
-11505.4
-11593.2
-12583
-12739
-12172.1
-10562.9
-8381.02
-7523.89
-7264.54
-6838.67
-6228.21
-5621.13
-4949.5
-4265.66
-3653.43
-3114.9
-2653.82
-2265.72
-1939.96
-1657.21
-1400.38
-1161.7
-937.484
-725.813
-528.715
-352.884
-199.936
-50.5484
-8550.55
-10232.2
-11384.1
-11772.2
-12421.4
-11903
-10816.5
-8974.96
-7059.3
-7051.58
-7327.91
-6900.36
-6368.99
-5713.83
-5052.34
-4351.84
-3717.3
-3164.72
-2699.61
-2306.43
-1969.61
-1674.61
-1407.34
-1158.79
-925.556
-707.787
-507.27
-330.169
-179.407
-38.7405
-8395.55
-9740.03
-11405.4
-12103.8
-12352.9
-11625.3
-10572.3
-8663.3
-6814.16
-6979.88
-7110.28
-6887.11
-6470.44
-5788.58
-5106.09
-4379.46
-3722.28
-3155.03
-2684.26
-2290.7
-1954.52
-1660.01
-1393.02
-1143.85
-909.109
-690.583
-490.937
-315.568
-167.081
-31.6729
-6776.29
-7966.55
-11006
-12931.6
-11575.3
-9346.34
-8772.08
-9146.41
-9304.18
-8831.61
-7942.94
-6869.93
-5870.09
-5003.49
-4254.65
-3608.25
-3047.83
-2550.67
-2104.8
-1708.4
-1370.19
-1107.69
-913.974
-751.104
-595.153
-454.538
-329.994
-218.087
-117.842
-29.2124
-6944.44
-8797.32
-11816.9
-12943
-11467.6
-9839.89
-9560.45
-9896.88
-9839.04
-9149.05
-8049.85
-6896.25
-5889.37
-5031.79
-4287.63
-3645.44
-3088.88
-2592.91
-2143.06
-1736.27
-1388.08
-1122.61
-925.544
-754.233
-591.89
-452.343
-330.727
-220.881
-122.483
-34.9258
-7028.83
-8787.4
-10765.5
-11496.9
-11127
-11338.7
-11804.3
-11610.2
-10853
-9670.99
-8268.32
-6948.94
-5853.6
-4965.31
-4227.84
-3604.35
-3065.6
-2585.54
-2147.28
-1746.15
-1395.43
-1125.09
-925.722
-754.986
-596.973
-455.651
-331.03
-221.292
-124.648
-35.9043
-7061.5
-8577.36
-9668.58
-10174.6
-11120.6
-12840.3
-13956.4
-13640.1
-12305.2
-10583.4
-8835.56
-7295.64
-6042.1
-5018.96
-4190.63
-3524.57
-2980.02
-2514.21
-2098.83
-1720.79
-1381.8
-1109.64
-908.06
-741.13
-590.53
-454.165
-331.608
-222.213
-125.21
-33.9566
-7165.9
-8370.84
-8621.15
-9235.14
-11041.6
-13629
-15328.7
-15078
-13392.8
-11360.5
-9380.32
-7688.38
-6372.89
-5264.09
-4319.26
-3553.63
-2949.06
-2458.67
-2040.89
-1673.49
-1349.59
-1080.43
-876.709
-715.72
-576.967
-449.164
-329.892
-221.389
-124.635
-32.9924
-7540.37
-8588.48
-8425.15
-9368.16
-11625.8
-14246.8
-15817.8
-15373
-13487.4
-11524.4
-9488.08
-7729.05
-6495.79
-5449.4
-4497.19
-3686.84
-3026.34
-2482.37
-2028.42
-1644.29
-1319.52
-1051.28
-844.515
-689.362
-563.22
-444.833
-329.18
-222.512
-126.696
-34.839
-8293.6
-9425.19
-9250.96
-10614.6
-13119.3
-15367.5
-16455.4
-15592.6
-13186.8
-11163
-9261.55
-7449.76
-6365.58
-5473.39
-4588.53
-3809.27
-3150.66
-2573.63
-2072.56
-1653.52
-1310.14
-1035.71
-825.847
-674.586
-556.668
-444.716
-332.184
-227.584
-132.031
-38.7559
-9086.24
-10350
-10320.9
-12158.7
-14727.2
-16462.3
-17011.4
-15892.4
-13318.6
-11234.7
-9716.51
-7550.91
-6108.2
-5485.5
-4565.92
-3851.05
-3250
-2679.27
-2149.67
-1697.22
-1328.32
-1041.48
-827.968
-677.674
-561.534
-450.715
-339.001
-234.477
-136.439
-41.3532
-9521.3
-10718
-11189.4
-13470.7
-15833.4
-17216.6
-17450
-16054.8
-13718.8
-11662.9
-10223.3
-8186.59
-5361.45
-4838.5
-4631.11
-3837.79
-3298.91
-2768.74
-2232.73
-1760.67
-1372.77
-1073.71
-855.125
-700.992
-581.411
-467.697
-353.395
-245.063
-141.372
-38.8191
-9616.95
-10570.9
-11903.8
-14362.2
-16376.3
-17692.1
-17906.2
-16263.7
-14031.3
-11414.5
-11175.2
-8329.99
-4066.7
-3018.63
-4820.9
-3751.34
-3284.81
-2840.92
-2311.59
-1834.71
-1439.68
-1134.07
-910.304
-750.04
-623.692
-502.829
-380.412
-264.22
-153.445
-37.938
-9536.82
-10299.9
-12213.6
-14490.3
-16491.4
-18022
-17942.4
-15532.9
-13844.7
-11717.2
-3097.89
-5168.33
-3767.07
-3238.77
-2901.91
-2386.95
-1916.81
-1524.39
-1216.52
-987.733
-820.471
-685.07
-554.378
-419.921
-291.15
-169.54
-38.3581
-9511.35
-10188.6
-12094.7
-14004.6
-16396.7
-18428.2
-18115
-15533.9
-12826.3
-12583.5
-7120.93
-8799.43
-5711.88
-5188.34
-5304.28
-3893.57
-3325.81
-2981.51
-2464.96
-2005.26
-1621.68
-1313.79
-1077.71
-901.152
-756.003
-616.526
-471.813
-330.517
-196.899
-47.5772
-9658.68
-10482.5
-12066.5
-13421.1
-16177.1
-18545.8
-18083.3
-15708.8
-12677
-10174.5
-6515.43
-5750.44
-5836.92
-5426.55
-5140.06
-4034.36
-3510.89
-3072.77
-2542.27
-2091.45
-1718.78
-1414.33
-1171.38
-982.118
-824.567
-676.481
-525.268
-375.397
-232.567
-69.5593
-9714.95
-11158.9
-12510.1
-13522
-16486.9
-18334.7
-17770.4
-15829.3
-12880.6
-9292.87
-6781.81
-6148.28
-5785.7
-5625.89
-4997.36
-4193.65
-3671.36
-3143.61
-2606.9
-2163.73
-1800.66
-1503.04
-1257.67
-1055.26
-881.183
-719.999
-560.781
-404.637
-256.232
-86.2008
-9851.17
-11537.7
-13015.3
-14759.3
-17283.8
-17367.7
-16725.7
-15880.3
-13537.2
-10014.5
-7380.21
-6438.11
-5905.67
-5605.49
-4980.15
-4315.48
-3748.21
-3175.53
-2645.64
-2211.9
-1856.85
-1563.74
-1316.4
-1102.58
-912.167
-736.702
-571.166
-414.485
-264.748
-94.3222
-9767.33
-11878.3
-13611.1
-15128.1
-15808.2
-16063.3
-16615.2
-16286.8
-13754.1
-10113
-7590.18
-6772.36
-6118.99
-5659.53
-5019.44
-4357.24
-3747.15
-3167.15
-2653.55
-2230.74
-1883.52
-1593.67
-1345.08
-1124.48
-921.945
-733.439
-559.68
-401.172
-250.923
-83.2841
-9370.22
-11888.5
-12735.8
-13444.4
-14519.4
-15747.6
-16324.6
-15420.1
-12487.7
-9178.65
-7339.16
-6997.75
-6276.03
-5713.82
-5034.46
-4343.66
-3714.15
-3145.38
-2656.01
-2251.4
-1916.94
-1635.09
-1388.08
-1162.41
-948.684
-744.533
-554.248
-383.163
-228.268
-65.1442
-8987.42
-11215.4
-11525.6
-11966.5
-13609.3
-13922.5
-13824.7
-12343.9
-9874.76
-8094
-7422.22
-7050.51
-6383.54
-5772.76
-5074.4
-4364.38
-3726.98
-3169.4
-2699.73
-2310.24
-1982.47
-1697.8
-1440.1
-1199.06
-968.925
-749.687
-546.85
-367.275
-212.145
-57.0225
-8851.82
-11267.8
-11748
-12053
-12993.9
-12201.8
-11174.3
-9089.23
-7683.63
-7666.87
-7703.4
-7146.15
-6582.47
-5866.1
-5141.53
-4405.35
-3759.79
-3203.75
-2737.07
-2345.6
-2011.36
-1717.19
-1448.81
-1196.98
-957.942
-733.794
-529.449
-349.566
-197.887
-49.3795
-8725.99
-11338.6
-12330.8
-12558.4
-12539.5
-11868
-10738.4
-8243.25
-7197.74
-7870.75
-7505.61
-7093.76
-6601.23
-5857.2
-5132.53
-4396.06
-3749.6
-3193.68
-2728.9
-2337.75
-2002.3
-1706.26
-1435.89
-1182.26
-942.02
-717.58
-514.129
-335.256
-185.814
-40.9005
-6254.28
-7585.97
-11069.2
-13883.5
-12510.9
-9971.31
-9448.45
-10123.9
-10085.1
-9295.23
-8177.43
-6978.75
-5904.9
-5000.58
-4237.3
-3592.88
-3043.49
-2560.76
-2129.35
-1742.02
-1403.79
-1133.28
-925.42
-749.652
-589.493
-449.106
-327.33
-218.715
-120.383
-31.1366
-6257.39
-8041.4
-11597.4
-13760
-12840.1
-10810.9
-10511.5
-10854.7
-10519.6
-9536.82
-8275.66
-7028.3
-5944.52
-5043.52
-4279.37
-3633.43
-3082.73
-2598.77
-2164.07
-1768.99
-1422.92
-1148.17
-937.41
-756.281
-591.136
-448.959
-327.512
-220.597
-123.76
-36.3452
-6087.9
-7809.61
-10615
-12122.2
-12051
-12229.5
-12669.1
-12463.6
-11481.8
-10058.2
-8549.61
-7174.88
-6017.56
-5069.3
-4283.04
-3633.76
-3084.28
-2602.58
-2170.45
-1780.24
-1435.96
-1156.9
-944.841
-765.101
-601.072
-456.847
-332.096
-223.117
-126.139
-37.9884
-5993.9
-7619.02
-9721.63
-11175.7
-12143.6
-13670.6
-14759.1
-14390.4
-12873.7
-10947.3
-9131.37
-7591.4
-6328.46
-5263.13
-4368.03
-3644.12
-3059.22
-2565.26
-2133.28
-1752.76
-1421.1
-1144.94
-931.325
-754.002
-596.68
-460.165
-338.756
-228.901
-129.535
-38.15
-5992.19
-7408.63
-8872.57
-10578.1
-12479.7
-14929.3
-16407.5
-15915.7
-13966.8
-11670.2
-9601.44
-7938.44
-6638.18
-5538.28
-4571.16
-3754.64
-3091.14
-2547.46
-2093.79
-1707.75
-1381.07
-1110.88
-895.704
-723.645
-580.6
-455.841
-338.687
-229.28
-130.075
-38.6648
-6421.68
-7920.3
-9157.76
-11025.5
-13262.3
-15792.6
-17126.5
-16368.8
-14225.4
-11868.5
-9696.48
-7964.19
-6696.35
-5644.26
-4708.93
-3892.6
-3197.28
-2604.28
-2104.05
-1687.87
-1346.15
-1072.94
-853.975
-687.752
-560.646
-447.572
-334.795
-227.728
-131.336
-41.2568
-7468.79
-9228.88
-10372.6
-12281.8
-14447.6
-16472.2
-17245.1
-16194
-13934.7
-11642.8
-9544.73
-7798.83
-6582.03
-5600.37
-4719.27
-3965.68
-3301.9
-2700.35
-2164.79
-1708.95
-1337.2
-1048.37
-825.971
-663.652
-546.503
-440.653
-331.813
-229.016
-135.685
-46.1301
-8755.17
-10659.6
-11711
-13684
-15549.9
-16963.5
-17383.3
-16263.8
-13725.6
-11205.6
-9715.76
-7944.53
-6564.93
-5619.71
-4637.81
-3965.23
-3366.14
-2788.54
-2241.39
-1755.31
-1353.62
-1044.93
-818.754
-660.14
-545.945
-440.974
-333.711
-232.16
-137.466
-46.6665
-9577.81
-11390
-12644.8
-14692.3
-16146.5
-17217
-17712
-16807
-14376.7
-11325.6
-9221.73
-8054.97
-6348.03
-5300.31
-4589.33
-3934.98
-3402.67
-2860.12
-2313.09
-1808.49
-1387.76
-1067.15
-839.774
-682.926
-565.745
-456.207
-345.488
-238.862
-137.87
-41.4143
-9705.03
-11167.1
-12965.5
-15070.1
-16318
-17340.3
-17954.2
-17037.1
-14933.1
-11973.7
-9235.3
-8929.06
-6187.99
-4159.65
-4582.36
-3897.43
-3440.24
-2927.86
-2376.63
-1864.43
-1442.18
-1120.97
-895.287
-737.352
-612.333
-493.765
-373.589
-256.474
-146.392
-37.1039
-9415.71
-10435.1
-12658.7
-14930
-16317.7
-17533.5
-17932.5
-16554.2
-14586.7
-12329
-8557.66
-4530.04
-4716.17
-3945.93
-3495.27
-3001.92
-2438.69
-1933.48
-1521.01
-1204.83
-979.68
-816.785
-682.022
-552.676
-419.829
-289.038
-166.972
-39.6519
-9312.02
-10092.8
-12308.4
-14433
-16196.6
-17872.2
-18034.2
-16337.7
-13870.8
-11662.3
-7507.68
-7741.71
-6348.34
-5686.86
-4901.99
-4098.1
-3608.19
-3087.16
-2509.12
-2018.45
-1622.1
-1312.72
-1081.1
-908.644
-764.404
-625.789
-482.293
-338.949
-203.371
-54.8722
-9480.93
-10593.9
-12497.8
-13831.9
-16002.7
-18238.1
-18271.6
-16472.1
-13826.3
-10176.4
-7054.41
-5938.95
-5700.3
-5598.13
-4994.06
-4279.63
-3755.33
-3168.21
-2582.25
-2105.74
-1725.34
-1422.22
-1181.27
-994.008
-837.118
-688.935
-538.017
-386.442
-240.29
-75.7588
-9384.33
-11187
-13052.2
-13929.5
-16728.2
-18755
-18307.9
-16643.3
-14220.2
-10615.8
-7601.87
-6464.11
-5947.17
-5638.97
-5071.74
-4443.86
-3858.68
-3221.83
-2645.4
-2180.99
-1809.66
-1510.51
-1264.21
-1062.26
-889.152
-727.412
-567.31
-409.438
-256.787
-82.6322
-9669.38
-12191.9
-14263.6
-16207.7
-18518.1
-18531.2
-17773.1
-17472.4
-15474.7
-11481.6
-8159.12
-6950.45
-6239.05
-5788.22
-5188.25
-4539.57
-3885.74
-3238
-2683.65
-2233.93
-1871.47
-1575.33
-1325.2
-1110.99
-923.151
-748.838
-580.879
-418.591
-260.932
-82.5798
-9826.09
-13374.8
-15874.7
-17074.8
-17824.4
-18173
-19376.1
-19323.8
-16354.4
-11563
-8382.54
-7424.49
-6568.16
-5940.16
-5263.06
-4543.49
-3852.72
-3224.28
-2696.63
-2264.75
-1913.52
-1622.47
-1372.67
-1150.12
-945.814
-756.284
-579.34
-413.074
-251.688
-72.3079
-9434.99
-12509.2
-13885.6
-15587
-17585
-19659.1
-20416.2
-18957.5
-14986.5
-10292
-8189.14
-7695.39
-6749.83
-6010.4
-5257.73
-4490.78
-3800.1
-3201.27
-2701.94
-2292.21
-1955.41
-1672.06
-1423.37
-1194.3
-975.592
-767.203
-574.412
-399.659
-238.251
-64.8921
-8990.05
-11147.5
-11744.9
-14347
-17284.8
-17938
-17753.9
-15260.4
-11513.4
-8826.55
-8197.61
-7701.25
-6785.5
-6013.68
-5220.67
-4444.31
-3771.37
-3199.33
-2723.82
-2331.6
-2003.44
-1719.86
-1463.95
-1223.42
-991.477
-770.179
-566.468
-384.58
-226.532
-61.7909
-9076.8
-11134.9
-11460
-13564.4
-15422.1
-14544.4
-13564.8
-10908.9
-9212.18
-8802.38
-8507.59
-7694.32
-6849.36
-5988.36
-5180.71
-4411.38
-3757.51
-3201.14
-2737.08
-2350.51
-2021.96
-1732.69
-1467.58
-1216.93
-977.229
-751.917
-547.048
-365.179
-211.388
-52.9304
-8977.11
-11248.4
-11172.5
-11522.1
-13004.7
-13069.4
-11784.7
-9625.42
-9452.65
-9372.74
-8152.84
-7493.54
-6782.35
-5929.4
-5137.84
-4378.12
-3733.62
-3183.77
-2724.54
-2339.94
-2010.86
-1719.41
-1451.43
-1198.39
-957.348
-731.862
-528.063
-347.668
-196.058
-41.6014
-5472.52
-6350.56
-9509.9
-13311.8
-13014.9
-11028.9
-10855.6
-11664.3
-11199.6
-9929.69
-8472.29
-7084.49
-5903.23
-4946.28
-4163.7
-3520.93
-2986.59
-2526.26
-2119.3
-1754.23
-1430.26
-1159.17
-940.716
-753.355
-586.121
-443.522
-323.763
-219.59
-123.599
-33.7922
-5284.44
-6268.52
-9523.98
-13039.8
-13681.2
-12095.6
-12214.7
-12564.2
-11720.1
-10174.9
-8584.76
-7161.4
-5971.47
-5016.18
-4227.41
-3575.07
-3029.15
-2558.91
-2146.56
-1778.84
-1452.75
-1179.12
-958.553
-768.354
-597.346
-450.926
-328.052
-222.279
-125.162
-37.7813
-4995.03
-5967.06
-9404.48
-12237.9
-13059.6
-13372.1
-13952.1
-13746
-12388.1
-10566.1
-8820.39
-7331.12
-6113.07
-5123.8
-4302.74
-3628.88
-3069.92
-2588.07
-2164.37
-1791.87
-1469.01
-1196.22
-973.588
-782.13
-610.721
-463.017
-336.778
-227.428
-128.172
-40.111
-4833.92
-5876.32
-9501.08
-12323.9
-13403.9
-14735.1
-15863.9
-15309.1
-13468.2
-11286
-9332.1
-7741.22
-6479.6
-5424.97
-4507.58
-3740.56
-3117.24
-2599
-2155.51
-1774.15
-1451.68
-1183.84
-963.368
-774.065
-609.58
-470.19
-346.966
-235.624
-132.558
-41.7493
-4771.57
-6080.22
-9514.85
-12342.9
-14127.5
-16350.3
-17657.1
-16798.3
-14454.2
-11907.1
-9728.21
-8041.12
-6755.02
-5695.89
-4756.27
-3925.69
-3221.33
-2635.29
-2148.85
-1745.22
-1411.62
-1142.28
-923.206
-739.554
-588.617
-462.628
-345.166
-234.369
-131.596
-42.5944
-5247.57
-7162.41
-10448.3
-13052.6
-15104.4
-17534.5
-18678.6
-17431.7
-14806.2
-12096.8
-9813.41
-8066.29
-6787.16
-5748.35
-4848.07
-4050.33
-3344.75
-2722.98
-2190.09
-1746.82
-1385.93
-1099.74
-874.624
-695.667
-559.306
-446.33
-334.602
-226.857
-128.887
-44.2717
-6462.33
-8917.19
-11801
-14021.6
-15931.4
-17978.9
-18647.6
-17237.4
-14660.5
-12025.9
-9749.18
-7970.43
-6701.32
-5686.36
-4809.56
-4073.09
-3417.48
-2810.64
-2260.86
-1785.14
-1390.2
-1075.12
-837.903
-662.515
-536.681
-431.46
-323.718
-221.238
-129.635
-48.2774
-8110.29
-10712.3
-13044
-14919.2
-16386.8
-17782.7
-18216.6
-17120.1
-14705.7
-11986.1
-9922.11
-8040.47
-6726.4
-5749.2
-4710.16
-4033.34
-3442.31
-2870.7
-2327.26
-1836.49
-1413.71
-1072.25
-822.358
-650.266
-529.523
-425.272
-318.653
-218.777
-128.8
-47.0592
-9332.99
-11653.1
-13699.1
-15410.9
-16429.1
-17409.5
-18013.4
-17396.8
-15131.4
-12072.2
-9588.94
-7868.38
-6507.19
-5636.53
-4626.64
-3972.47
-3452.72
-2917.54
-2384.34
-1887.53
-1446.84
-1090.67
-836.329
-667.035
-546.395
-437.732
-327.847
-224.176
-129.642
-42.2474
-9617.07
-11290.6
-13413
-15261
-16195.3
-17133.5
-17891.3
-17416.6
-15283.2
-12641.8
-9407.13
-7939.71
-6335.42
-5303.81
-4557.82
-3918.72
-3483.72
-2973.92
-2442.76
-1941.87
-1491.77
-1135.48
-888.033
-721.755
-594.937
-476.461
-357.276
-242.274
-136.491
-37.7212
-9367.04
-10166.2
-12419.1
-14755
-15938.8
-17056
-17719.9
-17055
-14866.7
-12434.5
-9071.77
-5542.46
-5913.51
-5318.11
-4581.67
-3943.01
-3570.29
-3059.44
-2519.55
-2008.41
-1556.19
-1215.51
-979.837
-812.007
-674.176
-543.385
-411.486
-282.116
-162.073
-43.1717
-9172.42
-9986
-12154.4
-14412.6
-15848.4
-17307.8
-17861
-16996.9
-14841.8
-11672.6
-8125.98
-6564.48
-6956.45
-5549.24
-4733.73
-4105.17
-3723.69
-3175.36
-2612.08
-2086.33
-1651.04
-1331.15
-1096.91
-919.814
-769.347
-626.822
-483.349
-341.127
-205.566
-63.3614
-9243.54
-10625.6
-13089.9
-14558.5
-15981.2
-17664.7
-18141.7
-17270.2
-15263.8
-11858.1
-8203.84
-6768.4
-6021.03
-5722.27
-4971.01
-4367.46
-3905.04
-3292.49
-2697.06
-2166.22
-1756.42
-1449.2
-1206.06
-1011.9
-847.422
-694.141
-542.822
-393.031
-246.04
-82.6616
-8861.76
-10512
-13242.6
-14604.2
-16662.9
-18190.5
-18381.9
-18075
-16649
-13046.8
-9529.04
-7649.3
-6656.07
-5917.65
-5232.21
-4626.57
-4042.91
-3371.68
-2757.7
-2238.54
-1847.42
-1541.49
-1287.96
-1077.52
-897.673
-732.071
-571.826
-415.463
-260.726
-84.9705
-9134.35
-11933.7
-14787.2
-16991
-18250.7
-18369.6
-19101.7
-20625.9
-19504.4
-14847
-10536.3
-8427.57
-7108.33
-6208.84
-5484.98
-4783.2
-4089.03
-3390.11
-2784.33
-2292.25
-1915.26
-1610.27
-1350.77
-1127.86
-933.63
-756.063
-587.425
-424.875
-263.196
-80.9815
-9607.48
-13629.2
-17128.8
-18105.8
-18469.6
-19820.4
-23114.4
-24236.3
-21254.9
-15285.7
-10856.8
-8929.6
-7440.6
-6423.36
-5601.08
-4790.43
-4040.04
-3355.41
-2782.72
-2324.68
-1963.67
-1665.64
-1408.51
-1178.77
-967.889
-773.27
-592.496
-422.792
-257.326
-72.949
-9259.36
-12621.6
-15528.8
-17471.6
-20086.8
-23470.5
-25406.3
-24228.7
-19578.5
-13495.2
-10289.4
-8931.16
-7491.7
-6444.32
-5547.46
-4689.16
-3942.35
-3297.76
-2768.22
-2343.93
-2001.31
-1713.69
-1461.09
-1227.36
-1003.48
-790.53
-593.676
-414.513
-249.384
-68.4234
-8542.02
-10749.4
-12984.1
-17235
-21024.2
-22469
-22732.3
-19961.1
-15002.2
-10957.5
-9633.6
-8632.13
-7330.18
-6317.84
-5405.98
-4560.07
-3847.79
-3246.88
-2753.82
-2353.79
-2023.18
-1739.23
-1483.8
-1243.44
-1010.92
-789.02
-584.249
-399.591
-238.368
-64.6847
-8569.76
-10315.7
-11915.1
-16259.5
-18434.8
-17888.1
-17251.2
-14446.7
-11841.6
-10342.3
-9587.57
-8428.34
-7201.05
-6176.91
-5273.69
-4455.22
-3775.24
-3202.73
-2729.93
-2340.59
-2012.92
-1726.7
-1465.21
-1218.23
-981.91
-759.183
-555.516
-372.387
-215.85
-50.3445
-8782.44
-10508
-10881.6
-12297
-14474
-14995.9
-14339.6
-12819.3
-11950.2
-10340
-9010.69
-8174.13
-7084.36
-6078.42
-5195.27
-4394.73
-3729.63
-3167.29
-2700.69
-2313.72
-1985.65
-1697.48
-1433.65
-1185.15
-949.104
-728.498
-528.079
-348.036
-194.966
-36.0003
-4801.24
-5244.5
-7720.21
-12027.3
-12825.6
-11897.6
-12847.7
-13900.6
-12852.9
-10818.6
-8838.2
-7190.85
-5884.38
-4862.41
-4052.48
-3402.72
-2875.4
-2435.43
-2058.54
-1727.46
-1432.73
-1175.97
-957.14
-765.015
-593.975
-448.115
-327.167
-223.955
-128.084
-37.4121
-4556.34
-4939.59
-7819.69
-12192.3
-13866.1
-13312.4
-14456.8
-14965.7
-13464.4
-11101.7
-8997.64
-7310.93
-5997.94
-4981.56
-4162.29
-3494.1
-2944.49
-2481.25
-2086.73
-1748
-1453.04
-1197.57
-978.334
-784.08
-609.289
-458.404
-332.865
-226.848
-128.247
-39.9447
-4376.09
-4784.59
-8632.11
-12327.1
-13730.8
-14389.7
-15517.9
-15595.5
-13760
-11269.1
-9141.08
-7464.16
-6178.05
-5160.66
-4315.81
-3614.44
-3035.86
-2548.01
-2130.21
-1773.94
-1472.2
-1217.35
-997.666
-801.263
-625.569
-474.644
-346.442
-235.868
-133.008
-43.4121
-4283.29
-4714.53
-9300.33
-13174.4
-14365.2
-15629.6
-17160.6
-16695.1
-14368.2
-11720.8
-9517.19
-7809.87
-6533.91
-5511.48
-4610.13
-3819.42
-3159.05
-2612.26
-2156.24
-1775.2
-1460.39
-1204.15
-988.714
-796.396
-626.754
-483.24
-358.096
-245.501
-138.111
-46.8651
-4293.92
-5260.71
-9972.49
-13675.5
-15371.8
-17442.9
-18984.6
-17945
-15111.9
-12203.4
-9825.39
-8062.35
-6784.51
-5765.16
-4870.42
-4053.13
-3327.09
-2706.43
-2190.98
-1770.62
-1432.72
-1164.61
-947.956
-762.019
-603.458
-471.728
-352.831
-241.119
-133.902
-47.2809
-4798.4
-6662.68
-11385.7
-14609.7
-16505
-18859.7
-20151.4
-18602.5
-15491.9
-12393.6
-9918.24
-8119.15
-6833.2
-5813.49
-4939
-4159.98
-3454.36
-2815.73
-2259.91
-1796.42
-1424.19
-1132.74
-903.726
-718.592
-569.154
-447.213
-333.416
-224.703
-123.712
-45.9807
-5965.01
-8568.3
-12771.2
-15321.1
-17054
-19140.3
-19978
-18320.5
-15375.2
-12434.5
-9986.27
-8131.77
-6809.29
-5773.33
-4899.92
-4159.92
-3503.89
-2890.64
-2331.23
-1846.11
-1445.04
-1125.28
-874.289
-683.978
-540.54
-423.788
-312.155
-208.181
-117.038
-47.0127
-7631.13
-10457.2
-13773.6
-15674.1
-16974.4
-18466.5
-19022.7
-17836.1
-15419.5
-12654.9
-10093.7
-8076.07
-6694.6
-5683.5
-4823.89
-4116.67
-3511.38
-2931.69
-2383.75
-1895.39
-1479.23
-1136.96
-864.579
-666.682
-526.456
-410.777
-298.912
-198.021
-112.265
-44.5684
-8994.62
-11439
-14115.2
-15729.7
-16657.4
-17648.7
-18327.2
-17849
-15786.7
-12896.4
-10444.8
-8175.89
-6607.27
-5686.82
-4748.19
-4059.1
-3512.25
-2966.28
-2429.61
-1942.56
-1518.93
-1162.53
-878.959
-679.18
-538.43
-418.907
-303.236
-199.398
-111.299
-39.8112
-9397.01
-10968.6
-13473.7
-15267.5
-16195
-17109.1
-17985.1
-17836.1
-15954.9
-12968.6
-10307.7
-7655.54
-6248.64
-5522.27
-4707.22
-4019.59
-3543.05
-3020.79
-2486.52
-1998.77
-1571.04
-1209.21
-927.922
-729.889
-584.212
-454.386
-329.203
-214.83
-114.847
-34.7682
-9289.58
-9718.51
-12134.5
-14413
-15623.4
-16709.7
-17613.5
-17622.7
-15913.4
-12984.7
-9902.02
-7134.85
-6146.63
-5549.06
-4779.32
-4067.99
-3644.54
-3117.81
-2573.02
-2078.22
-1646.48
-1286.01
-1014.91
-822.861
-669.939
-528.398
-391.784
-263.208
-146.615
-42.7584
-9157.29
-9832.5
-12007.5
-14080.9
-15362.7
-16656.7
-17608.8
-17705.3
-16271.2
-13349.1
-9784.16
-7619.86
-6569.78
-5801.9
-5004.31
-4258.44
-3823.29
-3256.44
-2689.87
-2182.66
-1747.04
-1393.08
-1133.73
-940.342
-774.65
-620.884
-472.856
-331.472
-197.59
-66.3005
-9061.76
-10538
-13275.1
-14686.8
-15584.5
-16800.7
-17800.8
-18187.6
-17399.1
-14655.8
-11239.8
-8710.65
-7265.7
-6253
-5314.69
-4561.34
-4041.57
-3409.76
-2815.32
-2291.47
-1851.79
-1508.48
-1250.46
-1042.7
-863.131
-697.915
-540.836
-391.642
-245.899
-86.8584
-8415.47
-10155.8
-13157.3
-14823.7
-15905.4
-16792.9
-18113.1
-19947.5
-20331.9
-17325.1
-12955.9
-9854.78
-8018.42
-6681.3
-5664.66
-4875.82
-4230.96
-3536.06
-2917.13
-2381.45
-1943.61
-1608.19
-1342.18
-1117.7
-923.902
-747.233
-580.066
-421.411
-264.91
-89.5676
-8494.3
-11791.5
-14587.9
-16407.5
-16442.5
-17050.4
-20277.1
-24289.5
-25003.8
-20476.3
-14635
-10933.8
-8641.02
-7045.12
-5959.76
-5079.41
-4322.26
-3592.04
-2964.75
-2435.25
-2011.66
-1683.42
-1411.95
-1176.33
-969.261
-781.331
-604.956
-437.552
-272.217
-87.2182
-9141.58
-13767.6
-17226.8
-17634.5
-17390.3
-20293.8
-25901.4
-29158.6
-27377.5
-21068.7
-14901.6
-11339.5
-8877.89
-7206.37
-6059.42
-5093.86
-4281.73
-3557.4
-2949.72
-2449.18
-2052.3
-1737.33
-1469.57
-1229.83
-1009.21
-805.132
-615.823
-439.516
-270.165
-81.1597
-8846.11
-13149.3
-16829.3
-18141
-21012.6
-25433.1
-28989.7
-29272.5
-25128.8
-18268.7
-13431.3
-10783.5
-8582.11
-7055.35
-5918.32
-4944.14
-4144.45
-3458.56
-2890.57
-2430.81
-2064.71
-1766.04
-1505.89
-1266.16
-1037.26
-819.135
-616.752
-431.678
-262.747
-75.9259
-7841.24
-11064.1
-14674.5
-19160.5
-23035.6
-25355.9
-26657.6
-24651.7
-19459.7
-14269.7
-11718.1
-9885.53
-8058.08
-6727.12
-5657.63
-4733.3
-3978.31
-3340.13
-2813.13
-2387.34
-2042.3
-1752.54
-1494.7
-1254.26
-1023.04
-801.756
-596.096
-408.995
-244.135
-64.8992
-7612.21
-10018.5
-13447.7
-18829.9
-20533.8
-20244.1
-20488.5
-18422.5
-15261
-12563.1
-11059.3
-9339.06
-7693.28
-6466.67
-5444.44
-4563.1
-3841.87
-3234.8
-2733.54
-2325.2
-1987.99
-1699.03
-1439.31
-1197.38
-967.496
-750.664
-550.419
-368.02
-210.749
-44.1472
-8230.12
-10220.3
-12334.3
-15034.8
-16631.5
-16615.1
-16986.8
-15901.9
-13767.1
-11402.9
-10306.3
-9033.17
-7522.32
-6343.92
-5345.8
-4482.41
-3773.02
-3175.02
-2680.38
-2274.46
-1936.64
-1645.81
-1384.79
-1143.13
-916.069
-704.646
-510.769
-334.031
-182.992
-26.2171
-4383.81
-4635.35
-6487.24
-10827.2
-12465
-12915.9
-15558.8
-17036.9
-15160.2
-11982.7
-9286.95
-7335.38
-5889.45
-4796.92
-3952.23
-3281.55
-2743.89
-2308.51
-1952.95
-1655.35
-1396.88
-1168.29
-963.293
-775.547
-605.123
-457.835
-335.127
-231.399
-134.965
-42.2735
-4174.13
-4318.55
-7133.86
-11700.3
-13802.4
-14669.7
-17359
-18194.7
-15844.7
-12325.6
-9504.79
-7505.05
-6045.61
-4962.16
-4112.47
-3421.55
-2856.58
-2389.08
-2001.64
-1682.29
-1415.23
-1185.9
-982.173
-794.403
-621.626
-469.707
-341.96
-234.738
-134.563
-43.668
-4142.78
-4353.12
-8324.12
-12346.7
-14018.9
-15390.4
-17622.8
-18290.4
-15799.8
-12253.1
-9564.5
-7640.89
-6245.36
-5194.24
-4332.53
-3604.78
-2999.1
-2494.2
-2072.81
-1725.83
-1440.57
-1203.76
-998.616
-811.214
-639.9
-489.578
-360.198
-248.005
-140.996
-47.7452
-4156.16
-4294.35
-9019.6
-13578.6
-14963.3
-16398
-18819
-18893.8
-15864.3
-12419.8
-9808.89
-7902.6
-6562.03
-5553.39
-4681.22
-3887.42
-3196.67
-2616.86
-2140.17
-1754.37
-1444.27
-1196.63
-991.224
-807.503
-641.82
-498.408
-372.688
-259.468
-147.46
-53.382
-4366.74
-4996.46
-9950.41
-14249.3
-16176.4
-18314.9
-20558.2
-19731.3
-16255.3
-12723.6
-10015.3
-8107.42
-6803.31
-5803.56
-4941.03
-4146.44
-3413.82
-2765.84
-2221.54
-1782.72
-1437.49
-1169.25
-956.261
-775.781
-618.525
-484.225
-364.406
-252.789
-140.495
-53.7985
-4954.67
-6335.76
-11535.3
-15299.9
-17420.2
-19907.9
-21643.9
-20099.4
-16434.6
-12824.8
-10095.9
-8204.87
-6903.21
-5888.79
-5021.79
-4247.59
-3539.32
-2888.39
-2313.88
-1833.85
-1450.1
-1153.39
-924.388
-739.767
-585.762
-455.683
-338.146
-228.068
-121.451
-48.4858
-5944.71
-8011.93
-12838.8
-15900.5
-17883.5
-20098.6
-21173.1
-19505.3
-16167.8
-12847.8
-10229.7
-8319.81
-6963.92
-5903.6
-5014.29
-4253.83
-3581.05
-2954.29
-2383.25
-1890.12
-1484.36
-1163.35
-914.328
-717.346
-560.199
-428.437
-308.125
-199.385
-104.162
-44.4027
-7291.7
-9658.56
-13529.6
-15837.1
-17445.6
-19130.9
-19858.1
-18645.6
-16039.4
-13104.6
-10490.8
-8432.38
-6966.79
-5874.47
-4971.82
-4226.95
-3591.4
-2992.3
-2431.2
-1936.89
-1523.62
-1189.65
-924.627
-713.558
-549.26
-412.416
-287.305
-179.685
-94.4803
-41.7051
-8446.81
-10578.9
-13559.9
-15373.2
-16691.5
-17990.2
-18783.2
-18383.8
-16396.8
-13485
-10681.6
-8403.71
-6869.73
-5810.55
-4931.35
-4197.24
-3601.48
-3030.57
-2478.93
-1984.6
-1567.47
-1227.68
-952.663
-732.16
-561.73
-418.315
-287.081
-175.509
-88.1623
-36.7822
-8806.45
-10292.9
-12969.9
-14728.8
-15971.1
-17218.7
-18261.1
-18330.7
-16691.1
-13771.5
-10788.3
-8300
-6823.31
-5803.57
-4945.24
-4206.05
-3650.31
-3097.42
-2546.04
-2047.69
-1627.19