/*--------------------------------*- C++ -*----------------------------------*\
| =========                 |                                                 |
| \\      /  F ield         | OpenFOAM: The Open Source CFD Toolbox           |
|  \\    /   O peration     | Version:  2512                                  |
|   \\  /    A nd           | Website:  www.openfoam.com                      |
|    \\/     M anipulation  |                                                 |
\*---------------------------------------------------------------------------*/
FoamFile
{
    version     2.0;
    format      ascii;
    arch        "LSB;label=32;scalar=64";
    class       surfaceScalarField;
    location    "40";
    object      phi;
}
// * * * * * * * * * * * * * * * * * * * * * * * * * * * * * * * * * * * * * //

dimensions      [0 3 -1 0 0 0 0];

oriented        oriented;

internalField   nonuniform List<scalar> 
278528
(
2.7118
0.279763
-1.36142
5.2455
1.22498
-3.74611
7.6146
1.99383
-4.34612
8.42379
1.2174
-1.99702
7.04902
0.328835
1.11436
5.073
1.07658
1.01194
2.09052
2.17224
0.974669
-2.30206
2.20081
2.36753
-4.89887
0.711337
2.03595
-5.33184
-0.609879
1.13731
-5.03067
-1.08146
0.840135
-4.67102
-1.13956
0.825668
-4.34521
-1.08542
0.808104
-3.97918
-1.05865
0.74266
-3.60927
-0.994872
0.666022
-3.2515
-0.927101
0.612282
-2.92024
-0.869558
0.583133
-2.63996
-0.781301
0.545162
-2.4173
-0.679711
0.49795
-2.24702
-0.547974
0.412934
-2.10506
-0.409381
0.295776
-1.97085
-0.331066
0.217723
-1.79911
-0.338472
0.179768
-1.65352
-0.310339
0.171256
-1.52728
-0.311805
0.18535
-1.3852
-0.362509
0.210984
-1.31284
-0.360263
0.266049
-1.33728
-0.301246
0.291782
-1.36156
-0.3026
0.292829
-0.357126
0.229612
3.32969
0.334122
-1.75453
5.79054
1.57553
-2.7938
7.22338
0.809735
-0.224135
7.54961
-1.07915
2.0139
4.53999
0.953638
2.46643
-0.491521
4.01166
2.18769
-4.43044
4.4219
1.77649
-6.09437
3.2358
0.725743
-6.26556
1.64178
-0.664014
-5.89917
0.49958
-1.40653
-5.36084
-0.124417
-1.45063
-4.86242
-0.562569
-1.03916
-4.49769
-0.850353
-0.559288
-4.12415
-1.13921
-0.251011
-3.73073
-1.31529
-0.0354311
-3.35909
-1.41478
0.154013
-3.04176
-1.44737
0.298379
-2.75514
-1.38845
0.356574
-2.49082
-1.26477
0.354357
-2.28042
-1.03951
0.31169
-2.12594
-0.788793
0.251249
-1.95906
-0.668945
0.191174
-1.75699
-0.655045
0.126687
-1.54432
-0.602558
0.0853054
-1.3513
-0.569553
0.0654051
-1.19945
-0.563444
0.044616
-1.07583
-0.529279
0.0347755
-0.927392
-0.473911
0.00784854
-0.762004
-0.458484
-0.0262616
-0.470552
-0.0514322
3.64705
0.486127
-2.16962
5.70627
1.19869
-1.65556
6.29043
-0.95565
1.21083
2.72646
-0.72821
3.2705
-3.09728
3.46107
3.38033
-6.60326
5.25294
2.31574
-7.68111
4.86292
0.692926
-7.26156
3.87328
-0.996104
-6.54132
3.07485
-2.09241
-5.85972
2.53242
-2.66709
-5.07888
1.96916
-2.84323
-4.31605
1.3607
-2.65977
-3.80828
0.863202
-2.19073
-3.44776
0.189861
-1.65462
-3.18772
-0.400478
-1.14085
-2.99515
-0.870566
-0.701669
-2.83079
-1.19524
-0.381011
-2.64064
-1.3549
-0.190801
-2.39653
-1.39732
-0.0815694
-2.13057
-1.28674
0.0081549
-1.91239
-1.085
0.101027
-1.75644
-0.95158
0.144562
-1.59098
-0.889477
0.0804937
-1.35918
-0.784259
-0.0439615
-1.11946
-0.659858
-0.147882
-0.939834
-0.562471
-0.183956
-0.792318
-0.503565
-0.182737
-0.626356
-0.472916
-0.181891
-0.431894
-0.45641
-0.21137
-0.436569
-0.25722
3.74562
0.782607
-2.41462
4.6584
1.28943
-0.977858
1.98816
-0.433225
2.18751
-2.99021
0.589505
3.71788
-6.34004
3.33868
3.5196
-7.9478
4.22293
2.68049
-8.3193
4.2097
1.06355
-7.7646
3.99868
-0.637089
-6.88495
3.95678
-1.72046
-6.07087
3.99752
-2.2494
-5.18205
3.54964
-2.44574
-4.23661
2.98599
-2.54663
-3.54172
2.71209
-2.51738
-3.04308
2.01217
-2.2934
-2.72065
1.22476
-1.91816
-2.53332
0.453183
-1.47843
-2.40809
-0.201616
-1.08416
-2.27736
-0.66329
-0.790872
-2.11341
-0.951018
-0.582056
-1.91747
-1.05758
-0.401144
-1.74036
-1.03183
-0.209745
-1.59217
-1.0137
-0.0694387
-1.42073
-0.977704
-0.0718926
-1.22678
-0.822113
-0.149494
-1.04888
-0.61891
-0.216417
-0.887348
-0.473541
-0.252968
-0.718818
-0.40304
-0.27788
-0.534158
-0.362609
-0.309514
-0.300029
-0.335277
-0.369995
-0.302819
-0.421462
3.63418
1.3481
-2.58352
3.07011
2.13981
-0.26705
-0.319829
0.183084
2.81387
-3.64993
0.107644
3.85758
-5.57595
0.986266
4.32397
-7.02623
1.57755
4.13076
-7.99785
2.19577
3.0148
-8.0154
2.72122
1.32775
-7.26181
3.3293
-0.0933564
-6.44279
4.17808
-0.97676
-5.4871
3.90576
-1.29316
-4.43815
3.52667
-1.56818
-3.585
3.77449
-1.89282
-2.97516
3.3735
-1.94769
-2.56345
2.66723
-1.83236
-2.34092
1.85138
-1.59421
-2.23236
1.05695
-1.33693
-2.12679
0.358284
-1.09747
-1.97217
-0.165964
-0.912221
-1.78084
-0.493757
-0.731629
-1.59975
-0.659774
-0.534128
-1.46385
-0.772004
-0.362601
-1.34405
-0.792889
-0.293787
-1.20883
-0.646801
-0.303411
-1.06591
-0.436532
-0.321899
-0.917549
-0.286927
-0.336442
-0.747937
-0.213593
-0.36712
-0.55557
-0.156752
-0.412397
-0.335596
-0.10276
-0.466671
-0.0954322
-0.496908
3.23453
2.05828
-2.34222
1.23939
3.65164
0.495488
-2.66364
0.76576
3.35365
-4.90404
-1.47954
3.86208
-5.70731
-2.50655
4.32966
-6.02339
-2.83573
4.75448
-6.408
-2.16683
4.76775
-6.89627
-0.70644
3.94333
-6.96117
0.952656
2.47601
-6.76703
3.15107
0.855407
-5.93836
2.74058
0.362824
-4.53264
2.1396
0.00909093
-3.73388
3.92304
-0.923307
-3.13983
4.02992
-1.23068
-2.67954
3.47147
-1.2485
-2.40537
2.77191
-1.17491
-2.27504
2.05184
-1.10195
-2.17065
1.29776
-1.01913
-2.01373
0.64447
-0.942936
-1.80921
0.168066
-0.843838
-1.60345
-0.132763
-0.714505
-1.45163
-0.321581
-0.58811
-1.34953
-0.376556
-0.507683
-1.2496
-0.273408
-0.465441
-1.13176
-0.115745
-0.434051
-1.00033
-0.00356496
-0.415194
-0.842152
0.0441877
-0.4229
-0.64703
0.0751758
-0.440344
-0.418434
0.10504
-0.450712
0.0844172
-0.44035
2.90236
2.47806
-1.72859
0.156295
4.90475
1.4987
-4.54581
1.43722
4.05663
-7.4369
-2.09557
3.53292
-8.66975
-4.13536
2.88514
-8.64232
-5.5149
2.66872
-7.83713
-6.1337
3.17537
-6.6688
-5.86062
4.01313
-5.37234
-4.38299
4.08137
-5.19753
-0.551704
2.5455
0.438268
-0.0699843
0.641337
-4.84173
-0.0340851
2.26553
-0.540755
0.475547
0.242945
-3.78743
-0.833516
2.13445
-0.713436
0.181327
0.344063
-3.71485
0.588185
0.293869
0.736473
1.0719
1.18438
-3.39348
0.865852
-0.479108
0.851791
1.25623
1.22951
-2.99121
3.62918
-0.550668
-2.68462
3.05329
-0.573786
-2.50077
2.5499
-0.663999
-2.35485
1.92241
-0.751119
-2.15707
1.26641
-0.799878
-1.91982
0.759299
-0.809602
-1.69064
0.426128
-0.772159
-1.52946
0.23552
-0.705482
-1.43355
0.168013
-0.629958
-1.34932
0.207314
-0.556657
-1.25623
0.272968
-0.476906
-1.15071
0.295293
-0.40403
-1.02267
0.263073
-0.352394
-0.872161
0.225623
-0.312716
-0.746275
0.23147
-0.265221
0.135416
-0.225667
2.89754
2.21876
-1.05345
0.512594
5.30036
1.99124
-4.52035
1.51176
4.97818
-8.24025
-2.12042
3.76496
-10.0106
-4.19837
1.85061
-10.2913
-5.43068
0.209467
-9.89276
-5.97255
-0.541668
-9.01052
-6.5013
-0.207037
-1.35076
-2.73972
1.41418
-1.76319
-1.80939
-2.0356
-3.32162
-0.919012
-0.836372
-0.847806
-1.80405
0.753898
-0.782779
-0.469228
0.332365
0.907075
0.589112
-0.397325
-1.49975
0.486677
0.44669
-0.589858
0.430617
0.314624
0.642415
-0.644565
0.759636
0.114371
-3.27537
3.43522
0.112602
0.69447
0.653245
1.01636
0.995676
-3.04402
2.80727
0.0249226
-2.83143
2.60206
-0.249681
-2.62963
2.23622
-0.499395
-2.36793
1.6798
-0.658814
-2.07727
1.24332
-0.759598
-1.82152
0.975258
-0.792142
-1.65687
0.825137
-0.743675
-1.57448
0.732265
-0.637412
-1.51892
0.669248
-0.510205
-1.47452
0.603626
-0.370322
-1.4436
0.510217
-0.244653
-1.4169
0.40492
-0.172168
-1.36871
0.319258
-0.150132
-1.27176
0.251697
-0.125657
0.106419
-0.0869898
2.88959
1.46245
-0.555312
1.26365
5.17026
1.74996
-3.98189
1.37921
5.39016
-8.23004
-2.03675
4.17843
-10.0344
-3.99989
1.61974
-10.0714
-4.89556
-0.483317
-9.42156
-4.69899
-1.90416
-2.1641
-4.13073
-3.25241
-2.14846
-2.25522
-1.93284
-2.03523
-2.13875
-0.72125
-1.62021
-3.6846
0.285724
2.97316
2.05052
-0.767695
-0.266792
1.13612
0.614409
-0.171426
-0.144309
-0.16345
-0.2064
-0.222324
0.221145
1.89716
-0.459346
-0.597235
-0.423742
-0.517324
0.071114
0.00611673
-0.0109601
0.0865529
0.561239
-0.57289
-0.105235
0.0487981
0.0206184
0.0573461
-0.0490668
-0.0288293
0.0488617
-0.0149452
0.0806768
0.578037
-0.680575
-0.658762
0.136252
0.247224
0.247677
0.135186
0.00896842
-0.033602
-0.0163085
0.0145485
-3.99014
2.84089
0.268154
0.865296
0.873468
1.26464
1.30747
-3.34322
1.74163
0.426199
-3.134
2.27561
0.129899
-2.94486
2.37989
-0.318716
-2.6396
1.9783
-0.589639
-2.30981
1.66193
-0.735613
-2.03464
1.47874
-0.767957
-1.87664
1.34464
-0.668544
-1.82132
1.18521
-0.500552
-1.81598
0.999662
-0.329401
-1.83483
0.811308
-0.184274
-1.85297
0.639006
-0.108924
-1.83029
0.49505
-0.115195
-1.74617
0.375352
-0.146679
-1.61794
0.258621
-0.142083
0.0960768
-0.103649
2.74813
0.707367
-0.430307
1.77758
4.92817
1.2022
-3.58099
1.67097
5.06599
-8.02245
-1.78144
4.19536
-10.0133
-3.4054
1.4076
-10.6446
-3.71604
-0.536225
-10.7966
-3.17415
-1.35051
-2.65686
-2.15926
-2.16162
-3.207
-2.15551
-2.54717
-2.3812
-0.468253
-0.869928
1.079
1.0808
0.613706
-0.573592
-0.73839
-0.379326
0.0971961
0.0609842
-0.0487269
-0.196179
0.0305179
-0.00213702
0.0355045
0.0180995
0.648665
-0.292685
0.2321
-0.579674
0.00127866
-0.00448865
-0.00646636
0.00312907
0.123512
-0.0928216
-0.124604
0.255105
-0.0424549
-0.0385528
-0.0134375
-0.0483688
0.113341
-0.148716
0.229984
-0.113348
-0.0864423
-2.3799
4.10694
1.12046
0.459284
-1.49217
0.915199
0.105884
-3.45124
1.45827
1.36206
-3.35045
1.55061
0.636083
-3.26222
2.45769
-0.153313
-2.94362
2.23448
-0.56224
-2.60364
2.03043
-0.697158
-2.33938
1.88263
-0.658415
-2.2083
1.70609
-0.48447
-2.17356
1.46391
-0.306544
-2.1753
1.19104
-0.183866
-2.17063
0.938677
-0.127689
-2.12072
0.734592
-0.143593
-2.00973
0.576233
-0.193906
-1.85708
0.444583
-0.227446
-1.68949
0.313065
-0.228286
0.160412
-0.21113
2.65363
0.310692
-0.707845
2.7362
4.25817
0.56765
-1.92536
2.63779
3.69206
-6.3166
-1.19264
3.81269
-8.48504
-2.98214
1.75413
-9.32942
-2.21501
-0.644528
-10.0238
-1.13796
-1.32411
-2.8736
-0.155197
-2.07323
-2.21617
-2.5588
-2.27261
-0.0152716
-2.69161
-0.36505
0.222324
-0.0987668
0.715743
-0.726876
0.164496
-0.0405004
0.682771
-0.152455
0.111908
-0.654431
0.0102152
-0.000341392
0.0138354
-0.00802791
0.215031
-0.0519964
0.0160888
-0.362328
0.182981
-0.089169
-0.2921
0.120879
-0.112355
0.375635
2.22117
5.41513
1.69004
-2.22601
-1.66602
-0.711637
-0.619748
-1.47092
2.75178
2.40478
-3.2087
1.94109
1.35894
-3.50943
2.72167
0.0482714
-3.24876
2.50552
-0.520449
-2.92694
2.33942
-0.620439
-2.69482
2.17388
-0.514322
-2.58573
1.93787
-0.33326
-2.53785
1.64753
-0.224989
-2.49712
1.35833
-0.202617
-2.43545
1.1114
-0.230228
-2.33059
0.920108
-0.288362
-2.1809
0.773961
-0.34864
-2.00868
0.658442
-0.390704
-1.83688
0.550387
-0.414354
0.423613
-0.433578
2.71237
0.0611006
-0.916845
4.18593
3.28465
-0.525151
1.09579
3.68612
2.03641
-3.26733
0.316814
2.86227
-5.81762
-2.80518
2.38199
-6.39521
-1.58606
-0.044264
-6.62696
0.156854
-1.04731
-1.99055
1.30003
-1.8289
-1.67399
-1.54107
-1.02306
0.607162
-1.87113
-0.16314
-0.551821
0.00921194
-0.468884
-0.824995
0.272133
0.229721
0.424063
-0.447305
-0.282145
-0.304193
-0.390897
1.80675
0.202245
0.276414
-0.176483
-0.250944
-0.0472552
0.288933
-0.0131362
-0.00326109
-0.131579
-0.151196
0.18484
-0.0248657
0.0050168
-0.118148
-0.0429649
-0.320327
-0.000434635
-0.166141
0.137001
0.350927
2.58693
4.13786
1.49655
-1.10804
-0.735095
-0.501891
-0.464186
-0.700572
3.50197
2.54384
-3.28571
2.98209
1.55361
-3.77068
3.07581
0.141002
-3.54937
2.75728
-0.462824
-3.25753
2.58799
-0.530769
-3.0524
2.39073
-0.413374
-2.94235
2.12282
-0.287562
-2.86499
1.83404
-0.257499
-2.77583
1.56581
-0.291388
-2.66315
1.34931
-0.346484
-2.5149
1.18025
-0.406243
-2.33273
1.05061
-0.459581
-2.13328
0.955894
-0.500675
-1.94299
0.883806
-0.527973
0.794722
-0.559029
2.78825
-0.167233
-1.01648
5.44197
2.47815
-1.8676
4.97433
3.86207
0.287805
1.48254
2.37632
1.44259
-2.66304
-1.649
2.99611
-4.63637
-1.81075
2.2073
-5.06912
0.645171
-0.0379765
-4.90123
2.32378
-1.16135
-1.36014
3.29412
-2.97509
-0.42156
-0.280421
-0.36013
-0.36145
-1.38569
-0.499564
-0.508961
-0.263704
-1.23046
0.87775
-0.718018
-1.11824
-0.497613
1.64112
-0.878007
0.868251
-1.0851
-0.122747
0.725846
1.54839
-1.05655
-0.550501
-0.649693
0.526876
0.763285
-0.0546627
-1.09607
-0.365065
0.474159
0.885952
0.0936793
0.920088
3.45948
1.46781
-0.530948
-0.630158
-0.303132
-0.23808
-1.83846
3.97892
2.28938
-3.80645
3.65859
1.29965
-4.0716
3.26225
0.0881243
-3.8232
2.92394
-0.405413
-3.53799
2.74299
-0.430849
-3.33237
2.52552
-0.331754
-3.19299
2.25399
-0.262874
-3.05851
1.9754
-0.269235
-2.91521
1.72928
-0.301214
-2.75519
1.53047
-0.336734
-2.57161
1.37078
-0.371592
-2.36889
1.25127
-0.403674
-2.15705
1.17046
-0.429541
-1.96166
1.12731
-0.442486
1.08519
-0.458577
2.7052
-0.386293
-0.926977
5.53339
1.05101
-1.42091
7.50243
2.89459
-1.00245
6.66569
2.79402
0.431434
1.90623
-0.598909
3.71862
-2.39028
-1.88767
4.39656
-3.7313
0.513842
1.48877
-3.98681
4.01625
-1.40846
-3.73389
6.21377
-3.13126
-2.72448
7.97012
-3.5469
-1.34173
-1.65294
-1.00174
-1.37958
-1.02857
8.3766
-3.03167
-1.83514
-1.88821
-1.6215
-1.66835
0.425364
4.87971
-1.48877
-1.57703
-1.33159
-1.09665
-0.806924
1.09795
2.19644
-0.0944132
-0.717869
-1.03805
-0.0663252
-0.911272
0.302264
2.68171
1.02217
-0.871145
-0.522577
-0.894404
-0.594679
-1.53929
3.75326
1.55839
-3.4342
4.10717
1.77463
-4.3634
3.7116
0.884434
-4.33859
3.22563
0.0211541
-4.03382
2.93983
-0.311003
-3.75352
2.76005
-0.287755
-3.55129
2.52883
-0.196388
-3.39064
2.2481
-0.146413
-3.2204
1.95859
-0.145956
-3.02687
1.69583
-0.153566
-2.8073
1.48764
-0.171405
-2.57419
1.34529
-0.204476
-2.34189
1.26474
-0.245761
-2.12405
1.22894
-0.279083
-1.93764
1.22385
-0.286061
1.21927
-0.272983
3.09841
-0.966498
-0.947111
4.61216
-1.58261
1.1059
5.82858
-0.519047
2.20884
5.36698
-0.484133
3.75746
2.44915
-2.33615
4.6834
-0.637306
-2.38648
3.6169
-2.15862
3.36391
-1.3066
-3.16431
7.40035
-2.34378
-3.60335
9.06544
-2.36777
-2.82038
9.61644
-2.39263
-1.18367
8.14156
-1.376
-0.340365
3.99849
0.0641452
-1.14811
2.09798
0.928071
-2.53018
2.92789
1.15022
-3.75627
3.5692
1.4202
-4.56005
3.67753
1.24197
-4.74991
3.31944
0.590901
-4.52655
2.94781
0.0641836
-4.16647
2.70181
-0.111848
-3.8164
2.47001
-0.0495307
-3.49088
2.17078
0.042966
-3.19585
1.85112
0.111968
-2.93312
1.54875
0.156615
-2.70596
1.28556
0.191784
-2.51939
1.10372
0.204495
-2.37078
1.0254
0.175474
-2.23168
1.02328
0.102791
-2.06295
1.0437
0.0136653
-1.86295
1.05536
-0.0347337
1.09705
-0.0176124
3.82978
-1.64452
-1.56735
4.34522
-3.62847
1.53404
3.48723
-4.03686
4.39032
1.5634
-3.7555
5.22552
0.794986
-0.813685
-0.72805
-0.37154
2.0332
-3.22573
-1.82781
6.74048
-1.88839
-3.46633
9.65294
-0.576297
-4.1414
10.4156
-0.636561
-3.11259
9.21142
-0.590524
-1.55386
5.98255
0.622355
-1.88554
2.80301
1.54564
-3.36426
2.08378
1.50685
-4.31328
2.57789
1.31069
-4.85303
2.89454
1.22462
-4.95652
2.85908
0.931478
-4.75044
2.58531
0.537895
-4.33145
2.26294
0.276384
-3.79967
1.95434
0.226904
-3.24356
1.60681
0.318954
-2.73157
1.24801
0.423152
-2.32057
0.951165
0.501537
-2.0285
0.721759
0.54718
-1.84557
0.551432
0.562527
-1.75882
0.477341
0.548869
-1.7475
0.515053
0.504228
-1.7556
0.606453
0.425057
-1.69599
0.659234
0.321283
-1.52008
0.641773
0.233591
0.752545
0.189361
3.94642
-1.6155
-2.38474
4.33107
-3.86212
-0.154518
2.4042
-4.49266
2.40434
0.0430699
-1.64523
0.301068
0.0799971
3.19393
-4.00578
-0.721921
4.3301
-1.45966
-2.36512
6.91378
1.50148
-4.2456
9.12059
2.44599
-4.58965
9.47585
1.31569
-2.95794
6.5882
1.01493
-1.88626
2.95812
1.97297
-3.08236
1.91263
2.09917
-4.25136
1.6072
1.65576
-4.79719
1.76945
1.36521
-4.91104
1.87308
1.146
-4.6647
1.72839
0.89492
-4.22927
1.46894
0.691899
-3.67964
1.13965
0.585342
-3.11348
0.815781
0.585029
-2.64818
0.51819
0.636783
-2.3505
0.28873
0.675533
-2.18166
0.110583
0.685313
-2.06401
-0.0494761
0.666024
-1.94971
-0.168823
0.616872
-1.80191
-0.210299
0.548357
-1.61741
-0.15625
0.491308
-1.44636
-0.0205099
0.455226
-1.31913
0.113195
0.413021
-1.1638
0.13552
0.344002
0.289922
0.237749
3.78432
-1.02023
-2.79197
4.26431
-2.89373
-1.44005
2.11419
-2.50819
0.194529
0.0606914
0.939501
-0.477806
-0.0533067
3.37589
-0.0360874
-1.00917
1.9348
3.37583
-2.85511
3.66166
5.12127
-4.632
6.51219
4.4086
-4.19518
6.65205
2.41037
-2.09404
2.83611
1.67061
-2.06091
0.663032
2.27555
-3.68634
1.41331
2.1332
-4.60687
0.902428
1.63147
-4.96594
0.812976
1.32442
-4.91669
0.801666
1.03241
-4.60768
0.637024
0.79342
-4.22279
0.455536
0.640438
-3.85804
0.240201
0.547304
-3.56858
0.0482161
0.491288
-3.34229
-0.134079
0.439078
-3.12846
-0.290411
0.378005
-2.90543
-0.415039
0.314614
-2.68618
-0.504311
0.246664
-2.46667
-0.550296
0.171698
-2.23425
-0.542921
0.107557
-1.99048
-0.481808
0.0853637
-1.72597
-0.391066
0.104386
-1.42742
-0.315337
0.12297
-1.18314
-0.244714
0.127519
-0.0556925
-0.00478935
3.75622
-0.559775
-2.62461
4.5617
-1.87235
-1.82226
3.857
-1.46245
-0.311356
2.1637
0.340786
2.33617
0.857935
1.18747
3.53285
-0.717128
-0.464613
4.03002
-2.65874
0.62381
5.03444
-3.79217
3.10204
4.59208
-3.22716
2.89864
3.23261
-3.17569
0.486856
2.33846
-4.56299
-0.161012
2.23614
-5.65718
0.636637
1.88171
-6.27411
0.320303
1.20902
-6.27786
0.128518
0.699453
-5.90524
0.074835
0.366724
-5.38689
-0.0178819
0.149986
-4.8399
-0.0993157
0.0217945
-4.32885
-0.18998
-0.066893
-3.86315
-0.267356
-0.136419
-3.45705
-0.334096
-0.19329
-3.11122
-0.381936
-0.242601
-2.81394
-0.411188
-0.290588
-2.54837
-0.423374
-0.337193
-2.29767
-0.418396
-0.374811
-2.04763
-0.393053
-0.394383
-1.79129
-0.346435
-0.389874
-1.5216
-0.288653
-0.375208
-1.22155
-0.244791
-0.378652
-0.917893
-0.207647
-0.350659
-0.0504122
-0.472533
3.47083
-2.43933
4.27697
-2.67538
4.55998
-1.73014
4.2303
0.693925
3.18577
2.25687
0.0359002
2.71857
-2.33821
3.03962
-2.47087
3.26712
-3.35299
3.8089
-5.7828
2.9342
-7.15951
1.22369
-7.36102
0.843525
-7.13438
0.0976869
-6.62838
-0.372205
-6.00734
-0.539928
-5.37321
-0.645123
-4.76488
-0.700339
-4.21808
-0.729418
-3.73849
-0.739744
-3.33364
-0.732095
-2.99525
-0.713944
-2.70668
-0.693936
-2.44741
-0.677478
-2.19915
-0.662415
-1.9493
-0.64012
-1.69518
-0.600078
-1.43316
-0.553095
-1.14445
-0.538408
-0.870362
-0.486549
-0.616783
3.29154
0.0582567
-3.06199
5.66268
-0.396659
-5.69336
7.68073
-0.79284
-5.54442
8.56255
-1.1872
-1.64368
7.2098
-0.0652601
2.59942
2.74173
1.42798
4.14189
-3.00489
1.88215
4.9358
-6.42387
0.756939
5.11256
-7.09131
-0.18522
2.96174
-6.50006
-0.650699
1.25385
-5.85664
-0.555893
0.789065
-5.41527
-0.374328
0.786271
-5.05997
-0.283578
0.767916
-4.6648
-0.342064
0.72179
-4.25899
-0.439139
0.727417
-3.85306
-0.557108
0.79302
-3.44943
-0.647451
0.857843
-3.05472
-0.682871
0.864031
-2.67408
-0.649252
0.796202
-2.35637
-0.514351
0.637489
-2.10777
-0.354202
0.426647
-1.85454
-0.304548
0.289488
-1.58566
-0.356995
0.281316
-1.35583
-0.385063
0.333297
-1.19129
-0.373912
0.396116
-1.06928
-0.348645
0.434112
-0.981758
-0.286932
0.457256
-0.925192
-0.196529
0.420409
-0.812836
-0.173497
0.34392
-0.207142
0.328228
3.94953
-0.263503
-3.73996
5.99361
-1.10293
-4.0969
7.27098
-2.22695
-0.034109
4.09987
-0.552791
4.58679
-3.03142
3.11826
6.46177
-7.54072
3.09149
5.07909
-8.18986
1.2078
3.15077
-7.45129
-0.00199186
0.806165
-6.59714
-0.390812
-1.25238
-5.87999
-0.32722
-2.40638
-5.15891
-0.0463042
-2.65765
-4.56522
0.196639
-2.18372
-4.17707
0.322595
-1.52838
-3.87862
0.161703
-1.02476
-3.61896
-0.0961985
-0.611363
-3.35517
-0.394637
-0.242939
-3.06949
-0.659814
0.0557525
-2.77948
-0.855306
0.268452
-2.48961
-0.960144
0.402485
-2.20998
-0.909685
0.451977
-1.95141
-0.751373
0.411509
-1.69587
-0.657713
0.306567
-1.4542
-0.661294
0.201615
-1.24961
-0.628347
0.130944
-1.07599
-0.558751
0.0785974
-0.925019
-0.499577
0.0416994
-0.804478
-0.43652
0.0560049
-0.704699
-0.363346
0.0633811
-0.599035
-0.317922
0.00203339
-0.302251
-0.0406486
3.83377
-0.337063
-4.28752
3.70133
-0.979672
-1.60558
-0.576126
-0.977282
4.26719
-6.05487
1.81174
6.41004
-9.02634
3.6407
5.85851
-9.43809
2.24417
3.61212
-8.84718
0.422731
0.928569
-7.934
-0.326021
-1.54043
-6.78187
-0.157811
-3.43676
-5.70085
0.402922
-4.45065
-4.66792
0.852436
-4.75804
-3.81338
1.24205
-4.54478
-3.20345
1.51268
-3.9725
-2.79652
1.35115
-3.23087
-2.52621
0.977288
-2.46371
-2.31787
0.481758
-1.76217
-2.12888
-0.00058054
-1.20181
-1.97202
-0.403393
-0.771908
-1.84791
-0.711329
-0.427657
-1.69993
-0.897852
-0.127626
-1.50353
-0.934729
0.108282
-1.27211
-0.919757
0.191472
-1.01432
-0.945157
0.118251
-0.77244
-0.896988
-0.0102836
-0.580811
-0.760625
-0.135284
-0.448331
-0.608052
-0.210031
-0.346328
-0.498999
-0.22896
-0.242853
-0.435161
-0.223666
-0.119916
-0.394742
-0.266565
-0.354231
-0.317815
2.91342
0.271483
-4.29628
0.0435617
0.614135
0.336131
-5.2753
0.333471
6.21608
-8.93914
1.69092
7.52104
-9.93352
1.97192
6.20775
-9.64912
0.860311
3.80953
-9.0335
-0.0352307
0.939515
-8.09655
-0.137993
-1.72443
-6.89485
0.397938
-3.4448
-5.7696
1.14307
-4.09185
-4.66963
1.5955
-4.27342
-3.62324
2.02012
-4.35624
-2.78686
2.49802
-4.32256
-2.16392
2.49921
-4.04691
-1.73676
2.21816
-3.56873
-1.46319
1.72115
-2.97096
-1.30169
1.13876
-2.36153
-1.21075
0.545511
-1.80578
-1.16546
0.0174328
-1.33095
-1.12387
-0.423018
-0.895127
-1.0296
-0.720561
-0.499099
-0.87294
-0.898254
-0.232144
-0.697909
-1.01412
-0.1669
-0.540128
-0.984255
-0.213419
-0.405738
-0.818953
-0.289854
-0.27757
-0.633395
-0.357144
-0.132447
-0.511659
-0.415794
0.0186483
-0.439825
-0.464081
0.172743
-0.388569
-0.537418
-0.326485
-0.572714
1.33537
1.65523
-3.66716
-3.06925
1.90354
2.87171
-7.40233
-0.423701
7.91835
-9.78187
-0.703826
8.64631
-10.5103
-0.500004
7.54407
-10.4348
-0.569358
5.50713
-9.70256
-0.542318
2.81675
-8.60195
-0.0832559
0.205168
-7.3872
0.676321
-1.55281
-6.30182
1.46658
-2.36334
-5.15687
1.81267
-2.63627
-4.00138
2.18125
-2.86345
-2.97367
2.79565
-3.19837
-2.18234
3.09079
-3.3142
-1.55442
3.03252
-3.25919
-1.08571
2.72692
-3.05089
-0.793807
2.24994
-2.72016
-0.654038
1.63572
-2.30607
-0.63867
0.983472
-1.87134
-0.666703
0.345306
-1.45094
-0.657725
-0.188946
-1.05729
-0.593303
-0.566198
-0.745428
-0.525683
-0.789796
-0.575927
-0.465766
-0.825096
-0.516197
-0.398533
-0.692089
-0.513169
-0.299891
-0.52748
-0.541837
-0.158433
-0.417703
-0.607245
0.00103418
-0.342566
-0.676701
0.163753
-0.278855
-0.74611
-0.211948
-0.736421
0.171205
3.31109
-2.54892
-5.0367
3.16512
4.45557
-9.12895
-1.41743
8.45032
-11.1068
-3.23935
8.38679
-11.7231
-3.15456
7.61535
-11.6026
-2.64073
6.72231
-10.8335
-1.76294
5.23859
-9.60229
-0.652698
3.31463
-8.13698
0.454108
1.27206
-6.99421
1.49849
-0.291602
-5.82576
1.83557
-0.812099
-4.44151
1.97335
-1.14965
-3.44307
2.75773
-1.86453
-2.57875
3.1855
-2.17081
-1.83642
3.31888
-2.26417
-1.21691
3.26121
-2.31322
-0.771612
3.0145
-2.29422
-0.51713
2.51676
-2.13619
-0.450744
1.8557
-1.86262
-0.489527
1.11997
-1.56106
-0.521006
0.436469
-1.29194
-0.524583
-0.0817751
-1.05582
-0.537251
-0.385417
-0.889842
-0.556919
-0.483856
-0.780836
-0.54858
-0.417823
-0.713779
-0.485245
-0.307765
-0.698728
-0.369303
-0.225463
-0.735141
-0.230969
-0.159347
-0.769109
-0.0895087
-0.0937604
-0.78437
-0.044853
-0.717386
0.554947
4.25318
-1.61742
-4.58271
4.81046
4.999
-8.81135
-1.16605
8.04251
-10.9496
-4.29467
6.73571
-11.7652
-4.8183
5.37669
-11.9856
-4.67214
4.93269
-11.4421
-3.78286
4.6724
-10.1357
-2.14958
4.23895
-8.52985
-0.206264
3.17286
-7.45381
0.324201
1.61681
0.524905
0.248568
0.276354
-6.39792
0.624538
1.02444
0.545839
0.450869
0.417889
-4.84823
0.551767
0.607492
0.583604
0.424057
0.411451
-3.78006
0.75325
-0.639728
0.777989
0.525301
0.587457
-3.00963
0.87814
-1.22712
0.885335
0.690069
0.724049
-2.24632
3.34307
-1.32917
-1.57483
3.47066
-1.44143
-1.04132
3.42439
-1.5914
-0.715616
3.0856
-1.62889
-0.590847
2.45914
-1.5115
-0.598372
1.69465
-1.36085
-0.634137
0.949688
-1.23509
-0.685616
0.395376
-1.11888
-0.754527
0.0725348
-1.00957
-0.82647
-0.062728
-0.899894
-0.855161
-0.0678952
-0.79511
-0.81359
-0.0212867
-0.732043
-0.709986
0.0234809
-0.708364
-0.575115
0.0649625
-0.678509
-0.430301
0.123943
-0.634592
0.171014
-0.536559
1.75779
4.01738
-0.978208
-2.43279
5.95961
5.03444
-6.54709
-0.110867
8.043
-8.40514
-3.89058
5.22725
-8.86873
-5.09142
2.59753
-9.31625
-5.8084
1.80677
-9.67874
-5.48977
1.54897
-9.51397
-3.88644
1.40486
-1.99796
-0.42331
1.60085
-2.00649
-2.04224
-1.99711
-0.0243554
-0.843568
-0.4981
-0.886388
-1.7994
0.410711
0.615221
-0.509006
-1.63759
0.596525
0.423696
1.76357
-0.645267
1.53835
-1.36739
0.506389
0.526288
-0.334029
1.1988
-1.04551
0.74453
0.194881
-0.038013
0.955088
-0.863346
0.905124
-0.0731615
-2.58791
3.51992
-0.645831
0.808581
0.813903
0.777414
0.775369
-1.91078
3.54997
-0.72096
-1.39506
3.65071
-0.977677
-1.10028
3.42751
-1.12088
-0.962638
2.78639
-1.10879
-0.933973
2.00701
-1.08661
-0.976165
1.30066
-1.08824
-1.05184
0.812261
-1.07425
-1.14538
0.532611
-0.995797
-1.22802
0.378363
-0.863313
-1.25899
0.314417
-0.718745
-1.2214
0.300905
-0.604027
-1.13601
0.296512
-0.533323
-1.04811
0.298229
-0.477136
-0.97477
0.326288
-0.407349
0.34567
-0.301239
2.82799
2.97926
-0.761135
-0.27898
6.36006
4.4522
-4.25088
0.833462
8.41919
-5.74112
-2.78826
4.57363
-5.84709
-4.08575
0.731128
-6.38085
-5.41914
-0.326465
-6.87838
-6.16162
-0.71113
-1.98106
-5.39132
-1.65238
-1.65092
-1.81967
-1.47306
1.01044
-1.97443
-0.704426
-0.711646
-1.75151
0.170288
-0.360703
0.378414
-0.3277
1.92016
-0.0976588
0.185382
1.64878
-0.430958
-0.395496
-0.396464
-0.384773
-0.406231
0.0669662
0.0816907
0.0866262
0.0719042
-0.107666
0.3748
-0.0762672
-0.352441
0.0139547
0.155345
0.294468
-0.114861
-0.169248
-0.265412
0.130981
0.127985
0.250267
-0.0423213
-0.231873
0.230541
0.0359543
-0.242332
-3.21661
3.66709
-0.369409
0.945894
0.985433
0.87584
0.900485
-2.37035
3.31864
-0.18028
-1.82998
3.74897
-0.496443
-1.55675
3.57813
-0.729017
-1.46321
2.92226
-0.805579
-1.46454
2.17406
-0.888562
-1.50874
1.57587
-0.987717
-1.57371
1.21094
-0.993405
-1.64485
0.979104
-0.869319
-1.70116
0.802255
-0.692447
-1.72125
0.68114
-0.528112
-1.70477
0.599126
-0.422853
-1.68522
0.533428
-0.373656
-1.70431
0.490289
-0.324514
-1.74027
0.461296
-0.246214
0.399147
-0.156589
3.32816
1.75676
-0.965616
1.4927
6.21258
3.17174
-2.15626
1.45466
8.0914
-3.12274
-2.64881
5.03223
-3.01483
-3.11059
0.339201
-4.00479
-3.56094
-1.38918
-5.11885
-4.67995
-1.69451
-1.48754
-4.45161
-2.65137
-1.75911
-1.17046
-1.10067
-1.41622
-1.30045
-0.936438
1.02387
1.17264
0.448034
0.0242049
0.345616
-0.326601
-0.0670458
-0.417321
0.083846
-0.00625318
0.0856311
-0.0762254
0.000281968
-0.0857705
0.00701028
0.00541373
0.0238573
-0.0224109
-0.00945527
-0.00118986
-0.000751193
-0.000855128
-0.00125479
0.00472957
0.00211319
0.0143407
-0.0136423
-0.00545892
-0.000492107
-0.00036694
-0.000627844
-0.000296054
0.00850033
0.00652012
-0.0127052
0.0122019
-0.00644224
-0.00839333
-3.97143
4.69772
0.207625
1.01185
0.85257
1.03766
0.950305
-3.16112
3.16653
0.711019
-2.3601
3.56857
0.0259581
-2.09547
3.61594
-0.443766
-2.07516
2.97695
-0.625179
-2.09512
2.31404
-0.805796
-2.11482
1.8594
-0.912472
-2.13246
1.59272
-0.840973
-2.15917
1.37126
-0.666338
-2.18427
1.15428
-0.506821
-2.19446
0.972451
-0.406071
-2.18957
0.825177
-0.373515
-2.1779
0.70354
-0.377182
-2.16301
0.607188
-0.36335
-2.12518
0.515214
-0.324429
0.405462
-0.278785
3.38765
0.672588
-1.45126
3.42313
5.20931
1.51779
0.232546
2.59273
5.73929
-1.02045
-2.80255
5.22869
-0.303322
-3.92965
1.87412
-1.24462
-1.90216
-1.34659
-3.36343
-1.95148
-1.91264
-2.13901
-1.11327
-2.68103
-2.04933
-1.01077
-0.843162
0.904635
-2.71169
-0.0304492
-0.788535
0.525125
0.143152
-0.299892
0.695823
-0.622388
-0.00585334
0.10228
-0.0058285
0.00307662
7.45565e-05
0.00599524
-0.00327055
-0.000106329
-2.43259
5.78132
0.628635
0.573624
0.51455
0.701398
0.621108
-2.99756
4.03059
2.11256
-2.87193
3.89366
0.917044
-2.66131
3.6561
-0.191804
-2.70609
3.04409
-0.531925
-2.71998
2.48201
-0.764449
-2.69425
2.14121
-0.813268
-2.66789
1.91445
-0.67463
-2.67179
1.66862
-0.51346
-2.68182
1.41288
-0.447494
-2.67443
1.18816
-0.45062
-2.64336
1.00216
-0.495243
-2.58733
0.847794
-0.549981
-2.5072
0.719562
-0.586614
-2.40807
0.602234
-0.604167
0.480096
-0.610337
3.30694
-0.254166
-1.73489
5.45339
3.4796
-0.961414
3.58702
3.75508
2.73962
0.273631
-1.23962
4.62355
0.45769
-5.0935
3.37398
1.10527
-2.37955
-0.195712
0.0148533
-0.50141
-1.39268
-0.741734
0.350331
-2.65426
-0.115901
0.0203681
0.2579
-0.386459
1.28303
-0.990034
0.356899
-0.972311
0.0968304
-0.0947002
-2.26401
2.02948
0.148014
-0.23951
-0.149554
-0.153804
-0.106923
0.00841063
-0.044153
0.804466
0.0659446
0.652843
0.149752
-0.179769
-0.68288
-0.160271
0.0575416
0.0498622
0.0505904
-0.0185301
0.00470416
0.00937939
-0.0109051
-0.00378479
0.0204381
-0.00615917
0.00444424
0.0223015
-0.0035846
-0.0241046
0.0072506
-0.0289655
0.00709389
0.052753
-0.0300962
0.110743
-0.0472732
-0.0305709
-0.0283519
-0.0294845
0.00613217
0.00879176
0.00848187
-1.32774
5.88411
1.2292
0.334264
0.247944
0.484369
0.43039
-2.86793
5.08434
3.03672
-3.35177
4.47138
1.46745
-3.25081
3.71498
-0.00901036
-3.29474
3.11119
-0.47617
-3.27089
2.63877
-0.702301
-3.184
2.33756
-0.688838
-3.13482
2.13844
-0.554483
-3.1092
1.84873
-0.458403
-3.07631
1.56267
-0.470309
-3.01595
1.31426
-0.530073
-2.92728
1.11071
-0.602028
-2.81289
0.942375
-0.66922
-2.67635
0.803298
-0.723809
-2.53356
0.69219
-0.763834
0.593552
-0.794146
3.28878
-1.09227
-1.89315
6.37511
1.48208
-2.97257
6.97256
3.79794
-0.350711
2.88065
0.718415
3.58644
0.152254
-4.51873
5.16053
0.853299
-3.30873
2.44624
1.11283
-0.678445
-0.111525
1.19334
1.46358
-2.33879
0.335835
3.38189
-5.44371
-0.289831
-0.528329
-0.140184
-0.472683
0.318141
0.57892
0.545753
-0.159082
1.4435
0.170357
0.561422
-1.65111
-0.493074
1.27947
-0.383164
0.948717
-1.48394
0.144568
-0.426973
1.13938
0.377847
-0.506913
0.892767
-0.873434
-0.232835
-0.22066
-0.134923
-0.084522
-0.110465
0.689878
-0.760225
0.763944
-0.0627809
-0.138291
-0.103578
-0.172155
-0.355256
0.0645091
0.671227
-0.36949
1.39192
-0.276121
-0.372442
-0.37366
-0.379524
-2.02008
6.03767
2.11326
0.206535
0.219881
0.40075
0.401903
-3.59714
5.77595