/*--------------------------------*- C++ -*----------------------------------*\
| =========                 |                                                 |
| \\      /  F ield         | OpenFOAM: The Open Source CFD Toolbox           |
|  \\    /   O peration     | Version:  2512                                  |
|   \\  /    A nd           | Website:  www.openfoam.com                      |
|    \\/     M anipulation  |                                                 |
\*---------------------------------------------------------------------------*/
FoamFile
{
    version     2.0;
    format      ascii;
    arch        "LSB;label=32;scalar=64";
    class       surfaceScalarField;
    location    "40";
    object      phi;
}
// * * * * * * * * * * * * * * * * * * * * * * * * * * * * * * * * * * * * * //

dimensions      [0 3 -1 0 0 0 0];

oriented        oriented;

internalField   nonuniform List<scalar> 
260615
(
1.59841
-0.00554459
-0.00494022
1.35744
0.234409
-0.0112314
0.838254
0.765383
-0.261017
0.85409
1.4637
-1.48851
1.65858
1.61664
-2.42501
2.74125
1.5378
-2.62325
3.58093
1.50595
-2.34965
3.9872
1.56659
-1.97709
4.08408
1.59111
-1.69075
4.02453
1.45227
-1.39256
3.72747
1.18003
-0.88354
3.16204
0.904332
-0.340272
2.56201
0.649085
-0.050189
2.3079
0.474916
-0.221483
2.67449
0.345926
-0.713816
3.05222
0.398687
-0.782508
3.03305
0.359636
-0.348904
2.63266
0.152481
0.238869
2.09124
-0.0236603
0.556218
1.72943
-0.0319566
0.38689
1.43827
-0.112128
0.401882
0.457847
0.163648
0.816981
-0.986748
0.308172
1.13439
-1.90822
0.184678
0.735781
-2.20052
-0.0386441
0.332024
-2.16949
-0.159703
0.132105
-1.99402
-0.227408
0.0578347
-1.77435
-0.263979
0.0520569
-1.56188
-0.287085
0.0815933
-0.328465
0.0901967
1.61807
-0.0367412
0.00338405
1.48816
0.308788
0.0426949
1.22315
1.17596
-0.157209
1.24475
2.10332
-0.668958
1.81465
2.09516
-1.05185
2.69179
1.80923
-1.15082
3.42179
1.98271
-1.21055
3.83052
2.5031
-1.34874
3.97671
2.85088
-1.40782
3.95701
2.76497
-1.2935
3.72346
2.29832
-0.885084
3.28088
1.72967
-0.3837
2.81222
1.19558
-0.079108
2.52704
0.937806
-0.179414
2.76277
0.902235
-0.79471
3.00973
0.93363
-0.787997
2.85545
0.674858
-0.170593
2.29821
0.169016
0.530663
1.72957
-0.218122
0.754596
1.46836
-0.315856
0.538452
0.720847
0.0532597
0.580993
-0.730869
0.575414
1.03937
-1.91502
0.564556
0.926043
-2.40537
0.216941
0.45696
-2.50914
-0.0124416
0.0781537
-2.42039
-0.13332
-0.11255
-2.25296
-0.206665
-0.183423
-2.05161
-0.255709
-0.203234
-1.84546
-0.293289
-0.194256
-0.335411
-0.195032
1.62962
-0.109292
0.0367811
1.64381
0.191227
0.0940235
1.61997
1.28519
-0.0948749
1.58896
2.15228
-0.0256149
1.90284
1.7372
0.0412908
2.70464
0.719688
0.286156
3.45783
0.915377
0.311304
3.80385
2.41789
-0.263793
3.90191
3.63874
-0.887583
3.89205
3.84646
-1.07241
3.73835
3.25761
-0.806489
3.45891
2.42333
-0.414484
3.19966
1.66353
-0.207786
3.01936
1.42588
-0.307305
3.17363
1.40478
-0.659194
3.1948
1.1409
-0.235721
2.82408
0.564139
0.472169
2.26967
-0.0973412
0.813271
1.82495
-0.486611
0.7055
1.26248
-0.375581
0.61679
-0.114023
0.584256
0.844403
-1.4346
0.825078
1.06973
-2.13882
0.451147
0.815565
-2.4684
0.101516
0.443417
-2.53467
-0.0777867
0.131724
-2.43748
-0.169222
-0.0590574
-2.26689
-0.226259
-0.146552
-2.06548
-0.268841
-0.182211
-1.86834
-0.297938
-0.187081
-0.325473
-0.198015
1.60104
-0.194066
0.0817614
1.71825
-0.0422257
0.109453
1.86049
1.18455
-0.0496738
1.69112
2.01929
0.295282
1.70495
1.00967
0.713777
2.35796
-1.27976
1.34704
3.30621
-1.63607
1.60168
3.87471
0.778407
1.0686
3.95267
3.56927
-0.0104737
3.86878
4.5205
-0.59213
3.75224
3.95402
-0.580868
3.66587
2.93404
-0.423391
3.64023
2.0362
-0.344866
3.59381
1.77852
-0.306997
3.59079
1.54712
-0.14362
3.43287
1.00398
0.288715
3.13187
0.288902
0.570849
2.74495
-0.247541
0.531512
2.09369
-0.436375
0.595214
0.78654
0.207768
0.72064
-0.660831
0.980022
1.05023
-1.56474
0.672878
1.05415
-2.1316
0.189083
0.825935
-2.46704
-0.0905909
0.525194
-2.56679
-0.228717
0.250155
-2.49067
-0.292494
0.0489126
-2.31895
-0.322412
-0.0715645
-2.1181
-0.34045
-0.123635
-1.92702
-0.349785
-0.134201
-0.356932
-0.144203
1.55
-0.250481
0.108331
1.7156
-0.305181
0.0931566
1.93806
0.953795
0.00120088
1.58739
1.85004
0.515417
1.92278
-0.332499
1.01033
2.81163
-3.54649
1.38
3.48398
-4.10692
1.79785
3.897
-1.646
2.00872
3.92333
2.44941
1.09017
3.75386
4.50979
0.176951
3.71252
4.24013
-0.246561
3.8984
3.19096
-0.442721
3.9223
2.40673
-0.395107
3.8152
2.07463
-0.190219
3.76439
1.49933
0.0960533
3.7444
0.708123
0.311484
3.56993
0.086469
0.370726
2.98121
-0.132066
0.468515
1.83858
0.020292
0.682874
0.328274
0.7733
0.942746
-0.746163
0.882668
1.16953
-1.49407
0.326552
1.09058
-2.08354
-0.0957138
0.869885
-2.43313
-0.33368
0.589462
-2.55479
-0.4407
0.332421
-2.504
-0.466249
0.12411
-2.34617
-0.45322
-0.0235465
-2.14848
-0.430592
-0.102505
-1.9624
-0.406463
-0.124846
-0.385137
-0.137424
1.51288
-0.260753
0.102848
1.66283
-0.511558
0.05551
1.84742
0.681173
0.0819365
1.49938
1.51364
0.683041
2.35186
-1.71211
0.531654
3.47208
-4.95693
0.293639
4.02636
-5.43207
0.770509
3.99354
-3.30541
1.68806
3.66649
1.02473
1.74721
3.41515
3.94842
0.807895
3.53314
4.21888
-0.100226
3.84811
3.43309
-0.557304
3.91721
2.77205
-0.432799
3.81325
2.36709
-0.18979
3.82425
1.29573
0.187545
3.80889
0.314895
0.401553
3.5141
-0.172641
0.547419
2.69714
0.0790788
0.60286
1.44317
0.480223
0.792213
0.221634
0.823937
1.16833
-0.708682
0.494888
1.31367
-1.51306
-0.0567527
1.18174
-2.07714
-0.452079
0.914756
-2.39224
-0.655944
0.633201
-2.514
-0.709734
0.38882
-2.48357
-0.677268
0.181101
-2.34013
-0.606724
0.0129694
-2.14543
-0.529605
-0.0912235
-1.96289
-0.459773
-0.125145
-0.402948
-0.140089
1.53353
-0.259179
0.0736967
1.64015
-0.655785
0.0383812
1.69466
0.362539
0.259333
1.5211
0.973944
0.712894
2.50175
-2.54369
-0.1432
3.481
-5.31696
-0.614934
4.01233
-5.79492
-0.168395
3.72567
-3.87658
0.854003
3.09037
-0.0647639
1.71746
2.80702
3.27961
0.94233
3.14162
0.931865
-0.384227
0.926077
1.21234
1.19543
3.74344
0.810718
-0.741378
0.75285
1.03347
0.97606
3.93692
0.656271
-0.399952
0.618617
0.877375
0.825608
3.66044
0.611037
0.0272056
0.512676
0.807482
0.680922
3.27307
0.949986
0.726673
2.83154
-0.256784
1.00704
2.0966
-0.304422
0.861961
1.14894
0.125444
0.900057
0.112921
0.308812
1.2059
-0.699486
0.174435
1.45809
-1.33492
-0.302655
1.42661
-1.8278
-0.758828
1.1877
-2.16616
-1.01941
0.899004
-2.3719
-1.09364
0.638563
-2.45982
-1.04098
0.416647
-2.43419
-0.921089
0.218194
-2.30105
-0.775365
0.0379021
-2.11038
-0.629944
-0.0863297
-1.93029
-0.503443
-0.132714
-0.405938
-0.150237
1.56421
-0.25642
0.0429034
1.68029
-0.821658
0.0509797
1.63671
-0.0334113
0.434783
1.70195
0.142703
0.766645
2.55221
-2.99806
-0.389793
3.19872
-5.13116
-0.826785
3.41715
-5.44437
-0.568048
2.97462
-3.63854
0.200218
2.21997
-0.604915
1.28112
0.556249
2.69796
0.56211
0.494405
0.641685
0.536027
0.605298
0.971437
-0.0910358
-0.663786
0.749357
0.95212
-0.225074
-0.842182
0.881437
0.709987
-0.0900167
-0.881698
0.817199
0.712738
-0.0371824
0.963732
0.597025
1.50904
-0.660149
-0.573657
-0.513888
-0.378636
-0.364759
-0.418688
1.48823
-1.20996
-0.725673
1.26574
-1.59244
-0.821426
1.32905
-1.80178
-0.930744
1.4468
-1.93282
-1.15766
1.45831
-2.07308
-1.46424
1.29468
-2.20166
-1.67945
1.04126
-2.29851
-1.72298
0.793264
-2.36376
-1.61785
0.584245
-2.39046
-1.42294
0.405795
-2.35478
-1.19123
0.23408
-2.23084
-0.954515
0.0571442
-2.04855
-0.728913
-0.0797271
-1.8724
-0.53588
-0.140316
-0.392584
-0.161624
1.53978
-0.209345
0.0219384
1.69218
-1.00229
0.0282115
1.63877
-0.483334
0.497977
1.82081
-0.870728
0.831652
2.55703
-3.1952
-0.532743
2.82627
-4.68441
-0.710039
2.47077
-4.74822
-0.338548
1.65209
-2.64802
-0.177512
-0.419109
0.48448
0.967711
0.31677
3.6236
0.128037
-0.148605
0.168248
-1.82295
0.531292
1.47595
-0.555784
-1.13966
0.485204
-0.338703
-1.23061
0.29881
0.303649
0.299067
0.232393
0.0374909
-0.0591294
-0.0406988
0.00510996
-0.626262
0.776343
-0.626781
0.159318
-0.00929902
0.0948143
0.0710188
0.0374911
0.0439622
0.0368919
0.0470071
-0.789916
0.66119
-0.812917
0.215909
0.259104
0.261894
0.209689
-0.011808
-0.00499687
0.0139805
-0.000385142
-0.633539
0.227465
1.88549
-0.374332
-0.350281
-0.119885
-0.0381343
-1.78381
-0.929742
1.66087
-2.33757
-1.55093
1.37886
-2.54896
-1.90113
1.29036
-2.58667
-2.13811
1.24231
-2.54868
-2.33872
1.13761
-2.49411
-2.48586
0.959402
-2.43443
-2.50813
0.760845
-2.37627
-2.37932
0.59101
-2.33013
-2.12745
0.458301
-2.2946
-1.8059
0.344493
-2.24146
-1.46615
0.221151
-2.12805
-1.13696
0.0706031
-1.96123
-0.828647
-0.0638495
-1.79361
-0.56396
-0.136368
-0.371426
-0.163508
1.52389
-0.11363
-0.0138669
1.56487
-1.03277
-0.0126452
1.56836
-0.845096
0.351591
1.78917
-1.71745
0.625229
2.46274
-3.08518
-0.778295
2.29904
-3.93971
-0.575644
1.22734
-3.87376
0.198824
-0.226568
-1.32453
0.127777
-2.30505
2.04038
0.510382
-0.451939
4.80251
0.300352
-0.490192
-1.73712
-1.11539
2.15541
-0.492949
-1.81797
-0.264309
0.0957845
-0.17343
0.0386407
-0.422285
0.0782844
-0.200834
0.440536
0.0546918
0.0137262
0.0199056
0.0135261
0.209986
0.180961
-0.156964
-0.0471923
-0.0680473
-0.0259125
-0.0945512
-0.0101542
0.0103037
-0.00852095
0.00741586
-0.0716656
-0.218065
0.209444
-0.0325526
0.114203
-1.74422
-0.388916
1.86677
-0.144034
-0.0612128
0.289749
0.410573
-2.5565
-1.65527
1.53767
-2.8961
-2.3597
1.14774
-2.96642
-2.77689
0.94473
-2.89055
-3.02292
0.80559
-2.74914
-3.15112
0.665311
-2.59249
-3.16987
0.519853
-2.44413
-3.06278
0.39853
-2.31628
-2.83235
0.318538
-2.21656
-2.50161
0.269691
-2.14573
-2.10862
0.229175
-2.08299
-1.69814
0.168573
-1.98551
-1.2994
0.0662966
-1.84361
-0.923538
-0.0439817
-1.69401
-0.594254
-0.11618
-0.356511
-0.148455
1.55916
0.000287662
-0.071178
1.46634
-0.795212
-0.14862
1.49442
-1.13399
0.2526
1.7365
-2.12085
0.159173
2.35998
-2.66365
-1.04251
1.7945
-3.00515
-0.365049
-0.0945759
-2.79516
0.813164
-1.82744
-0.310672
0.716835
-2.53282
2.17665
0.56168
-0.47314
3.18149
0.432943
-0.399388
-0.207543
-0.276477
-2.30432
1.88454
0.145431
-0.0531814
-0.000279838
-0.164454
0.00914032
0.273626
-0.186553
0.113525
-0.453559
0.0593529
0.069417
0.0624713
0.0614076
-0.000865717
-0.174266
0.156425
-0.00280342
0.0201345
-2.50355
-1.15833
1.65075
0.126089
0.212871
0.611477
0.672199
-3.06484
-2.30145
1.20707
-3.21207
-2.9457
0.732195
-3.13899
-3.31509
0.463335
-2.94572
-3.5119
0.292256
-2.71424
-3.55009
0.162004
-2.48139
-3.47561
0.0659354
-2.27908
-3.29098
0.0188643
-2.12106
-3.01552
0.0192803
-2.00446
-2.66777
0.0454546
-1.92365
-2.26613
0.0743826
-1.86302
-1.83753
0.0782619
-1.78702
-1.40776
0.0336972
-1.67902
-0.993301
-0.0352412
-1.55899
-0.621904
-0.0891819
-0.359064
-0.11983
1.59088
0.081627
-0.0723774
1.47594
-0.462715
-0.223018
1.48633
-1.16743
0.0142952
1.70093
-1.91508
-0.424705
2.28446
-2.03904
-1.20753
1.54873
-2.14181
-0.125169
-0.57282
-1.96288
1.29206
-2.30609
0.107275
1.31721
-2.66155
2.02587
0.503197
-0.46307
3.03558
-0.711331
-0.575882
-0.153366
-0.620849
-1.28282
1.10819
0.576498
-0.1961
-0.209806
-0.204968
-0.259617
0.122317
-0.0324889
0.0893421
-0.143716
-0.0374703
-0.0325586
0.174992
-0.179152
-0.0592117
0.178281
-0.0336396
-0.0229092
-0.0251469
-0.155118
0.0167291
0.0295973
-0.0103545
0.117996
-3.00569
-1.68378
1.38623
0.249275
0.324616
0.750832
0.819723
-3.36129
-2.70694
0.760203
-3.31804
-3.23115
0.240799
-3.10306
-3.50408
-0.0280198
-2.83327
-3.60675
-0.178389
-2.54053
-3.57776
-0.270074
-2.26042
-3.44585
-0.315961
-2.01729
-3.22933
-0.310716
-1.82245
-2.95583
-0.259338
-1.69415
-2.62068
-0.178593
-1.61643
-2.25163
-0.0939016
-1.56871
-1.85082
-0.0345191
-1.51905
-1.43221
-0.0236447
-1.44799
-1.01288
-0.0483568
-1.36481
-0.62603
-0.0756309
-0.364398
-0.105799
1.61929
0.0606385
0.000871799
1.4955
-0.250228
-0.0953824
1.43593
-0.845452
-0.271773
1.64586
-1.34788
-0.78299
2.17328
-1.42789
-1.13958
1.44928
-1.51839
0.101993
-0.58151
-1.56188
1.63423
-2.47611
0.691465
1.3167
-3.27405
3.41265
-0.591469
-0.785043
6.16393
-2.6574
-0.815751
-1.07551
-1.0707
-1.60575
-0.753661
2.56228
-0.988393
-0.4334
0.134869
-0.104553
0.547188
-0.167222
-0.162552
0.0188375
0.147807
-0.182142
0.180629
-0.0227889
0.01439
-0.214223
-0.059794
0.278687
-3.42285
-2.11018
0.901538
0.437984
0.547507
0.954226
1.00585
-3.51911
-2.85331
0.241135
-3.32522
-3.22106
-0.205667
-3.03862
-3.37665
-0.416179
-2.71296
-3.40188
-0.533829
-2.37709
-3.32021
-0.597932
-2.0586
-3.15838
-0.611214
-1.78262
-2.93923
-0.570935
-1.56897
-2.68378
-0.489429
-1.41134
-2.40098
-0.379612
-1.30705
-2.0927
-0.264172
-1.24784
-1.74655
-0.163029
-1.20291
-1.37332
-0.10187
-1.15458
-0.978105
-0.079549
-1.10896
-0.593261
-0.074291
-0.348011
-0.117384
1.6503
-0.0164984
0.025122
1.53909
-0.236833
0.0902542
1.40883
-0.557823
-0.167766
1.58338
-0.885633
-0.643344
2.03874
-1.01565
-0.870087
1.37022
-1.1385
0.290274
-0.635225
-1.20954
1.66016
-2.43922
2.11853
0.381952
-2.86548
5.7621
-1.923
-2.72733
8.09541
-2.07158
-1.24746
6.80295
0.149975
-2.94625
-2.96518
-1.46049
-1.06324
-1.51014
-1.64849
1.53318
-0.120975
-0.144892
0.0751794
0.561003
-3.0628
-1.49514
1.51219
0.237366
0.291991
0.47073
0.52636
-3.67728
-1.94467
0.992671
0.240551
0.245762
0.541818
0.531953
-3.75865
-2.37575
0.344168
-3.61558
-2.77122
-0.227133
-3.33335
-2.96408
-0.541059
-2.99732
-3.0021
-0.712735
-2.63117
-2.95974
-0.811382
-2.26
-2.84373
-0.851616
-1.91158
-2.67546
-0.835711
-1.60908
-2.47639
-0.769121
-1.36389
-2.26293
-0.668668
-1.17783
-2.0416
-0.546796
-1.04565
-1.80615
-0.418895
-0.948823
-1.54406
-0.298219
-0.870407
-1.24493
-0.204267
-0.807246
-0.900905
-0.136059
-0.781692
-0.535647
-0.0786384
-0.313307
-0.135317
1.63998
-0.0499063
-0.00848157
1.57794
-0.205155
0.0229938
1.44437
-0.437879
0.00306042
1.55174
-0.623087
-0.376812
1.9392
-0.693312
-0.71211
1.55189
-0.81933
0.0689997
-0.204073
-0.675415
1.22973
-1.82572
3.25854
0.486889
-2.33238
7.1147
-0.844332
-2.23887
7.80687
0.19444
-1.24305
3.80467
2.00019
-2.55709
-2.11399
1.77348
-3.56869
-1.78925
1.299
-3.94412
-2.11901
0.544858
-3.89443
-2.31397
-0.114818
-3.67028
-2.4591
-0.538491
-3.3575
-2.49305
-0.785641
-2.98843
-2.44084
-0.932319
-2.59166
-2.34545
-1.01378
-2.19467
-2.213
-1.03102
-1.82488
-2.05985
-0.988775
-1.50283
-1.90021
-0.900881
-1.2371
-1.7451
-0.785116
-1.02521
-1.59471
-0.659139
-0.855993
-1.43977
-0.534921
-0.712835
-1.26637
-0.419036
-0.573904
-1.05839
-0.322259
-0.431741
-0.799947
-0.238332
-0.348613
-0.476037
-0.136824
-0.26416
-0.208368
1.60761
-0.0501725
-0.00930256
1.58455
-0.140545
-0.0483329
1.48844
-0.320446
-0.0302281
1.55867
-0.384064
-0.314727
1.91491
-0.378401
-0.672198
1.89169
-0.422167
-0.372752
0.732333
-0.271506
0.763261
-0.597509
2.92964
1.66411
-1.47274
6.59582
1.39542
-1.24821
5.60035
1.98268
-0.89856
0.830099
2.62365
-2.81143
-2.02714
1.82076
-3.7885
-1.87973
1.06112
-4.09136
-1.9864
0.165079
-3.98915
-2.00358
-0.416131
-3.74658
-1.97328
-0.730558
-3.4104
-1.89305
-0.937695
-3.02143
-1.77233
-1.05898
-2.60549
-1.6441
-1.11934
-2.19166
-1.51415
-1.11509
-1.80683
-1.39307
-1.05392
-1.46989
-1.28716
-0.95149
-1.18756
-1.19805
-0.829811
-0.955154
-1.1199
-0.706555
-0.759641
-1.04138
-0.5923
-0.580218
-0.949159
-0.494037
-0.384359
-0.832171
-0.418284
-0.130364
-0.686906
-0.361375
0.192331
-0.503904
-0.288144
-0.374919
-0.386554
1.59322
-0.0319457
-0.0138097
1.58699
-0.0932124
-0.0456787
1.51342
-0.219211
-0.0339759
1.5657
-0.199262
-0.240954
1.92842
-0.119093
-0.621762
2.21249
-0.135064
-0.568285
1.71443
-0.135844
0.370686
0.634877
1.72959
2.28542
-0.343469
4.87748
2.69915
0.105789
2.71843
2.43257
-0.535873
-1.05153
2.52134
-2.87989
-1.53013
1.84277
-3.94839
-1.61932
0.802412
-4.2101
-1.62071
-0.109051
-4.09086
-1.53641
-0.589951
-3.83612
-1.40292
-0.827066
-3.49295
-1.25369
-0.983529
-3.09644
-1.09999
-1.06965
-2.67287
-0.965504
-1.10333
-2.25054
-0.857175
-1.08072
-1.85538
-0.779087
-1.0104
-1.50539
-0.729732
-0.907901
-1.20721
-0.70222
-0.793429
-0.956879
-0.685305
-0.683269
-0.742447
-0.666408
-0.586826
-0.544012
-0.633909
-0.510243
-0.331573
-0.580328
-0.459763
-0.0726372
-0.507933
-0.431799
0.249933
-0.42607
-0.394118
-0.307451
-0.526125
1.59668
-0.0173484
-0.0131713
1.59572
-0.0572591
-0.0392721
1.53925
-0.137278
-0.0307686
1.57391
-0.118734
-0.117489
1.91858
-0.0123644
-0.449828
2.31764
0.017309
-0.546946
2.36015
0.00487774
-0.174669
1.60817
0.740904
1.7465
1.00514
2.65842
2.82321
0.713788
0.720122
2.28924
-1.0413
-1.41012
2.11268
-3.11411
-1.22424
1.76248
-4.09826
-1.21849
0.577207
-4.3106
-1.12068
-0.293201
-4.19273
-0.994444
-0.66375
-3.93633
-0.836174
-0.825092
-3.59572
-0.678338
-0.916516
-3.20208
-0.538422
-0.955255
-2.77946
-0.429596
-0.958789
-2.35433
-0.358515
-0.924255
-1.95136
-0.323681
-0.858696
-1.58849
-0.318006
-0.774173
-1.27389
-0.33067
-0.684696
-1.00585
-0.349468
-0.601344
-0.774448
-0.36323
-0.531136
-0.561671
-0.363004
-0.47943
-0.340507
-0.343353
-0.452972
-0.0852698
-0.307915
-0.449164
0.218762
-0.279624
-0.444328
-0.19352
-0.597903
1.60046
-0.00899962
-0.01112
1.59092
-0.0275128
-0.0215717
1.54234
-0.0632265
-0.0251391
1.58643
-0.0594179
-0.0991771
1.92225
-0.000730267
-0.337292
2.30674
0.0287017
-0.382619
2.60537
0.0817373
-0.360969
2.37035
0.302623
0.684068
2.30147
0.895323
1.83871
1.46579
-0.180658
1.74018
-0.962467
-0.930934
1.94929
-3.20702
-0.707474
1.72313
-4.21824
-0.658714
0.44521
-4.40481
-0.561538
-0.378038
-4.28677
-0.464081
-0.651887
-4.03328
-0.35662
-0.734346
-3.69907
-0.254929
-0.757571
-3.31199
-0.174686
-0.750591
-2.89372
-0.117066
-0.731198
-2.4682
-0.0872006
-0.697789
-2.05904
-0.0810691
-0.652722
-1.68485
-0.0919351
-0.60041
-1.35572
-0.111801
-0.546944
-1.0723
-0.133161
-0.497365
-0.826498
-0.149791
-0.455749
-0.600831
-0.156475
-0.427762
-0.368404
-0.149875
-0.420597
-0.105946
-0.133144
-0.430527
0.190471
-0.128889
-0.441061
-0.0847422
-0.618687
1.60064
-0.0103664
1.58159
-0.00841358
1.53838
-0.0189667
1.6064
-0.123405
1.95787
-0.345134
2.31548
-0.320788
2.5555
-0.149846
2.73369
0.131504
3.03023
0.601592
1.96578
0.884252
-0.765142
1.79884
-3.20867
1.7329
-4.28642
0.415403
-4.47548
-0.375605
-4.35694
-0.584685
-4.10556
-0.608832
-3.77434
-0.586169
-3.39394
-0.55497
-2.97935
-0.531813
-2.55445
-0.51251
-2.14243
-0.493438
-1.76241
-0.47185
-1.42563
-0.447786
-1.13423
-0.423034
-0.880956
-0.400902
-0.64759
-0.387164
-0.405964
-0.388268
-0.134326
-0.401251
0.154584
-0.414658
-0.601539
1.58262
0.00070997
0.0028175
1.27798
0.270615
0.0107348
0.822663
0.951698
-0.765711
0.980858
0.73695
-2.38821
2.00276
-0.216187
-3.23299
3.18916
-0.694767
-3.1171
3.9795
-0.443418
-2.69987
4.04922
0.268957
-2.31918
3.48706
0.896129
-2.02618
2.70917
1.08214
-1.69667
2.05344
0.872041
-1.09926
1.62137
0.54571
-0.455054
1.43964
0.238035
-0.109602
1.65948
0.0387957
-0.48453
2.255
0.111633
-1.426
2.64754
0.320429
-1.50263
2.64064
0.322343
-0.672735
2.42219
0.106644
0.344709
2.17093
-0.0939464
0.896445
1.21643
0.0702049
1.26686
-0.717026
0.514262
1.81932
-2.25637
0.506833
1.84849
-2.75885
0.325849
1.31005
-2.77474
0.0952251
0.656106
-2.6737
-0.0564084
0.288096
-2.53013
-0.133628
0.124249
-2.35568
-0.177928
0.0651403
-2.1552
-0.208155
0.0650578
-1.94029
-0.227812
0.099096
-0.252408
0.132114
1.60502
-0.0299827
0.0215619
1.45813
0.39548
0.055356
1.27361
1.52626
-0.554764
1.36343
1.19823
-1.22661
2.10482
-0.692907
-1.31952
3.05172
-1.82606
-0.969431
3.77595
-1.43178
-0.950711
3.9837
-0.0227874
-1.26843
3.63058
1.37692
-1.53681
3.02446
1.92057
-1.52531
2.49577
1.63336
-1.11671
2.17388
1.02976
-0.54543
1.91062
0.490178
-0.0679655
1.74929
0.293073
-0.274989
2.0225
0.559714
-1.52049
2.25329
0.756281
-1.46224
2.2478
0.441929
-0.293218
2.1351
-0.12795
0.871833
1.719
-0.30006
1.37006
0.215005
0.507664
1.60016
-1.73095
1.04555
1.9938
-2.64865
0.764472
1.69853
-2.74104
0.33923
1.00422
-2.63664
0.0398056
0.407904
-2.54604
-0.119119
0.0513772
-2.42911
-0.212562
-0.148094
-2.26448
-0.267611
-0.254396
-2.07739
-0.296105
-0.297161
-1.88844
-0.308266
-0.298171
-0.325038
-0.297509
1.64244
-0.10846
0.0678593
1.66918
0.34793
0.107584
1.68066
1.80604
-0.393931
1.61974
1.44091
-0.216061
2.34782
-1.81404
0.431628
3.30954
-3.66543
1.16092
3.97288
-3.02739
1.2393
4.10029
-0.823743
0.406203
3.80218
1.46111
-0.674671
3.35482
2.45244
-1.15626
3.00732
2.16136
-0.985316
2.82993
1.34499
-0.549427
2.55526
0.716964
-0.157957
2.0851
0.785172
-0.331253
2.07781
1.05396
-1.15019
2.32974
0.688547
-0.426474
2.54088
-0.0180281
0.714938
2.19269
-0.4655
1.4926
0.70859
0.180212
1.70324
-1.31139
1.18641
1.95463
-2.57635
1.15179
2.0015
-2.91578
0.567491
1.60491
-2.8325
0.0750841
0.995171
-2.67217
-0.169714
0.492175
-2.53391
-0.285438
0.160658
-2.39659
-0.355124
-0.0514954
-2.22337
-0.397203
-0.186352
-2.02805
-0.412654
-0.255979
-1.83415
-0.413282
-0.271554
-0.416238
-0.280682
1.65214
-0.212843
0.132131
1.80943
0.16812
0.126013
1.889
1.91553
-0.246453
1.68267
1.33276
0.602143
2.44122
-3.14928
1.28891
3.50675
-5.34788
1.96204
4.37023
-4.78153
2.48927
4.54527
-1.97499
2.04174
4.1106
1.38513
0.499405
3.6741
2.83757
-0.540337
3.47632
2.49225
-0.711836
3.41325
1.53326
-0.545721
3.14696
0.973206
-0.332811
2.83284
1.0736
-0.281654
2.99928
0.942586
-0.201832
3.29544
0.206768
0.468776
2.97546
-0.32703
1.19342
1.26876
0.117178
1.65045
-0.970455
1.05476
1.95655
-2.4364
1.24804
2.12267
-3.01771
0.716044
2.06551
-3.11119
0.0370335
1.67632
-3.00124
-0.365747
1.15511
-2.79772
-0.524133
0.675242
-2.59148
-0.571584
0.330474
-2.41508
-0.576921
0.0962808
-2.23964
-0.571472
-0.0691696
-2.04418
-0.554433
-0.172653
-1.85299
-0.528006
-0.206556
-0.508098
-0.217189
1.60757
-0.3025
0.190926
1.86649
-0.123996
0.121532
1.89992
1.94054
-0.0640498
1.63958
0.900281
1.20326
2.43706
-3.86662
0.929557
3.37155
-5.86029
0.956725
4.24224
-5.84424
1.9871
4.78288
-3.19552
2.68535
4.48809
1.09946
1.66882
4.02175
3.1013
0.379137
3.86348
2.7083
-0.304022
3.79396
1.73054
-0.569461
3.47666
1.35685
-0.459417
3.44619
1.19098
-0.277572
3.66635
0.610927
0.203086
3.34277
-0.0435798
0.879938
1.67938
0.224382
1.47865
-0.524383
0.880227
1.90687
-2.05739
1.05456
2.21398
-2.85728
0.627501
2.36108
-3.14936
-0.0850017
2.26041
-3.20085
-0.674458
1.85118
-3.08182
-0.951527
1.33442
-2.85843
-1.0209
0.861382
-2.61891
-0.97345
0.494546
-2.41213
-0.882607
0.224462
-2.22934
-0.796343
0.0216777
-2.04109
-0.719592
-0.121363
-1.85752
-0.645377
-0.187334
-0.590567
-0.207039
1.5339
-0.343303
0.212518
1.84874
-0.480426
0.0928048
1.8525
1.79556
0.217622
1.58709
0.479968
1.36491
2.27357
-4.04189
0.0212629
2.89762
-5.38828
-0.802616
3.55497
-5.72584
-0.00832805
4.26949
-4.05125
1.82488
4.33388
0.565129
2.21339
4.05198
3.08787
1.09976
3.85012
2.99347
-0.185005
3.65133
2.08777
-0.718076
3.41081
1.43307
-0.273146
3.04353
0.999733
0.363693
2.37401
0.287394
1.17642
1.05186
0.00598693
1.67089
-0.486095
0.344768
1.96304
-1.70569
0.426794
2.27453
-2.54018
0.13342
2.54628
-3.00531
-0.402618
2.66143
-3.19991
-1.02358
2.44416
-3.20755
-1.45581
1.96785
-3.05778
-1.63882
1.44949
-2.82721
-1.61775
0.997449
-2.5775
-1.46497
0.629889
-2.35653
-1.25922
0.33772
-2.17434
-1.06436
0.101508
-2.00071
-0.900306
-0.080326
-1.82824
-0.758139
-0.181507
-0.656205
-0.213508
1.50418
-0.348389
0.178428
1.8066
-0.791286
0.0429289
1.77386
1.48852
0.593718
1.58576
0.122145
1.25574
1.93198
-4.04686
-0.48246
2.07417
-4.76221
-1.3819
2.47883
-4.79883
-1.50337
3.06442
-4.04594
0.256176
3.41895
0.0845971
1.83675
3.41396
3.01203
1.01665
2.96798
0.957714
-0.410044
0.863185
0.914083
0.726617
2.60409
0.646587
-0.186912
0.56954
0.40359
0.273253
1.4367
0.487123
0.849883
0.490082
0.15949
0.210666
-0.183801
0.418733
1.67331
0.271695
0.158213
0.124461
-1.33523
-0.0893331
2.25301
-2.10333
-0.662256
2.4419
-2.62991
-0.731791
2.46401
-3.01995
-0.894031
2.61022
-3.24584
-1.17626
2.74014
-3.29377
-1.58484
2.68593
-3.23955
-1.99689
2.34248
-3.10334
-2.27075
1.86279
-2.91602
-2.34132
1.41068
-2.69141
-2.22883
1.02241
-2.45418
-1.98322
0.696428
-2.24027
-1.67118
0.416717
-2.07131
-1.36098
0.167765
-1.91857
-1.09175
-0.0442463
-1.76106
-0.864692
-0.180619
-0.70494
-0.22807
1.57379
-0.365988
0.0905048
1.84814
-0.998751
-0.0200539
1.71795
1.16012
0.887742
1.68314
-0.231993
1.15254
1.69549
-3.83922
-0.607061
1.35908
-4.36333
-0.887251
1.52004
-3.77649
-1.75486
1.80983
-2.93171
-1.21225
2.14499
0.196432
0.822373
0.647834
3.46083
0.395865
0.466902
0.525764
0.210431
0.166715
0.580952
1.03188
-0.176208
0.159705
-0.44794
0.373586
0.563895
-0.00030574
0.103047
-0.288919
0.160337
0.358666
0.156329
-0.0516158
-0.0225357
-0.176283
0.342269
0.326816
-3.03235
-0.708129
2.77953
0.425976
0.496126
0.70421
0.753928
-3.52711
-1.45614
2.77601
-3.70721
-1.82403
2.53771
-3.66328
-2.11248
2.50324
-3.47683
-2.35071
2.43349
-3.24724
-2.61168
2.25278
-3.01238
-2.84538
1.90424
-2.80737
-2.96247
1.52333
-2.6201
-2.9257
1.18603
-2.43321
-2.74158
0.906991
-2.24123
-2.43737
0.666379
-2.06172
-2.0562
0.439716
-1.91984
-1.65445
0.210541
-1.79449
-1.28258
-0.0111789
-1.65827
-0.962448
-0.1759
-0.737097
-0.242387
1.62826
-0.375078
0.00502294
1.85748
-1.12004
-0.0849369
1.68783
0.819518
1.002
1.76804
-0.569531
1.08554
1.45395
-3.42133
-0.634089
0.611286
-4.0867
-0.141971
0.724026
-3.04201
-1.18977
0.872592
-1.35755
-1.91212
0.278566
1.55404
0.18841
0.115608
4.8583
0.701662
-1.03314
-0.246972
-0.538107
1.17528
0.288531
0.0537572
-1.11813
-0.101733
-0.0197557
-0.115595
-0.0498143
-0.122101
0.168146
-0.010416
-0.204046
-0.0419194
0.209835
0.104991
-0.0419776
-0.0904937
-0.123785
0.0695572
0.0805476
0.0983325
-0.0404467
-0.0644199
0.0330559
0.069621
-0.0952781
-3.47669
-1.35505
2.83266
0.678148
0.717624
0.88758
0.894063
-3.62946
-2.1627
2.52014
-3.55556
-2.61607
2.09712
-3.3657
-2.93499
1.92285
-3.07868
-3.15829
1.76126
-2.77988
-3.32452
1.54827
-2.52206
-3.4246
1.27587
-2.32236
-3.41953
1.01274
-2.1723
-3.29861
0.809079
-2.04886
-3.06944
0.65941
-1.93023
-2.74517
0.531954
-1.81415
-2.34366
0.392448
-1.71748
-1.89728
0.218302
-1.62774
-1.45066
0.0173757
-1.52107
-1.0443
-0.158326
-0.75198
-0.246567
1.58225
-0.321806
-0.0492791
1.65733
-1.06689
-0.14768
1.64257
0.190539
0.988091
1.77258
-0.973842
0.89556
1.10256
-2.84568
-0.682679
-0.331655
-3.59714
0.370294
-0.275129
-2.40776
-0.497096
-0.366366
0.187837
-1.34248
-1.57462
3.16983
0.0907336
-1.24778
5.47769
1.19759
-0.8299
-0.601875
-0.421806
1.06311
0.483966
-0.0453647
-1.29499
-0.254385
-0.524491
-0.309631
-0.365056
0.0202744
0.0221491
0.0342641
-0.0317864
-0.0288379
-0.00389669
-0.003298
-0.00395115
-0.00426181
0.00696361
0.00723655
0.00720097
-0.00696879
-0.00829705
-0.00125985
-0.00195245
-0.00159828
-0.00147976
0.0187555
0.00402253
0.0168255
-0.0206237
-0.00355254
-0.0154534
-3.52717
-1.91662
2.50511
0.818926
0.843249
0.902709
0.887911
-3.38857
-2.70737
1.94433
-3.11769
-3.16738
1.42855
-2.81122
-3.4764
1.1793
-2.49546
-3.6603
0.989771
-2.20074
-3.74676
0.788787
-1.9536
-3.74443
0.586944
-1.7703
-3.64092
0.430748
-1.65097
-3.44979
0.345473
-1.58077
-3.18865
0.315393
-1.53408
-2.86708
0.302644
-1.49247
-2.48254
0.265721
-1.45567
-2.04085
0.174508
-1.41227
-1.56408
0.0288629
-1.34485
-1.09616
-0.128752
-0.746095
-0.235952
1.4625
-0.180721
-0.0763989
1.42004
-0.890417
-0.291393
1.64056
-0.600046
0.814106
1.74443
-1.3216
0.398027
0.892735
-2.23267
-0.803236
-1.0452
-2.83927
0.814288
-1.83622
-1.39179
0.581896
-2.02758
1.47978
-0.393478
-2.06074
3.49029
0.262085
-0.351693
3.42229
1.18265
-0.0472658
-0.284941
-0.0848312
-0.615175
0.32068
0.162855
-0.328979
0.0146548
0.041774
0.0586192
-0.0117779
0.00229917
0.00520219
-0.00157764
-0.00214829
-0.0043322
0.000563638
-3.42056
-2.39933
1.9744
0.879732
0.902639
0.8882
0.91188
-3.04408
-3.11791
1.24203
-2.67305
-3.51929
0.713213
-2.34177
-3.7899
0.444721
-2.02831
-3.92924
0.245094
-1.74898
-3.92737
0.0590784
-1.50738
-3.83334
-0.0921214
-1.31769
-3.65221
-0.164817
-1.19237
-3.41019
-0.149892
-1.13347
-3.127
-0.0778751
-1.1215
-2.81425
0.00823059
-1.12942
-2.46397
0.0677407
-1.14102
-2.06047
0.0665138
-1.13984
-1.59794
0.000472241
-1.11535
-1.10392
-0.102615
-0.715353
-0.218642
1.36546
0.0135169
-0.0348932
1.34896
-0.752986
-0.351936
1.65093
-0.987046
0.0894042
1.72716
-1.36541
-0.461968
0.918434
-1.66305
-0.968949
-1.26804
-1.98906
1.20996
-2.64893
-0.549284
1.82463
-2.8758
2.27394
0.742969
-2.92326
3.57084
0.459396
-0.261704
2.49595
0.192857
-1.02762
-0.523012
-1.09876
-0.225355
0.30293
-0.588517
-0.00788773
0.137153
0.0960811
-0.0547681
0.0708241
-0.0335907
0.0437314
-0.00442641
-0.000930386
-0.0419744
0.0372302
0.00320489
0.0189472
0.00498665
-0.018791
-0.00392422
-0.00442395
0.0028024
0.0138817
0.00603631
-0.0596868
-0.0180634
0.00292056
0.00174704
0.00515737
0.00429861
0.0135762
0.0139225
0.0136107
-3.19443
-2.79244
1.3302
0.92042
0.93198
0.90413
0.888863
-2.7382
-3.35204
0.538666
-2.37818
-3.68812
0.0493587
-2.06573
-3.9027
-0.228832
-1.78575
-3.94674
-0.44339
-1.49345
-3.8781
-0.615435
-1.2549
-3.68649
-0.705863
-1.00713
-3.50284
-0.712145
-0.86211
-3.2078
-0.610035
-0.789504
-2.91588
-0.464298
-0.769682
-2.61968
-0.309022
-0.781372
-2.30799
-0.178256
-0.80155
-1.95922
-0.102794
-0.811778
-1.54729
-0.0854304
-0.810482
-1.07056
-0.106545
-0.673229
-0.214919
1.46942
0.0782249
0.063549
1.38855
-0.559722
-0.214651
1.56496
-0.925914
-0.518384
1.6767
-1.2416
-1.0228
1.10067
-1.22932
-0.998097
-0.856974
-1.28821
1.35707
-2.43991
0.103924
2.56038
-2.96643
2.91239
1.19889
-3.38688
3.78253
-0.389075
-1.10016
2.51107
-1.87321
-0.982492
-1.10004
-1.01064
-0.300025
1.13359
-1.13328
0.106365
-0.908559
-0.0216496
0.269098
0.84943
-0.903952
-0.415051
0.00490904
0.0873777
0.0154496
0.101704
0.148632
-0.301313
0.941497
-1.02136
-0.601771
0.400466
0.153281
0.135873
0.142697
0.145433
-0.37321
1.04254
-0.995356
-0.626337
0.375499
0.144336
0.142524
0.144168
-2.96266
-3.0307
0.612308
0.916591
0.901156
0.841526
0.831582
-2.54508
-3.42857
-0.0998776
-2.23646
-3.66165
-0.541321
-1.94564
-3.76525
-0.845699
-1.6259
-3.74066
-1.06202
-1.2809
-3.61828
-1.20603
-0.972195
-3.38531
-1.2248
-0.755654
-3.1249
-1.16865
-0.623315
-2.83438
-0.997422
-0.533688
-2.57989
-0.806295
-0.486324
-2.32244
-0.608817
-0.485429
-2.0402
-0.430645
-0.486948
-1.75178
-0.30549
-0.469433
-1.41229
-0.228354
-0.437407
-0.992636
-0.180049
-0.619963
-0.275397
1.62743
0.0101734
0.0634772
1.49962
-0.385407