/*--------------------------------*- C++ -*----------------------------------*\
| =========                 |                                                 |
| \\      /  F ield         | OpenFOAM: The Open Source CFD Toolbox           |
|  \\    /   O peration     | Version:  2512                                  |
|   \\  /    A nd           | Website:  www.openfoam.com                      |
|    \\/     M anipulation  |                                                 |
\*---------------------------------------------------------------------------*/
FoamFile
{
    version     2.0;
    format      ascii;
    arch        "LSB;label=32;scalar=64";
    class       volVectorField;
    location    "40";
    object      U;
}
// * * * * * * * * * * * * * * * * * * * * * * * * * * * * * * * * * * * * * //

dimensions      [0 1 -1 0 0 0 0];

internalField   nonuniform List<vector> 
84826
(
(19.8317 0.235606 -0.119765)
(19.7866 1.24424 0.618831)
(13.6076 3.57578 -1.2115)
(7.72026 6.03248 -13.1361)
(15.8561 5.4003 -19.0977)
(28.8719 4.63315 -19.7545)
(40.4816 4.70915 -17.7785)
(48.0606 5.24336 -14.795)
(51.8146 5.55173 -12.1833)
(51.8168 5.16459 -9.82011)
(48.4305 4.2283 -7.13398)
(42.2388 3.21638 -4.58703)
(34.2374 2.50547 -2.80344)
(28.3726 1.74575 -1.97888)
(29.8725 1.09938 -2.49839)
(35.4153 1.04887 -2.61771)
(38.8835 0.898444 -1.45991)
(36.7518 0.387071 0.40479)
(30.4186 0.0487988 1.97247)
(22.2814 0.206796 1.68727)
(18.7302 0.330145 0.358079)
(21.2338 1.34055 3.55983)
(-6.5991 1.58365 5.397)
(-23.9635 -0.350898 2.11293)
(-28.7297 -1.29004 0.6996)
(-28.7445 -1.73548 0.159711)
(-26.9021 -1.94243 0.0191282)
(-24.3207 -2.0359 0.0915588)
(-21.1574 -2.14881 0.228906)
(-17.8915 -2.35714 0.25582)
(19.9449 0.599952 -0.104385)
(20.6372 3.19227 0.414127)
(17.2635 8.73075 -0.342482)
(13.2313 14.7003 -8.98361)
(18.8875 15.3796 -13.5667)
(29.0055 13.824 -14.007)
(38.6341 13.539 -13.0883)
(45.7646 14.9709 -11.6947)
(50.1432 15.9824 -10.2941)
(50.855 14.9522 -8.70649)
(48.1048 12.2114 -6.55219)
(43.0717 9.13752 -4.46004)
(36.9634 6.89228 -3.07126)
(32.1494 5.27132 -1.83149)
(31.879 4.69851 -1.69059)
(35.3614 4.757 -1.47441)
(37.7519 3.76589 0.123128)
(33.7694 1.61569 2.29108)
(25.5328 0.13547 3.47443)
(17.8727 -0.212777 1.9751)
(17.6541 0.937019 1.39377)
(4.14361 5.63626 5.91567)
(-22.0675 3.70548 3.34551)
(-31.1149 1.01593 0.675248)
(-33.0153 -0.471627 -0.444804)
(-31.7723 -1.28214 -0.893876)
(-29.824 -1.76728 -1.05486)
(-27.539 -2.06303 -1.06064)
(-24.6824 -2.33614 -1.00286)
(-21.4988 -2.6915 -0.99761)
(20.0125 0.689663 -0.148411)
(21.3814 3.55115 0.328623)
(20.6848 11.027 0.898641)
(18.8636 17.215 -4.30692)
(22.1177 16.5428 -7.75347)
(29.4899 14.5108 -7.99628)
(38.4474 16.8176 -7.78858)
(45.1602 21.0419 -7.4906)
(49.0369 24.1023 -7.65855)
(49.8472 23.4389 -7.25713)
(47.9775 19.287 -5.86195)
(44.4398 13.9644 -4.47678)
(40.9319 9.98213 -3.86307)
(38.5841 8.39706 -2.66583)
(37.7152 8.48271 -1.15299)
(39.6065 7.89658 0.904937)
(38.54 5.09193 3.03569)
(32.9079 1.10564 4.09287)
(25.9126 -2.25735 3.01218)
(20.2788 -2.3403 1.14096)
(11.955 5.54612 4.07977)
(-12.1496 7.85567 5.38223)
(-26.285 3.82085 2.50922)
(-31.9646 0.994967 0.787703)
(-33.367 -0.346432 -0.160628)
(-31.9952 -1.07943 -0.637478)
(-29.9622 -1.55414 -0.853411)
(-27.6786 -1.86561 -0.931127)
(-24.9277 -2.11186 -0.95172)
(-21.8641 -2.3727 -1.01201)
(19.8653 0.414082 -0.148951)
(21.5185 2.41005 0.729691)
(22.4266 10.8227 2.33913)
(21.7905 15.2669 -0.967816)
(21.6725 10.1109 -1.20647)
(27.0225 -0.0346903 3.12697)
(34.6898 2.64435 3.36115)
(44.1674 18.2728 -0.314169)
(49.3304 29.4608 -3.72091)
(49.6956 30.827 -5.12136)
(47.7687 25.4558 -5.03924)
(45.7852 18.0812 -4.9073)
(45.4844 12.8787 -4.65117)
(45.5823 10.9367 -3.29947)
(45.0202 10.5428 -0.908094)
(43.7009 8.45583 1.61983)
(41.3332 4.31776 2.71987)
(38.0304 -0.815953 1.81959)
(32.1797 -3.45065 0.48213)
(21.7674 0.860793 1.4312)
(0.45546 9.90325 5.65955)
(-16.9627 6.68019 4.56692)
(-26.1893 2.15887 2.67429)
(-31.5869 -0.185854 1.26592)
(-33.3847 -1.22925 0.310804)
(-32.6695 -1.73642 -0.243337)
(-30.5551 -2.04637 -0.525808)
(-28.2949 -2.26249 -0.63835)
(-25.6259 -2.41401 -0.673852)
(-22.6696 -2.55044 -0.737195)
(19.6572 -0.1343 -0.0117964)
(20.7503 0.466333 1.15659)
(22.5208 8.67638 3.53667)
(20.6581 11.3537 0.916917)
(20.6661 2.31314 6.05713)
(33.8259 -18.1481 7.6966)
(41.366 -21.671 7.4148)
(43.3598 0.518765 6.68096)
(47.8746 26.3536 1.70314)
(48.134 34.8058 -2.18471)
(46.2083 30.0347 -4.2575)
(47.0014 21.6034 -5.3376)
(49.1068 15.9816 -4.72901)
(49.0096 12.9773 -2.85202)
(47.5455 10.3826 -0.891495)
(47.078 6.44411 0.0272226)
(46.8745 1.57055 -0.39905)
(42.9624 -1.69214 -1.04629)
(33.6595 -0.758183 -0.45472)
(15.1955 7.46417 3.33712)
(-4.52026 9.8154 5.60578)
(-16.6321 4.23367 4.32151)
(-25.5646 0.139891 2.8257)
(-30.8724 -1.86786 1.52287)
(-32.9062 -2.65583 0.575083)
(-32.6275 -2.87525 -0.0478632)
(-30.8364 -2.9026 -0.406731)
(-28.6238 -2.89025 -0.571705)
(-26.0354 -2.85671 -0.636582)
(-23.1776 -2.82972 -0.713645)
(19.5133 -0.787633 0.182381)
(19.64 -2.02966 1.21719)
(20.6364 5.69834 3.97265)
(16.379 9.67766 4.49781)
(24.286 -9.38999 6.93384)
(41.6225 -32.722 2.26551)
(50.2848 -34.9213 1.39537)
(47.9975 -18.4421 4.65605)
(44.2489 14.7209 4.82852)
(42.6663 32.5962 0.352743)
(42.8052 32.1687 -3.79361)
(46.4184 24.5559 -5.72224)
(48.4315 18.9136 -5.05687)
(49.0287 15.4403 -3.75179)
(48.8761 10.7829 -2.83772)
(48.7358 4.83843 -2.47188)
(47.115 0.974617 -2.48535)
(41.4836 1.76318 -1.94375)
(29.7971 6.40299 0.5831)
(11.15 12.2006 5.08217)
(-5.07871 7.88775 5.67003)
(-17.3822 1.43819 4.36774)
(-25.6664 -2.3943 2.90299)
(-30.1764 -4.06552 1.67014)
(-32.1152 -4.48372 0.742079)
(-32.1292 -4.30989 0.0833568)
(-30.729 -3.94205 -0.334723)
(-28.5321 -3.5674 -0.545615)
(-26.0218 -3.23414 -0.625034)
(-23.2535 -2.97503 -0.703242)
(19.5496 -1.30664 0.21847)
(19.9133 -3.80229 1.44533)
(18.1841 3.50557 4.25691)
(14.4752 11.9469 8.00827)
(26.8378 -16.3403 2.70031)
(43.4598 -39.3948 -4.14168)
(50.0096 -41.2378 -3.20893)
(46.0114 -26.6527 1.42413)
(37.6852 2.67173 4.95852)
(33.3469 26.8497 1.23279)
(36.6137 31.7719 -4.63812)
(42.7894 25.7344 -6.6033)
(48.012 21.8991 -5.9418)
(49.9482 19.409 -5.3939)
(47.8215 11.5177 -4.00893)
(37.9516 4.00312 -1.05558)
(34.0327 4.44508 -0.136058)
(24.8337 11.3902 2.64845)
(10.1612 11.8073 5.23943)
(-4.44269 7.87513 6.49217)
(-15.6308 1.11576 5.61526)
(-22.7896 -3.8113 4.16792)
(-27.2509 -6.28927 2.82888)
(-29.9386 -7.02953 1.72432)
(-31.2637 -6.75017 0.839036)
(-31.3267 -6.00913 0.156904)
(-30.2023 -5.14088 -0.317563)
(-28.0518 -4.30894 -0.574243)
(-25.6043 -3.60074 -0.669281)
(-22.9161 -3.07302 -0.742603)
(19.7234 -1.35291 0.0763762)
(20.9782 -4.26729 1.84342)
(18.1978 1.81526 4.24582)
(16.3715 10.2477 7.50858)
(27.9305 -20.781 -0.653471)
(42.7102 -39.8948 -7.21604)
(44.8749 -43.1837 -4.37642)
(34.5074 -30.4146 1.44693)
(24.228 -6.72427 4.45579)
(24.6908 21.3715 1.19446)
(29.2954 28.1939 -2.80599)
(35.7348 27.2307 -6.21122)
(42.8428 21.7893 -5.05993)
(43.334 20.5915 -4.5848)
(28.3794 10.1403 1.39928)
(0.94709 3.2287 6.71467)
(-10.3064 2.70838 6.71719)
(-16.8407 1.29291 6.84708)
(-21.1408 -1.51054 6.59748)
(-24.5799 -5.37462 5.77937)
(-27.0487 -8.92512 4.62705)
(-28.5913 -11.0244 3.4801)
(-29.4786 -11.5031 2.49597)
(-30.0309 -10.7953 1.65448)
(-30.345 -9.45743 0.903491)
(-30.1952 -7.91364 0.243777)
(-29.2488 -6.39551 -0.277808)
(-27.2347 -5.00183 -0.591536)
(-24.8707 -3.84042 -0.721584)
(-22.2916 -3.01592 -0.798702)
(19.844 -1.11012 -0.286403)
(20.3703 -6.168 2.15848)
(19.3146 -2.20374 3.95837)
(17.4754 -1.39673 5.66489)
(28.5638 -24.2203 -2.35909)
(41.4182 -38.2028 -8.42774)
(36.6557 -41.4003 -2.77077)
(17.2623 -28.5138 3.29119)
(3.47508 -4.54449 4.49859)
(-18.7114 20.1787 -1.88744)
(30.0627 38.964 -7.7816)
(22.0683 41.9467 -9.81048)
(31.2737 20.9936 -2.1047)
(37.7178 25.7987 -3.06604)
(4.6438 7.92812 6.43198)
(-17.8513 -2.99208 7.63547)
(-26.4988 -7.67611 6.25836)
(-31.2851 -11.0082 5.44781)
(-33.1612 -13.8152 4.70285)
(-33.5523 -16.1902 3.86794)
(-32.9959 -17.6918 3.04479)
(-31.9506 -17.8803 2.36418)
(-30.783 -16.7859 1.83509)
(-29.8111 -14.7993 1.36734)
(-29.1717 -12.4044 0.876392)
(-28.6736 -9.98266 0.348272)
(-27.8262 -7.72221 -0.156011)
(-26.076 -5.68574 -0.514819)
(-23.8605 -3.99907 -0.695597)
(-21.4545 -2.84402 -0.788719)
(20.0803 -1.10548 -0.752978)
(18.5648 -8.92997 3.0412)
(17.4383 -6.90949 3.73541)
(17.31 -10.3753 4.11881)
(28.6092 -23.8084 -3.92027)
(38.5527 -33.5244 -9.3601)
(25.8427 -36.02 0.35663)
(-2.98606 -19.3389 5.01455)
(-16.8524 10.0296 2.47807)
(-37.5811 33.4212 -2.04446)
(-21.3528 60.5602 -18.6131)
(-49.3303 63.6529 -6.20629)
(-46.3339 -22.7131 -0.62311)
(21.1239 27.0188 -1.28939)
(-13.7271 0.401588 7.32669)
(-29.1466 -10.1267 6.5791)
(-35.2229 -15.8992 4.44918)
(-38.012 -19.7488 3.27375)
(-38.0463 -22.2236 2.4479)
(-36.6292 -23.5409 1.79039)
(-34.4688 -23.7256 1.31294)
(-32.1746 -22.7628 1.04727)
(-30.1163 -20.789 0.932762)
(-28.4892 -18.0902 0.839528)
(-27.3488 -15.0278 0.657954)
(-26.6081 -11.946 0.358187)
(-25.8625 -9.03854 -0.0152335)
(-24.4825 -6.38496 -0.339636)
(-22.5501 -4.15776 -0.542727)
(-20.4338 -2.65981 -0.656018)
(20.3827 -1.02879 -0.394819)
(17.7763 -8.71177 3.01092)
(15.7933 -8.21937 3.22261)
(18.1072 -14.9389 1.37749)
(28.1516 -20.347 -5.89232)
(34.5864 -26.1454 -10.2093)
(15.8596 -27.7034 3.18234)
(-22.7496 -6.37951 4.41033)
(-33.2117 19.1278 0.519653)
(-33.6148 32.9814 -0.750884)
(-24.755 68.8954 -8.1786)
(43.9456 -41.755 6.24404)
(1.76318 26.3728 2.62121)
(-25.6627 -6.95552 6.72337)
(-36.9042 -16.257 4.69344)
(-40.4268 -21.8875 2.27227)
(-40.9759 -25.2933 1.10233)
(-39.2312 -27.0183 0.381994)
(-36.3665 -27.3964 -0.0791009)
(-33.0262 -26.6699 -0.297944)
(-29.9448 -25.0675 -0.272555)
(-27.496 -22.7683 -0.0731665)
(-25.7332 -19.9251 0.148997)
(-24.4875 -16.7073 0.252437)
(-23.7275 -13.3785 0.191268)
(-23.1295 -10.1172 0.00460977)
(-22.2174 -7.04603 -0.190014)
(-20.7301 -4.38072 -0.319052)
(-19.0476 -2.58329 -0.400625)
(20.2145 -0.498833 0.738807)
(17.9499 -6.31669 1.53862)
(16.8837 -9.28545 1.02478)
(19.3253 -15.2144 -2.00146)
(27.3665 -16.1772 -7.58759)
(30.9826 -19.2365 -10.7651)
(12.0174 -20.224 4.07849)
(-29.4926 -7.09936 5.9591)
(-39.2007 12.0247 0.109337)
(-29.7456 20.1862 -0.513858)
(-26.6463 27.1807 9.08773)
(21.724 -7.60363 -14.1146)
(-37.6468 18.1151 -5.95126)
(12.3285 16.3765 10.1927)
(-33.6265 -11.6732 5.40555)
(-42.0403 -20.4276 2.50113)
(-43.0297 -25.1522 0.260575)
(-41.3239 -27.5126 -0.689062)
(-37.9722 -28.2881 -1.26302)
(-34.0966 -27.9319 -1.5957)
(-30.1501 -26.7292 -1.67297)
(-26.615 -24.8994 -1.48882)
(-23.7986 -22.6127 -1.09827)
(-21.8154 -19.972 -0.6353)
(-20.5947 -17.0438 -0.270614)
(-19.9395 -13.8959 -0.104329)
(-19.5645 -10.6565 -0.124948)
(-19.1115 -7.48252 -0.201592)
(-18.1267 -4.62934 -0.242999)
(-16.9675 -2.7021 -0.283773)
(19.8628 -0.462534 1.27069)
(18.82 -3.23946 0.617295)
(17.4942 -7.52961 -0.721458)
(19.1104 -12.4238 -3.44827)
(26.1793 -13.0628 -8.19194)
(27.8175 -14.8459 -10.7701)
(12.5615 -13.8897 3.65558)
(-30.56 -0.251952 4.08779)
(-38.7353 19.8326 -5.90558)
(-40.5526 35.5378 -14.2653)
(-35.7939 66.0697 -16.0233)
(4.37427 5.94844 -7.2495)
(2.98108 -1.74042 1.2252)
(-2.25316 -1.8121 4.3466)
(-41.2838 -15.3564 3.04455)
(-45.1975 -22.3607 0.297271)
(-43.6549 -25.6708 -1.33498)
(-40.6585 -27.0327 -2.07574)
(-36.6441 -27.16 -2.56646)
(-32.1948 -26.3468 -2.82554)
(-27.7938 -24.9049 -2.82022)
(-23.8909 -23.0634 -2.54)
(-20.7481 -20.9768 -2.05234)
(-18.4471 -18.6972 -1.46111)
(-16.9132 -16.214 -0.90927)
(-16.0133 -13.4951 -0.517323)
(-15.5696 -10.5578 -0.336543)
(-15.2972 -7.51074 -0.280673)
(-14.7238 -4.65027 -0.274223)
(-14.1408 -2.72976 -0.358279)
(19.9007 -0.85721 0.607675)
(20.0661 -1.19073 0.735973)
(17.5491 -5.1656 0.954037)
(17.7943 -9.39819 -1.66984)
(25.033 -10.6796 -7.62236)
(25.3731 -11.3518 -10.7192)
(16.0596 -9.37571 2.24668)
(-30.513 13.8861 1.30962)
(-32.4862 36.7996 -11.0342)
(-40.0362 55.7252 -15.1921)
(-31.4073 62.4312 -8.67585)
(-3.37051 -16.5679 9.38913)
(-32.8409 -11.3668 6.67149)
(-42.8915 -14.6783 3.68287)
(-47.886 -18.3753 0.763873)
(-46.5831 -22.2608 -1.48639)
(-44.0476 -24.1198 -2.55147)
(-40.2325 -24.6262 -3.20986)
(-35.6596 -24.206 -3.62204)
(-30.7724 -23.115 -3.79219)
(-26.0466 -21.622 -3.70297)
(-21.8786 -19.9327 -3.36497)
(-18.4804 -18.1647 -2.8494)
(-15.8806 -16.3507 -2.23772)
(-13.9706 -14.4346 -1.62191)
(-12.6045 -12.3159 -1.09822)
(-11.6758 -9.91131 -0.720666)
(-11.0645 -7.21302 -0.444082)
(-10.4916 -4.46388 -0.277814)
(-10.3586 -2.58426 -0.387202)
(20.0428 -0.681193 -0.114821)
(20.34 -1.20402 0.336098)
(17.461 -4.43528 2.10173)
(17.1616 -6.47002 -0.231045)
(24.5987 -7.58726 -6.69508)
(24.7989 -7.47051 -10.1385)
(24.3822 -7.01301 -1.45323)
(-21.9606 25.0534 5.09259)
(-28.4804 51.5485 -7.85639)
(-36.0419 62.9621 -8.10434)
(-18.857 39.8439 2.24462)
(-17.849 -16.0867 8.95249)
(-41.2999 -12.5759 5.29473)
(-47.9693 -16.4652 1.57542)
(-49.7986 -18.6501 -1.09888)
(-47.6351 -20.3861 -2.5802)
(-44.4857 -20.9332 -3.45801)
(-40.1656 -20.7035 -4.05222)
(-35.1856 -19.8844 -4.3946)
(-30.0034 -18.6874 -4.46852)
(-25.0656 -17.32 -4.28345)
(-20.7201 -15.9324 -3.89085)
(-17.135 -14.5906 -3.36685)
(-14.287 -13.2911 -2.80021)
(-12.0282 -11.9601 -2.2518)
(-10.1712 -10.4894 -1.76818)
(-8.56241 -8.76071 -1.36453)
(-7.06543 -6.67305 -0.964408)
(-5.50341 -4.27055 -0.580096)
(-4.72437 -2.4628 -0.622269)
(19.9778 -0.307475 -0.0829528)
(19.8242 -1.33251 0.35302)
(17.645 -3.06034 0.648083)
(17.6509 -3.21644 -1.31705)
(24.3521 -4.32674 -5.99913)
(26.4128 -4.70618 -9.20539)
(29.1194 -5.50765 -5.48997)
(-1.78801 23.9418 9.78307)
(-19.9907 52.8868 -0.103347)
(-24.2757 50.5923 0.69424)
(-3.88794 14.0717 8.60456)
(-22.8033 -15.3582 8.03788)
(-44.2211 -13.9169 3.76876)
(-50.6313 -16.1584 -0.112647)
(-50.7603 -16.7824 -2.13918)
(-48.729 -17.0004 -3.23623)
(-45.1725 -16.5724 -3.99726)
(-40.5798 -15.7737 -4.50552)
(-35.3721 -14.7381 -4.76657)
(-30.0211 -13.6041 -4.75653)
(-24.9536 -12.5098 -4.49984)
(-20.4832 -11.5346 -4.06594)
(-16.74 -10.688 -3.55395)
(-13.683 -9.92116 -3.04898)
(-11.1496 -9.14532 -2.61405)
(-8.92813 -8.26113 -2.28314)
(-6.8131 -7.1804 -2.04305)
(-4.5129 -5.83081 -1.80075)
(-1.32385 -4.14743 -1.52617)
(4.27497 -2.63317 -1.9557)
(19.936 -0.258458 0.00754563)
(19.4771 -1.07013 0.246856)
(18.2057 -1.36136 -0.0435254)
(18.3857 -0.463815 -1.35149)
(23.5966 -1.72394 -4.73257)
(27.549 -3.66095 -7.9635)
(31.7534 -5.22418 -8.08083)
(18.0752 14.5753 9.39511)
(-8.2304 43.2439 5.80358)
(-9.63938 31.1154 5.29866)
(14.3699 -4.55166 8.63803)
(-26.7234 -12.2542 7.7509)
(-46.3063 -12.8283 2.24227)
(-52.2013 -13.9082 -1.1553)
(-52.0091 -13.4812 -2.67086)
(-49.8454 -12.6683 -3.51125)
(-46.1986 -11.614 -4.09422)
(-41.5177 -10.495 -4.47759)
(-36.2428 -9.43302 -4.6403)
(-30.8307 -8.51059 -4.56324)
(-25.6889 -7.79143 -4.27784)
(-21.1053 -7.28211 -3.85685)
(-17.1974 -6.93349 -3.39596)
(-13.9309 -6.6572 -2.97602)
(-11.1634 -6.35409 -2.65742)
(-8.70525 -5.94011 -2.47567)
(-6.37194 -5.3652 -2.42294)
(-3.91023 -4.62393 -2.41267)
(-0.962491 -3.74031 -2.35372)
(5.67675 -2.41652 -3.1515)
(19.9618 -0.211569 0.0332459)
(19.6396 -0.50524 0.00456084)
(18.9558 -0.293551 -0.0634249)
(18.894 0.434744 -0.491624)
(22.2272 -0.500923 -2.53622)
(27.0342 -2.73191 -4.9711)
(32.3072 -3.35234 -6.84623)
(31.1144 5.2119 3.63635)
(5.55641 27.5832 8.09484)
(9.69044 11.6724 6.35933)
(8.96607 -7.94462 8.20182)
(-32.1396 -9.0235 6.69536)
(-48.7558 -10.2659 0.99673)
(-53.3117 -10.3168 -1.76288)
(-53.2571 -9.35061 -2.81159)
(-51.0561 -8.08244 -3.37016)
(-47.4647 -6.79242 -3.7246)
(-42.8495 -5.65264 -3.94045)
(-37.623 -4.76363 -4.00244)
(-32.2194 -4.16068 -3.89377)
(-27.026 -3.84178 -3.64236)
(-22.3191 -3.75198 -3.30608)
(-18.2264 -3.79836 -2.95693)
(-14.7391 -3.8765 -2.65869)
(-11.7467 -3.89609 -2.45945)
(-9.09229 -3.79636 -2.39185)
(-6.62003 -3.55455 -2.45627)
(-4.09207 -3.1898 -2.58091)
(-1.20913 -2.73566 -2.66508)
(5.49781 -1.82583 -3.73327)
(20.0036 -0.116408 0.0237624)
(19.8334 -0.133686 0.0202689)
(19.2517 -0.0259188 0.0859229)
(18.9258 0.0182061 -0.386998)
(21.3189 -0.559213 -1.82264)
(26.252 -1.38412 -2.57965)
(31.8975 -1.02064 -3.38947)
(35.7783 1.78288 -0.876968)
(22.096 10.4896 5.32818)
(28.0871 1.78825 4.80079)
(11.2937 -6.06282 7.84621)
(-34.1711 -5.99755 5.91008)
(-50.6243 -6.55666 0.328363)
(-54.38 -6.11309 -1.93945)
(-54.37 -5.10464 -2.59362)
(-52.2242 -3.96022 -2.85096)
(-48.745 -2.89777 -2.97307)
(-44.2519 -2.06189 -3.03649)
(-39.1168 -1.51816 -3.03744)
(-33.7421 -1.26199 -2.9577)
(-28.5013 -1.24821 -2.80763)
(-23.6737 -1.39669 -2.61397)
(-19.408 -1.616 -2.41685)
(-15.7261 -1.82436 -2.25843)
(-12.5501 -1.96263 -2.17433)
(-9.74632 -2.00088 -2.19167)
(-7.16818 -1.93492 -2.31281)
(-4.55763 -1.78561 -2.47261)
(-1.54078 -1.59869 -2.64191)
(5.0842 -1.08382 -3.87076)
(20.0267 -0.0361301 0.0261601)
(19.8888 -0.0368654 0.0911866)
(19.2347 -0.0381632 0.170335)
(18.8966 -0.120546 -0.414455)
(21.2703 -0.330573 -1.95561)
(26.508 -0.373365 -2.3584)
(31.3023 -0.0606749 -1.76108)
(34.5066 0.968623 -1.0414)
(33.2598 1.57705 1.35836)
(37.9542 -1.06391 1.55962)
(15.0405 -2.46338 7.0831)
(-34.6087 -2.08254 5.61495)
(-51.5236 -2.17916 0.185852)
(-55.1694 -1.90144 -1.77849)
(-55.185 -1.45837 -2.15755)
(-53.1012 -0.997444 -2.19683)
(-49.7094 -0.599301 -2.17258)
(-45.307 -0.314205 -2.17087)
(-40.237 -0.158767 -2.18647)
(-34.8849 -0.119753 -2.18707)
(-29.6193 -0.168905 -2.15801)
(-24.7253 -0.269129 -2.09886)
(-20.3673 -0.384563 -2.02717)
(-16.5874 -0.487081 -1.97193)
(-13.3272 -0.558478 -1.96425)
(-10.465 -0.58988 -2.0221)
(-7.84492 -0.581518 -2.14512)
(-5.1774 -0.542969 -2.30748)
(-2.00537 -0.499452 -2.51664)
(4.39431 -0.330556 -3.7749)
(19.9949 0.244888 -0.369117)
(20.0709 1.19134 0.372586)
(8.83489 4.21692 -7.02198)
(7.87297 2.10682 -19.0137)
(19.4261 -3.49197 -21.9277)
(34.0451 -4.8729 -20.7342)
(46.3798 -2.28371 -18.642)
(52.4409 1.384 -16.1312)
(49.8194 3.80615 -13.7737)
(39.4525 4.25408 -10.9632)
(28.0087 3.1357 -6.93394)
(20.7508 1.66237 -2.93172)
(17.5405 0.558885 -0.177872)
(18.3467 0.121513 -0.452287)
(24.2706 0.629796 -4.76383)
(30.8429 1.33847 -5.74217)
(33.2973 1.30987 -2.01329)
(32.0897 0.748763 2.91571)
(29.2416 0.194847 4.81447)
(26.0183 0.156261 4.05247)
(4.60952 2.19197 10.3063)
(-21.0475 2.53364 11.8684)
(-35.6225 0.950356 7.42246)
(-36.9009 -0.311233 3.39012)
(-35.2409 -0.783513 1.42533)
(-33.1527 -1.08556 0.560422)
(-31.0273 -1.32877 0.293467)
(-28.7706 -1.52615 0.416511)
(-25.8976 -1.69889 0.732079)
(-22.5927 -1.86252 0.931469)
(19.9944 0.54399 -0.359295)
(20.9736 3.19543 0.578523)
(14.0002 11.1112 -5.15181)
(14.0287 8.47711 -11.8463)
(22.6548 -2.08922 -9.75489)
(33.8416 -7.93581 -6.38913)
(43.2519 -5.86549 -6.56759)
(49.9569 1.93389 -8.85082)
(50.135 9.03172 -10.178)
(42.4059 11.1706 -9.61867)
(32.9472 8.81821 -6.89736)
(27.1162 5.14617 -3.46526)
(25.2954 2.21184 -0.291401)
(23.1255 1.24802 1.1277)
(22.6487 3.12217 -4.54043)
(25.6021 4.2038 -5.66537)
(27.7429 3.30488 -0.330498)
(28.1865 0.807055 5.42097)
(26.374 -1.0599 6.41573)
(17.6165 1.88016 6.65745)
(-11.3081 7.86232 12.52)
(-30.9227 6.51396 10.5629)
(-36.9407 2.76572 5.34011)
(-35.23 0.463011 1.70835)
(-33.3615 -0.639002 -0.295748)
(-31.8089 -1.24332 -1.31614)
(-29.8007 -1.59347 -1.77837)
(-27.624 -1.77601 -1.86742)
(-25.0614 -1.89624 -1.73658)
(-22.2253 -2.05694 -1.6548)
(20.0965 0.467837 -0.229279)
(22.4043 4.3432 0.860328)
(19.3628 15.038 -3.49774)
(18.7524 12.5606 -5.32223)
(25.2121 -5.10734 2.82289)
(37.0576 -16.9277 8.95211)
(46.0945 -13.8014 9.67118)
(50.7617 -1.6268 3.40581)
(50.9011 10.9877 -3.81336)
(45.1792 15.7558 -6.86873)
(38.4599 12.7524 -6.05901)
(35.051 6.98143 -3.85523)
(34.7876 3.0554 -1.47797)
(30.9083 3.21385 0.211406)
(23.4297 5.27589 -3.33818)
(25.0504 5.26138 -1.05283)
(31.0814 1.87887 4.5442)
(32.8419 -2.54677 7.4482)
(23.7669 -1.83293 7.13418)
(-4.63882 8.46241 10.5331)
(-26.8884 10.6901 12.1569)
(-37.4232 6.17312 8.90157)
(-38.1528 1.67107 4.85018)
(-35.9082 -0.567601 1.99461)
(-33.3379 -1.64309 0.191853)
(-31.4141 -2.23019 -0.880551)
(-29.2782 -2.54036 -1.45227)
(-27.0334 -2.66704 -1.65161)
(-24.4358 -2.71564 -1.61338)
(-21.5183 -2.79826 -1.61782)
(20.0765 0.160019 0.0377359)
(23.6143 4.10643 1.35029)
(22.7481 16.0698 -1.97086)
(20.1082 12.6977 0.517706)
(25.2347 -18.534 11.0927)
(38.3922 -34.4837 15.3133)
(50.0299 -26.9807 16.8937)
(56.0756 -7.53141 13.7854)
(54.1604 10.2636 4.30818)
(48.1472 17.6636 -2.51119)
(43.2669 14.5203 -4.40532)
(42.8741 7.92099 -4.106)
(42.6117 4.62609 -2.66594)
(37.897 5.30931 -1.088)
(34.2959 5.78287 -0.307664)
(38.9747 2.34746 1.96793)
(42.6184 -2.42556 4.33132)
(32.9827 -2.97642 5.73237)
(0.863127 6.56457 9.15584)
(-23.6051 11.5663 11.8996)
(-35.9976 8.75777 11.3613)
(-40.4694 2.84153 8.39257)
(-40.2185 -0.919462 5.29763)
(-37.6539 -2.57445 2.80475)
(-34.4112 -3.26415 1.04937)
(-31.579 -3.54903 -0.11634)
(-29.4193 -3.64824 -0.840848)
(-27.1979 -3.61315 -1.15981)
(-24.6648 -3.53142 -1.16535)
(-21.7977 -3.48805 -1.16329)
(19.6148 -0.317771 0.320108)
(23.4791 1.98875 1.93345)
(24.3489 15.4926 -0.397686)
(18.4938 7.10167 7.09721)
(24.8999 -27.9581 11.6409)
(38.3017 -44.8906 11.761)
(47.6885 -42.2139 15.1409)
(56.0886 -17.6584 17.3738)
(57.7756 10.3995 11.139)
(51.8193 20.6597 2.86306)
(48.3364 16.9836 -2.07592)
(48.7893 10.1335 -4.0904)
(45.3159 7.23077 -3.38537)
(42.6081 6.16965 -1.8777)
(44.8113 2.8532 -0.44676)
(47.2165 -1.8072 1.04852)
(37.436 -1.78822 3.23279)
(6.72962 6.03652 7.75489)
(-17.8244 10.739 11.4564)
(-31.6497 9.35927 12.7277)
(-38.9545 3.61372 11.5149)
(-41.6177 -2.0118 8.77483)
(-41.1229 -4.8859 5.96588)
(-38.402 -5.82574 3.60685)
(-34.8694 -5.8211 1.78717)
(-31.5943 -5.49505 0.454354)
(-29.1763 -5.1324 -0.456855)
(-27.0787 -4.768 -0.957058)
(-24.6835 -4.42395 -1.07768)
(-21.9447 -4.18177 -1.10514)
(18.9815 -1.09203 0.592701)
(22.2498 -1.1429 2.462)
(24.4532 14.3446 1.51014)
(17.1421 4.29224 11.317)
(24.922 -30.5008 4.6372)
(35.6957 -42.1638 1.7713)
(39.6174 -43.247 6.59448)
(46.7928 -26.8724 13.8142)
(52.77 7.51426 14.2288)
(50.9284 23.3228 6.5901)
(50.5817 20.9305 -1.05859)
(46.5002 14.433 -5.04639)
(42.9992 10.3349 -4.41086)
(41.9234 7.22658 -1.62083)
(39.2821 3.05226 1.42351)
(24.4769 2.07047 4.24835)
(3.88345 6.69744 7.98048)
(-13.766 9.52962 11.6654)
(-26.3754 8.35921 13.938)
(-35.1672 3.40575 14.1246)
(-40.3261 -3.42195 12.0769)
(-41.8888 -8.12567 9.24362)
(-40.6787 -10.0775 6.58771)
(-37.8296 -10.1578 4.32487)
(-34.307 -9.25103 2.46396)
(-30.9225 -8.04607 0.96675)
(-28.3302 -6.95293 -0.155009)
(-26.4622 -6.04638 -0.848843)
(-24.2636 -5.26617 -1.10601)
(-21.6968 -4.72323 -1.16993)
(18.918 -1.89128 0.747348)
(21.7519 -3.97799 3.11324)
(22.9951 12.1878 4.15001)
(17.2392 3.16091 11.4743)
(23.8432 -31.0841 -1.86213)
(30.4727 -36.5119 -4.04753)
(27.49 -36.3301 0.41297)
(29.4476 -29.4621 7.80085)
(37.268 2.4911 12.8794)
(42.157 22.7074 6.5347)
(43.7882 25.122 -3.56006)
(33.5126 18.3712 -4.95925)
(27.6671 14.0447 0.58108)
(8.39775 9.34025 5.85238)
(-8.04475 3.52445 9.92973)
(-21.9271 2.16798 12.419)
(-28.8675 3.00381 13.8185)
(-34.5635 1.99985 15.2132)
(-38.9491 -1.87073 15.3221)
(-41.6896 -7.32948 13.9464)
(-42.1839 -12.2709 11.4748)
(-40.9234 -15.1246 8.86533)
(-38.6595 -15.8572 6.57533)
(-35.7873 -14.9999 4.63767)
(-32.5583 -13.1864 2.94187)
(-29.3861 -11.0461 1.41706)
(-26.8688 -9.06786 0.121885)
(-25.297 -7.43326 -0.7693)
(-23.352 -6.07549 -1.17587)
(-21.0021 -5.15272 -1.29361)
(19.4583 -2.32589 0.616641)
(23.4484 -5.30471 3.09634)
(21.8115 9.75652 5.988)
(17.6379 0.863794 9.84487)
(24.3704 -30.5785 -3.96877)
(26.1727 -33.8778 -2.83479)
(17.6909 -30.8789 -1.25661)
(11.9671 -28.0387 1.795)
(17.5815 -1.50275 8.34362)
(29.1626 23.26 2.12304)
(33.5944 31.1169 -5.34752)
(21.3354 22.1726 -1.52584)
(10.6652 16.3649 1.96211)
(-3.57523 12.1558 5.19864)
(-30.1742 -1.51834 14.6811)
(-41.9309 -6.53825 15.3464)
(-45.1284 -8.84005 14.6571)
(-46.1703 -11.5577 14.3399)
(-45.1071 -14.6529 13.3837)
(-42.9097 -17.9117 11.6125)
(-40.0476 -20.4098 9.39799)
(-37.1559 -21.495 7.32388)
(-34.4968 -21.0958 5.64853)
(-32.0037 -19.4669 4.28075)
(-29.4812 -16.9868 3.01392)
(-26.9368 -14.1077 1.69989)
(-24.7948 -11.2967 0.383569)
(-23.5705 -8.85584 -0.660247)
(-21.9593 -6.81601 -1.21494)
(-19.9149 -5.44085 -1.40168)
(20.0465 -2.5596 0.162409)
(24.5045 -6.71097 2.37917)
(20.5995 6.91786 6.55179)
(18.1859 -2.39365 8.78732)
(25.9613 -27.5038 -4.09282)
(18.9779 -32.5594 1.33462)
(6.64491 -29.2614 1.57375)
(0.264193 -20.1414 -3.51186)
(2.55483 4.00684 3.96904)
(0.846555 33.1885 3.68975)
(9.38524 42.4817 3.80606)
(-40.2557 -0.258799 19.8282)
(-22.7962 8.85741 9.97996)
(-20.0403 6.43351 6.34104)
(-39.2299 -6.56822 15.8188)
(-45.1042 -13.5714 14.1967)
(-44.9699 -17.4183 12.2694)
(-43.7811 -20.5539 11.0975)
(-41.0052 -23.0732 9.72763)
(-37.5206 -24.9455 8.0089)
(-33.8614 -25.9354 6.23586)
(-30.7016 -25.8484 4.80875)
(-28.296 -24.7095 3.85025)
(-26.5149 -22.6708 3.18789)
(-24.9983 -19.9189 2.54162)
(-23.4541 -16.6957 1.67446)
(-22.0478 -13.3415 0.564205)
(-21.2742 -10.2007 -0.492857)
(-20.0892 -7.47369 -1.15971)
(-18.4626 -5.60678 -1.43269)
(20.2161 -2.3042 0.0857262)
(22.2865 -8.69995 1.97554)
(17.6144 4.51055 6.18043)
(19.3198 -5.27332 7.32844)
(26.799 -22.7401 -4.15987)
(8.77114 -30.2338 5.37051)
(-7.95992 -25.9562 6.29389)
(-9.57423 -8.58099 -1.47591)
(-13.0091 19.5962 2.84152)
(-25.6153 41.2021 8.48045)
(-78.8346 37.9903 12.6649)
(-104.821 -19.5135 -44.0453)
(-24.5203 -7.86432 -17.0428)
(-53.436 -33.3273 -6.89491)
(-42.8477 -12.1876 14.442)
(-43.6448 -19.0755 11.5662)
(-40.6498 -23.1488 8.78397)
(-37.8117 -26.0785 7.12002)
(-34.175 -27.9271 5.53665)
(-30.3354 -28.7937 3.93769)
(-26.5968 -28.7566 2.57544)
(-23.5221 -27.891 1.73916)
(-21.3853 -26.314 1.44914)
(-20.1413 -24.1499 1.47352)
(-19.4895 -21.4726 1.49883)
(-18.9727 -18.3166 1.21939)
(-18.4956 -14.8248 0.527909)
(-18.3331 -11.2648 -0.333177)
(-17.6865 -7.96932 -0.997916)
(-16.5943 -5.63686 -1.35009)
(19.5601 -1.59009 0.577329)
(18.1756 -9.75714 0.688642)
(15.119 -3.12087 4.85005)
(21.49 -9.04507 3.28367)
(26.2314 -17.5596 -5.43175)
(1.24352 -25.5089 8.22972)
(-21.1905 -16.6329 12.0822)
(-30.0041 7.67325 5.73104)
(-28.5134 27.9929 6.74654)
(-24.455 36.7011 9.82271)
(-15.0663 7.11211 6.60318)
(-22.6367 -18.8839 -34.9091)
(-43.3102 -16.8491 12.1288)
(-40.3585 -22.9842 8.14176)
(-35.6246 -26.6548 4.89303)
(-32.0944 -29.0389 2.96951)
(-28.2839 -30.2009 1.35801)
(-24.4177 -30.2774 -0.0515535)
(-20.77 -29.5272 -1.04835)
(-17.6816 -28.112 -1.41121)
(-15.4852 -26.215 -1.16588)
(-14.2724 -24.0059 -0.592523)
(-13.974 -21.5502 0.0158019)
(-14.0551 -18.7312 0.326506)
(-14.2951 -15.4809 0.157141)
(-14.6728 -11.8608 -0.32355)
(-14.5816 -8.20549 -0.818073)
(-14.0971 -5.4832 -1.19255)
(18.6684 -0.944399 0.978503)
(14.8933 -10.5096 -1.70879)
(15.7555 -9.4672 -0.980354)
(23.6774 -11.0729 -3.97499)
(24.779 -13.845 -7.84463)
(0.493565 -20.3253 8.97835)
(-27.0639 -10.2783 17.0992)
(-42.814 10.7906 12.3087)
(-35.7769 23.8099 7.24844)
(-36.9755 22.3149 -3.11089)
(-3.28831 4.82128 -17.4456)
(29.1496 66.1761 -78.4659)
(-58.5092 -8.86108 -7.73601)
(-43.5031 -8.83191 -0.747159)
(-42.5182 -20.2517 9.29107)
(-36.6114 -25.367 4.32189)
(-31.8156 -28.3785 1.00882)
(-28.5401 -30.2019 -0.958124)
(-25.071 -30.8121 -2.50314)
(-21.1147 -30.2394 -3.66862)
(-17.1802 -28.8778 -4.28542)
(-13.7762 -27.0285 -4.25547)
(-11.4124 -24.916 -3.61604)
(-10.0747 -22.6988 -2.67386)
(-9.60853 -20.4137 -1.6648)
(-9.68317 -17.9777 -0.89301)
(-10.0346 -15.2018 -0.570693)
(-10.5004 -11.8994 -0.593411)
(-10.6316 -8.19903 -0.774625)
(-10.5628 -5.20842 -1.11862)
(19.0085 -0.85537 1.27276)
(15.1249 -7.35755 -2.80681)
(16.9681 -7.32366 -6.54388)
(23.1723 -10.032 -9.31947)
(22.9808 -12.3334 -9.72199)
(5.05604 -16.2225 7.3353)
(-21.1177 -5.03618 18.6468)
(-42.7203 18.5619 11.7998)
(-34.9696 30.6617 -2.81378)
(-45.9484 23.5509 -21.4898)
(-55.1047 10.7507 -32.58)
(-47.342 -11.556 -8.76881)
(-50.9536 -17.4746 9.7963)
(-51.4131 -17.5527 9.73847)
(-40.2201 -22.7021 5.26255)
(-33.8085 -26.3947 0.455246)
(-30.3574 -28.7616 -2.53813)
(-26.9083 -29.8301 -4.43684)
(-22.9191 -29.6523 -5.86378)
(-18.5557 -28.4629 -6.76367)
(-14.3465 -26.6649 -7.01591)
(-10.7806 -24.6032 -6.62321)
(-8.25476 -22.4763 -5.7075)
(-6.796 -20.3803 -4.51815)
(-6.21346 -18.3368 -3.27271)
(-6.17071 -16.278 -2.22072)
(-6.3202 -14.0211 -1.556)
(-6.48341 -11.3024 -1.18334)
(-6.22553 -7.97334 -0.998671)
(-5.76586 -4.95957 -1.29345)
(19.8112 -1.7001 0.665858)
(19.0997 -2.06417 -1.03108)
(17.2988 -4.81139 -4.6062)
(19.4745 -9.45108 -8.64868)
(20.9778 -10.4124 -9.75186)
(7.54296 -9.98534 6.63471)
(-11.3047 3.74309 17.0184)
(-31.6226 28.9064 4.68424)
(-32.3114 34.5669 -14.113)
(-44.5053 17.8332 -13.5767)
(-44.9159 -5.31179 9.2171)
(-40.6513 -24.3054 15.3443)
(-48.6299 -18.2112 11.6092)
(-42.8176 -21.9771 6.03534)
(-37.7245 -23.938 1.11326)
(-33.2069 -26.2591 -2.98811)
(-29.9528 -27.5387 -5.57977)
(-26.028 -27.703 -7.40524)
(-21.6126 -26.8303 -8.66187)
(-16.9484 -25.2264 -9.27884)
(-12.5389 -23.2453 -9.18701)
(-8.88565 -21.1695 -8.46534)
(-6.23795 -19.158 -7.33699)
(-4.64167 -17.3035 -5.98494)
(-3.89341 -15.5868 -4.62416)
(-3.63828 -13.9139 -3.46061)
(-3.52124 -12.1323 -2.63357)
(-3.29539 -10.0352 -2.03147)
(-2.34558 -7.37496 -1.55092)
(-0.0487253 -4.69393 -1.8573)
(20.1937 -1.13967 -0.237905)
(20.8653 -1.22806 0.293892)
(16.7721 -5.05824 0.218323)
(16.7684 -7.56393 -5.93842)
(21.0432 -6.02062 -9.94234)
(12.2792 -2.86177 2.7364)
(-3.05098 12.6657 16.09)
(-26.5222 35.7662 5.73924)
(-36.7917 34.3767 -4.29508)
(-49.2711 20.8532 7.28031)
(-43.1258 -0.287961 20.0458)
(-44.7331 -25.0788 14.9511)
(-46.9064 -19.6343 9.05295)
(-40.7601 -22.8084 2.47711)
(-37.0871 -23.6222 -2.25138)
(-34.1169 -24.627 -5.65018)
(-30.4799 -24.7372 -8.00791)
(-26.2013 -24.0587 -9.69834)
(-21.4499 -22.6614 -10.7386)
(-16.5833 -20.8188 -11.0693)
(-12.0679 -18.852 -10.6835)
(-8.32435 -16.9646 -9.70866)
(-5.58169 -15.2679 -8.37416)
(-3.80493 -13.7826 -6.9354)
(-2.79095 -12.4525 -5.57502)
(-2.23357 -11.1919 -4.42955)
(-1.7873 -9.84731 -3.60948)
(-1.19428 -8.28275 -2.98784)
(0.109417 -6.32396 -2.38731)
(4.27955 -4.0859 -2.89133)
(20.2168 -0.197775 -0.209597)