/*--------------------------------*- C++ -*----------------------------------*\
| =========                 |                                                 |
| \\      /  F ield         | OpenFOAM: The Open Source CFD Toolbox           |
|  \\    /   O peration     | Version:  2512                                  |
|   \\  /    A nd           | Website:  www.openfoam.com                      |
|    \\/     M anipulation  |                                                 |
\*---------------------------------------------------------------------------*/
FoamFile
{
    version     2.0;
    format      ascii;
    arch        "LSB;label=32;scalar=64";
    class       volVectorField;
    location    "40";
    object      U;
}
// * * * * * * * * * * * * * * * * * * * * * * * * * * * * * * * * * * * * * //

dimensions      [0 1 -1 0 0 0 0];

internalField   nonuniform List<vector> 
90398
(
(22.481 1.64362 -3.94481)
(48.1418 7.22475 -17.3048)
(82.7713 8.08153 -22.9934)
(106.25 7.07595 -11.6959)
(98.1427 5.42409 0.822223)
(77.9382 2.99593 2.9024)
(69.6552 9.70795 0.865631)
(-6.19222 8.26733 10.1484)
(-64.2836 -2.60387 10.0472)
(-70.7403 -8.12822 5.90609)
(-63.6715 -10.1837 4.51865)
(-57.8324 -10.2018 4.66682)
(-53.1643 -9.20614 4.21624)
(-48.8846 -7.59235 3.55629)
(-45.1452 -6.02126 3.13184)
(-41.1313 -4.60789 2.82264)
(-37.0858 -3.46789 2.60147)
(-33.2259 -2.59296 2.34931)
(-29.5212 -2.15607 1.94866)
(-26.2074 -2.13194 1.31577)
(-23.5301 -2.40218 0.533799)
(-22.1454 -2.92158 -0.0214251)
(-20.6597 -3.4973 -0.191882)
(-17.8405 -3.5608 0.202161)
(-17.2311 -3.32177 0.997294)
(-15.4343 -2.80775 1.21146)
(-13.6537 -2.13347 1.13054)
(-13.0891 -1.27802 0.829109)
(-12.6034 -0.596702 0.331642)
(-7.93149 -0.926919 -0.0346045)
(27.0858 2.0392 -7.46111)
(57.9827 10.1023 -16.9241)
(85.2935 14.2809 -8.64226)
(94.3914 3.26505 1.23748)
(86.8276 -3.75986 6.90646)
(31.7062 24.881 8.13756)
(-34.3163 28.9926 10.8505)
(-75.6798 16.496 6.99476)
(-84.8099 4.11326 -1.81399)
(-78.2115 -3.84245 -6.76086)
(-69.491 -7.37996 -6.52392)
(-61.6853 -9.22215 -3.84751)
(-55.5504 -11.3703 -1.92434)
(-50.9208 -12.3351 -0.814601)
(-46.9517 -12.3875 0.186109)
(-42.3428 -11.6624 0.913698)
(-38.466 -10.4685 1.27324)
(-34.9267 -8.82986 1.34286)
(-31.2735 -7.07944 1.19261)
(-27.5972 -5.42363 0.790231)
(-24.7575 -4.46909 0.2657)
(-22.9019 -4.69164 -0.0347479)
(-20.5326 -5.16609 0.0119844)
(-18.0611 -4.8779 0.483895)
(-16.0885 -4.37359 0.868822)
(-14.3283 -4.09114 0.761364)
(-12.8434 -3.54188 0.473522)
(-11.3439 -2.70098 -0.0793153)
(-8.5649 -2.37971 -0.803615)
(-4.78877 -2.74367 -1.01374)
(28.8046 1.8484 -12.3481)
(55.8064 6.76881 -21.6858)
(84.5337 -11.3856 -18.2637)
(77.5568 -25.3966 -3.3215)
(-6.08959 27.606 14.6876)
(-66.4782 45.8826 14.7786)
(-97.6021 38.348 7.4675)
(-97.8195 25.0763 -2.49246)
(-89.1023 15.7938 -9.69946)
(-78.369 10.1771 -13.7003)
(-67.2563 7.17431 -13.9873)
(-56.5619 4.89293 -12.1672)
(-47.9467 1.08787 -9.66838)
(-42.3014 -3.14789 -7.08564)
(-39.0703 -7.00316 -4.68027)
(-36.6544 -9.86575 -2.84313)
(-34.8601 -11.4004 -1.77349)
(-32.8441 -11.5456 -1.33348)
(-30.2126 -10.6167 -0.990708)
(-26.637 -8.79451 -0.549282)
(-23.0723 -6.90064 -0.197423)
(-20.6486 -6.17821 -0.151297)
(-18.7244 -6.16214 -0.386534)
(-16.3044 -5.69037 -0.722076)
(-13.4385 -5.1777 -0.942559)
(-11.2026 -4.92161 -0.959807)
(-9.36519 -4.46703 -0.927575)
(-7.61588 -3.82506 -1.13031)
(-5.06971 -3.2586 -1.66011)
(-1.14392 -3.16428 -1.94759)
(26.7443 4.25675 -15.413)
(53.7727 3.35192 -27.1002)
(63.5109 -12.4115 -15.2593)
(1.91224 12.5714 14.1037)
(-59.3601 46.571 18.5211)
(-93.8554 53.2041 12.7734)
(-110.034 44.8669 2.83387)
(-105.881 33.8677 -5.1468)
(-94.428 28.0851 -10.1471)
(-81.4828 24.8856 -12.4661)
(-68.9086 22.1919 -12.7029)
(-56.8161 19.3944 -12.4685)
(-46.3182 15.5913 -11.7785)
(-38.6788 10.5344 -10.2527)
(-33.9253 4.78043 -8.22851)
(-30.9156 -0.661273 -6.07107)
(-29.234 -4.9053 -4.56191)
(-27.585 -7.59249 -3.88572)
(-26.0115 -8.89943 -3.35748)
(-23.6305 -8.73788 -2.50138)
(-21.0165 -7.6121 -1.52604)
(-18.9246 -6.90977 -1.10286)
(-16.7528 -6.72931 -1.23446)
(-14.2458 -5.94912 -1.38063)
(-12.3496 -4.83459 -1.38734)
(-10.6301 -4.03747 -1.42825)
(-8.49325 -3.66288 -1.55728)
(-6.30426 -3.43454 -1.84484)
(-3.70882 -3.19424 -2.35825)
(0.767643 -2.91701 -2.64247)
(24.273 9.03441 -18.7154)
(47.0064 11.5804 -30.6624)
(38.4428 7.65472 -1.18691)
(-12.8176 25.4874 20.0162)
(-51.0963 40.9677 21.117)
(-82.6131 45.1724 15.9878)
(-105.027 41.5082 7.53469)
(-109.918 34.8073 -0.856719)
(-99.9413 31.3075 -6.1623)
(-86.0583 33.0653 -8.05187)
(-72.8964 32.2166 -8.14951)
(-59.9041 29.4338 -8.69312)
(-48.1377 27.3128 -9.51994)
(-39.2738 22.8071 -9.17428)
(-33.1417 16.4469 -8.07262)
(-29.1891 9.76008 -6.63635)
(-27.0217 3.82369 -5.78201)
(-25.5288 -0.803506 -5.40955)
(-23.9318 -3.94738 -5.05141)
(-21.7123 -5.53153 -4.25716)
(-19.1692 -5.71598 -3.11552)
(-17.161 -5.64412 -2.31884)
(-15.5711 -5.63205 -2.08476)
(-14.0106 -4.76643 -1.99529)
(-12.593 -3.43124 -1.87028)
(-11.0475 -2.51213 -1.86056)
(-8.93661 -2.21947 -1.99889)
(-6.65464 -2.15154 -2.25817)
(-3.79632 -2.05487 -2.67845)
(0.462592 -1.77541 -2.92832)
(23.4001 17.1418 -19.8726)
(38.7451 26.2034 -25.4603)
(9.77518 14.1659 10.6848)
(-36.7519 2.68607 18.842)
(-61.7617 -0.128112 18.5396)
(-77.709 1.5415 19.2502)
(-86.7919 10.5395 19.1014)
(-91.2146 21.0649 13.6869)
(-92.5428 27.0483 4.38671)
(-88.8964 32.989 -1.6348)
(-77.8053 32.9629 -1.88139)
(-63.9999 31.5227 -2.98013)
(-50.3611 32.7579 -5.82977)
(-41.9966 30.5075 -6.19481)
(-35.5057 24.991 -5.63382)
(-30.7975 18.4432 -4.94571)
(-28.0054 12.0125 -4.90531)
(-26.2625 6.31685 -5.3778)
(-24.305 1.90431 -5.59638)
(-21.7945 -0.956391 -5.20636)
(-18.9417 -2.31597 -4.31891)
(-16.7855 -2.98169 -3.49687)
(-15.5011 -3.24593 -3.02708)
(-14.5991 -2.56349 -2.67251)
(-13.4589 -1.40776 -2.31149)
(-12.1082 -0.612104 -2.11696)
(-10.337 -0.458366 -2.0721)
(-8.16239 -0.54762 -2.10336)
(-4.97535 -0.564517 -2.31329)
(-0.594644 -0.437446 -2.42865)
(23.8905 24.6655 -17.7124)
(33.4284 38.7365 -17.444)
(-11.2622 13.577 12.8568)
(-67.6879 -13.9046 13.5245)
(-100.642 -30.0881 5.04906)
(-115.264 -40.5608 1.54064)
(-113.388 -43.5374 5.83193)
(-97.9079 -35.2583 15.0197)
(-75.3317 -11.6217 19.1662)
(-65.2428 18.6031 9.36208)
(-60.5655 17.7935 8.04639)
(-48.516 11.929 6.60847)
(-49.486 29.9029 -1.27019)
(-44.1233 32.5464 -2.70387)
(-39.8889 28.6478 -2.30507)
(-34.8921 23.1988 -2.38423)
(-31.3526 17.7777 -3.35734)
(-29.0761 12.1831 -4.62246)
(-26.4431 7.21027 -5.41272)
(-23.228 3.67208 -5.51998)
(-19.8681 1.58396 -5.03751)
(-17.5764 0.423676 -4.23237)
(-16.5997 -0.0544948 -3.5446)
(-16.0108 0.297991 -2.97522)
(-15.093 1.01199 -2.33148)
(-14.0616 1.39792 -1.75969)
(-12.7659 1.15988 -1.285)
(-10.9137 0.659929 -1.02601)
(-7.96619 0.480986 -1.15051)
(-4.35606 0.44562 -1.07396)
(24.8031 26.6931 -11.951)
(33.9515 45.393 -12.1691)
(-5.48332 17.0895 16.5241)
(-75.5541 -15.1818 15.2748)
(-116.19 -34.0156 0.182615)
(-134.21 -46.0524 -11.813)
(-134.921 -53.7362 -16.5804)
(-125.56 -60.487 -11.6737)
(-105.288 -64.1569 5.66436)
(-50.016 -41.9222 14.9585)
(-48.2246 -26.5089 4.06539)
(-15.705 -54.9418 8.02666)
(-28.0403 13.0775 5.75834)
(-32.5297 26.7753 1.92941)
(-42.799 30.6667 0.686494)
(-40.2045 23.5712 0.0276973)
(-36.1743 19.9179 -2.09306)
(-32.8648 15.9562 -3.98845)
(-29.7098 11.3071 -5.09077)
(-25.7336 7.66546 -5.51595)
(-21.89 5.39664 -5.20493)
(-19.424 4.11376 -4.29271)
(-18.5613 3.51328 -3.3275)
(-18.2309 3.46883 -2.42066)
(-17.765 3.45232 -1.36354)
(-17.4761 2.89943 -0.469826)
(-17.3443 1.91582 -0.0705058)
(-16.8925 1.14285 -0.212221)
(-15.4477 0.788936 -0.409446)
(-13.1374 0.297505 -0.322737)
(23.5179 22.1775 -4.3791)
(37.9614 46.5902 -7.43647)
(4.48464 18.1924 18.4373)
(-76.5442 -14.6964 17.6858)
(-118.29 -32.3678 3.82666)
(-133.887 -41.2743 -7.0845)
(-130.882 -42.6585 -16.6038)
(-117.084 -38.7353 -27.0446)
(-100.62 -81.577 -32.0285)
(-102.442 -101.928 2.92384)
(-60.8385 -22.906 -10.6504)
(2.86286 -66.7195 -3.53411)
(-19.6957 -13.9346 -1.93937)
(-29.3286 25.4042 -1.63496)
(-55.8088 22.1219 1.52003)
(-44.791 17.595 1.6436)
(-40.0328 18.6495 -0.909133)
(-36.9696 17.8275 -3.50422)
(-33.5593 14.2312 -4.75768)
(-29.2246 11.1233 -5.1305)
(-25.0747 9.18422 -4.62799)
(-22.4808 7.99801 -3.46676)
(-21.6412 7.14061 -2.25721)
(-21.7264 6.31758 -1.17742)
(-22.1338 5.20865 -0.241109)
(-22.6343 3.78878 0.0873596)
(-22.836 2.62002 -0.245458)
(-22.0013 1.90039 -0.675367)
(-20.0453 1.26932 -0.741396)
(-17.3661 0.599399 -0.640016)
(20.2724 14.2325 0.831226)
(43.0703 44.3458 -2.38183)
(7.58278 16.9369 18.3907)
(-73.2899 -12.4636 13.4988)
(-117.362 -27.266 2.8754)
(-137.631 -34.7587 -2.12492)
(-143.391 -36.6058 -6.18172)
(-139.056 -31.7706 -12.7889)
(-128.815 -30.7143 -20.1218)
(-113.112 -125.074 -22.3672)
(-31.8095 -11.3984 -36.7159)
(49.9342 -76.2868 2.3679)
(-14.8785 -0.0763685 -12.0463)
(-17.3305 21.4884 -5.73424)
(-16.4621 22.8146 6.20572)
(-46.0261 6.89469 6.08698)
(-41.2432 15.5712 1.13918)
(-40.7929 19.1693 -2.90765)
(-37.5455 16.4983 -4.1954)
(-33.2727 14.2585 -4.20674)
(-29.1117 12.7457 -3.3124)
(-26.688 11.4406 -2.01597)
(-26.0269 9.88903 -1.00579)
(-26.3128 8.01092 -0.447089)
(-26.8242 6.05478 -0.313523)
(-26.7245 4.34949 -0.614365)
(-25.6353 3.06229 -1.06464)
(-23.7131 2.06769 -1.28129)
(-21.0715 1.17666 -1.22517)
(-17.7539 0.433215 -1.15401)
(20.1192 4.99385 -0.708772)
(46.8595 39.6903 1.22101)
(24.8723 19.9784 15.724)
(-46.7795 -7.56985 8.80505)
(-99.5596 -18.1452 -0.526609)
(-123.174 -21.3075 -4.73976)
(-133.345 -19.483 -7.79034)
(-132.124 -12.5915 -11.4159)
(-145.587 13.0318 20.8276)
(-166.646 37.4224 -23.0561)
(30.5625 -81.0329 0.414287)
(12.4997 -36.696 17.29)
(52.8428 18.3132 -3.01697)
(52.8419 40.939 5.58821)
(1.59904 18.7514 10.1716)
(-37.5813 14.7099 4.97176)
(-43.9218 20.7132 -1.90298)
(-41.5712 18.5052 -3.38497)
(-37.5731 16.8716 -3.05815)
(-33.6879 15.4403 -2.01259)
(-31.6146 13.6715 -1.00539)
(-30.9623 11.4541 -0.613066)
(-30.8314 9.10019 -0.730987)
(-30.6665 7.03441 -1.10387)
(-29.7862 5.42699 -1.54384)
(-28.0169 4.14185 -1.92013)
(-25.7189 3.13833 -2.12022)
(-22.928 2.37315 -2.17522)
(-19.4758 1.79096 -2.23653)
(24.1352 -2.63549 -5.12169)
(51.8082 31.7828 -0.44992)
(53.453 26.7173 11.6805)
(9.49991 -4.3204 7.83241)
(-69.5027 -15.2395 2.58089)
(-101.31 -14.7978 -2.94625)
(-101.893 -12.7852 -7.32098)
(-88.8769 -9.26148 -16.446)
(-98.6557 -27.0958 -3.03734)
(-84.3509 -28.4402 -5.29882)
(-31.536 -24.5332 0.61918)
(-1.73441 -22.1137 -11.4408)
(3.15556 -8.59365 -12.0051)
(18.1563 40.6598 -16.9406)
(47.2132 40.3219 3.05236)
(20.1795 28.7065 9.02264)
(-37.9846 21.0686 6.40517)
(-47.3654 22.8595 -1.15822)
(-45.6022 20.4113 -2.66125)
(-41.8423 18.9824 -2.23347)
(-38.3262 17.4231 -1.39135)
(-36.4483 15.3184 -0.876153)
(-35.517 12.9468 -0.935208)
(-34.7646 10.7282 -1.28115)
(-33.8859 8.90353 -1.70618)
(-32.4163 7.48875 -2.10156)
(-30.1876 6.33596 -2.43281)
(-27.4894 5.4564 -2.65304)
(-24.3884 4.8645 -2.75695)
(-20.6894 4.43995 -2.84273)
(26.3662 -2.62662 -7.56109)
(56.2959 23.1641 -7.66587)
(77.3182 30.3596 3.22377)
(90.8987 10.1876 4.02662)
(-16.5713 -18.3158 8.59879)
(-89.8395 -12.5144 5.12088)
(-88.3733 2.99904 -0.16583)
(-69.9951 11.779 -7.55659)
(-53.0267 17.5392 -17.3881)
(-66.0942 14.1136 -16.3307)
(-34.7902 46.4568 -13.1103)
(27.6646 39.6613 -42.5546)
(37.5204 31.1468 -21.705)
(23.6031 33.8913 -4.27056)
(26.8759 28.8318 1.50055)
(-1.7577 30.6366 8.75549)
(-46.401 26.9728 5.06171)
(-51.9251 24.6408 -1.01175)
(-49.1947 21.9966 -2.19215)
(-45.3553 20.6489 -1.79953)
(-41.9804 19.0015 -1.28865)
(-39.9671 16.8145 -1.12976)
(-38.4851 14.5061 -1.28425)
(-36.9707 12.4723 -1.50947)
(-35.3308 10.8443 -1.77068)
(-33.3385 9.58222 -2.04043)
(-30.8056 8.57496 -2.28033)
(-27.8829 7.82898 -2.44734)
(-24.6843 7.40396 -2.51104)
(-21.0108 7.16207 -2.53075)
(28.2885 -2.01284 -8.00968)
(50.3793 13.2354 -11.9962)
(88.2988 30.8505 -10.1702)
(126.089 31.0859 -7.49056)
(59.6498 -14.4498 11.1649)
(-52.9584 -27.8247 14.7711)
(-68.3786 10.8964 4.15956)
(-52.3 34.1618 -5.26028)
(-43.4729 44.2599 -14.3729)
(-38.9326 57.4612 -16.49)
(-20.5537 61.9932 -14.5888)
(10.7918 39.2378 -16.1892)
(30.2038 17.4456 -8.27767)
(9.59589 13.323 -1.25655)
(-4.80942 26.1589 3.43139)
(-33.8347 31.6162 7.30909)
(-55.1356 28.4772 2.85881)
(-56.0704 24.9938 -1.01162)
(-51.9893 22.6043 -1.75745)
(-48.0184 21.2619 -1.44281)
(-44.8648 19.559 -1.16805)
(-42.8221 17.3586 -1.09396)
(-40.9191 14.9754 -1.09294)
(-38.7567 12.8339 -1.07005)
(-36.3364 11.2053 -1.14804)
(-33.5965 10.1468 -1.35941)
(-30.5353 9.52108 -1.59961)
(-27.4037 9.16412 -1.75831)
(-24.3262 9.02567 -1.781)
(-20.8721 9.00045 -1.71565)
(31.5781 -10.2495 -3.90167)
(47.3371 -10.0626 -0.404756)
(77.8717 12.7355 -3.46753)
(92.1946 8.04016 6.21067)
(41.1513 -32.6824 17.3686)
(-18.3497 -37.2292 17.87)
(-31.5759 24.7466 -0.942922)
(-36.3325 58.0184 -6.56325)
(-42.1415 70.3998 -11.7879)
(-43.8591 74.5258 -14.4648)
(-24.5752 69.9036 -10.418)
(10.3522 39.6167 -9.12595)
(-2.55474 10.7435 0.726884)
(-23.5697 17.693 2.105)
(-39.1582 26.5125 4.77519)
(-54.7719 29.306 4.83516)
(-61.0506 26.531 1.49757)
(-58.8601 23.8659 -0.621052)
(-53.9674 22.0411 -1.00352)
(-49.4421 20.6488 -0.742581)
(-45.1045 18.6823 -0.500631)
(-41.2392 16.2722 -0.242201)
(-37.8504 13.749 0.0606934)
(-34.8251 11.4018 0.343681)
(-32.2563 9.64933 0.446017)
(-30.1849 8.78788 0.289041)
(-28.4212 8.72474 -0.066046)
(-26.3815 9.01434 -0.442476)
(-23.4999 9.2256 -0.606134)
(-19.6452 9.24848 -0.51734)
(34.1222 -16.5562 -4.47536)
(58.5567 -25.8336 8.42423)
(64.0079 -25.7081 15.0351)
(33.491 -42.3904 20.8298)
(9.64693 -29.5561 1.40861)
(4.16254 6.21366 -4.49111)
(-17.3753 49.1925 -0.0960549)
(-36.4404 77.1382 -0.768025)
(-51.9931 85.1538 -7.06344)
(-53.3839 80.458 -9.37718)
(-26.5663 62.715 -4.03546)
(-4.96219 27.3288 0.836714)
(-35.2296 15.4392 5.12813)
(-48.5196 19.5244 4.30413)
(-58.1609 23.6116 4.60882)
(-62.9141 24.324 3.51845)
(-62.044 22.563 1.64555)
(-57.2408 20.8169 0.661634)
(-50.6563 19.1045 0.564172)
(-43.5401 17.0832 0.87708)
(-36.542 14.6197 1.21076)
(-30.6336 12.2281 1.54602)
(-26.377 10.0911 1.84834)
(-23.5617 8.17704 2.03866)
(-21.8886 6.82633 2.01064)
(-21.2146 6.40971 1.74002)
(-21.2595 6.68824 1.29552)
(-21.0101 7.01978 0.794476)
(-19.004 7.1829 0.449888)
(-14.8574 7.46436 0.381845)
(35.1886 -16.5854 -6.40833)
(58.3457 -35.6104 6.53501)
(58.3563 -47.3267 9.0163)
(11.7991 -37.8039 14.4069)
(3.83011 9.82647 -6.30348)
(1.75025 30.9853 7.51986)
(-21.225 58.7713 13.9218)
(-44.7355 75.3469 10.3203)
(-63.0015 79.3371 0.489404)
(-55.4043 66.4234 -2.33598)
(-22.3223 39.7592 2.24213)
(-23.3369 18.5726 6.17548)
(-49.213 16.07 6.32009)
(-57.2019 16.6213 5.40766)
(-61.5675 18.1346 4.8996)
(-60.7979 17.6868 3.9179)
(-56.2855 16.1013 2.9553)
(-49.5377 13.8893 2.47237)
(-41.9695 11.0366 2.36797)
(-34.9801 7.73264 2.41948)
(-30.0429 4.59984 2.43791)
(-27.4445 2.22668 2.46289)
(-25.9951 0.579993 2.48503)
(-24.8026 -0.3966 2.43806)
(-23.2435 -0.438869 2.2765)
(-20.7801 0.575265 2.02983)
(-17.8446 2.29162 1.72551)
(-15.4921 3.76371 1.32172)
(-13.3345 4.29052 0.930388)
(-9.24064 5.02922 0.673337)
(34.8326 -12.0657 -5.32224)
(50.764 -29.7411 4.64431)
(59.1627 -34.9368 3.49259)
(14.9988 -9.58306 17.8017)
(3.07729 25.0968 11.8086)
(-1.80635 20.319 22.0798)
(-26.3598 34.616 24.5412)
(-52.1673 53.9642 19.0015)
(-62.9773 57.2034 9.0798)
(-41.212 34.7899 4.63033)
(-15.4497 14.9642 5.94399)
(-34.0597 13.6595 8.05671)
(-54.9177 11.4378 6.99364)
(-60.9641 9.91606 6.0741)
(-62.4389 9.46146 4.74121)
(-60.1093 7.51655 3.40371)
(-55.3141 5.21129 2.34688)
(-50.1946 2.53558 1.53405)
(-45.8805 -0.0449175 0.863087)
(-42.6957 -2.08401 0.312102)
(-40.0052 -3.43754 -0.0359419)
(-37.1657 -4.37047 -0.159071)
(-34.3696 -5.04646 -0.14867)
(-31.7374 -5.29455 -0.0983407)
(-28.8295 -4.98664 -0.0312948)
(-25.5698 -4.18499 0.0762435)
(-21.9796 -2.9695 0.233938)
(-17.6599 -1.5214 0.302662)
(-12.2407 -0.295083 0.0860912)
(-7.39139 0.762215 -0.173139)
(35.5306 -5.77928 -1.87043)
(49.6389 -17.7296 8.08901)
(61.7341 -16.96 3.67764)
(48.5059 -7.93279 14.2667)
(17.977 7.82033 18.4572)
(-0.980349 -18.3892 12.6605)
(-28.9075 -5.43324 14.9285)
(-47.902 24.6138 17.3172)
(-43.3435 25.6242 15.0603)
(-26.0195 0.912511 12.0558)
(-51.4871 -1.00031 9.29144)
(-61.455 5.5038 7.14351)
(-77.1235 3.34665 4.83744)
(-80.5856 1.0662 2.39745)
(-76.3502 0.437498 0.6615)
(-71.1522 -0.789558 -0.515141)
(-63.8408 -1.70806 -1.25111)
(-57.0494 -2.43834 -1.88927)
(-50.755 -2.9642 -2.34218)
(-45.0853 -3.49438 -2.57626)
(-40.2846 -4.01573 -2.65483)
(-36.257 -4.38975 -2.60876)
(-32.7871 -4.55424 -2.46849)
(-29.5884 -4.49561 -2.29202)
(-26.3944 -4.13343 -2.13283)
(-22.9627 -3.41091 -2.0254)
(-19.1936 -2.451 -2.07785)
(-15.0296 -1.5142 -2.38092)
(-9.9077 -0.697452 -2.79076)
(-4.12056 0.219386 -3.32328)
(34.8503 -1.89182 0.392255)
(47.0507 -7.07316 5.37846)
(54.561 -4.06881 -3.83142)
(64.0826 0.487342 -1.47721)
(55.1012 -2.0016 7.86742)
(17.9744 -8.98868 10.3646)
(-46.9291 -14.0761 -0.752468)
(-36.0069 -1.70133 4.46037)
(-17.9024 -2.4161 12.4064)
(-45.3163 -4.8684 11.5084)
(-91.0483 -1.85326 4.32346)
(-89.0702 0.379928 2.36453)
(-91.2669 0.219429 0.0589892)
(-87.169 -0.56329 -1.80939)
(-78.7436 -0.753552 -2.61819)
(-71.4152 -1.01979 -3.23556)
(-63.1354 -1.20767 -3.66513)
(-55.6988 -1.38541 -4.09775)
(-49.0822 -1.53101 -4.4023)
(-43.4257 -1.64608 -4.49692)
(-38.7028 -1.72862 -4.40267)
(-34.7838 -1.76608 -4.17848)
(-31.4067 -1.75303 -3.87901)
(-28.2374 -1.6728 -3.56291)
(-24.9937 -1.49385 -3.27079)
(-21.503 -1.19724 -3.03733)
(-17.728 -0.821974 -2.98676)
(-13.6104 -0.452321 -3.26615)
(-8.56995 -0.125473 -3.66024)
(-2.71718 0.26934 -4.33174)
(26.8063 0.363339 -16.9323)
(53.7304 -2.55583 -42.5573)
(88.0707 -8.04946 -44.5462)
(104.494 -15.1702 -16.1823)
(102.593 -14.5688 10.9734)
(81.409 0.693486 18.4447)
(0.571156 18.7169 25.3018)
(-71.5206 6.5419 29.6683)
(-95.7517 -2.31076 18.7434)
(-88.2853 -5.95525 9.39698)
(-75.2839 -5.89841 7.02354)
(-68.5634 -5.25961 7.53224)
(-64.0111 -5.19362 7.53712)
(-58.9119 -4.87533 7.0276)
(-54.274 -4.49729 6.67326)
(-49.6795 -4.16516 6.58157)
(-44.7266 -3.78663 6.54347)
(-39.7914 -3.26242 6.2916)
(-34.6216 -2.59942 5.57385)
(-29.4177 -1.89617 4.15107)
(-25.3328 -1.62184 2.20456)
(-22.3532 -2.09247 0.808861)
(-18.9186 -2.81608 0.640508)
(-15.8879 -3.07936 1.2068)
(-14.3351 -2.70712 2.07253)
(-13.1436 -1.94528 2.68156)
(-11.8921 -1.06548 2.90348)
(-11.1205 -0.386167 2.47373)
(-10.2425 -0.501989 1.73596)
(-7.30286 -1.12677 1.63302)
(33.3212 -2.84847 -23.2232)
(61.0732 -10.4677 -39.7047)
(86.1767 -19.198 -17.7965)
(98.2602 -19.1741 16.915)
(5.72678 17.7007 34.5999)
(-79.6042 29.2647 27.8574)
(-103.727 13.5025 19.1364)
(-101.378 1.61478 6.42805)
(-90.2655 -3.49414 -4.84252)
(-79.2871 -4.60456 -11.9372)
(-68.0422 -3.05111 -13.0442)
(-59.1172 -1.26161 -9.43098)
(-52.6934 -1.71093 -5.13025)
(-48.0671 -3.13288 -2.32789)
(-44.9602 -4.6399 -0.230578)
(-42.374 -6.1796 1.65699)
(-39.0094 -7.1311 3.07191)
(-35.5021 -7.26291 3.83598)
(-31.9035 -6.61282 3.9883)
(-28.0015 -5.23018 3.44113)
(-24.266 -4.09181 2.20823)
(-20.9103 -4.27721 0.853957)
(-17.4335 -4.94062 0.146564)
(-14.7364 -4.91342 0.186379)
(-13.0355 -4.32133 0.52409)
(-11.2888 -3.67887 0.706943)
(-9.81389 -2.82452 0.840165)
(-8.6603 -1.76953 0.596439)
(-7.32356 -1.27621 -0.136091)
(-5.15216 -1.51462 -0.392342)
(31.3616 -5.13791 -29.1458)
(54.357 -14.9185 -31.7404)
(36.1514 -21.311 12.8069)
(-43.3538 7.42605 34.0704)
(-101.743 35.2396 35.1816)
(-120.107 27.2974 22.102)
(-115.285 6.97294 5.91275)
(-108.532 -4.88453 -7.72848)
(-94.8017 -5.87587 -18.0269)
(-78.3499 -1.66413 -23.8982)
(-63.4849 2.97844 -25.7331)
(-51.5063 6.71714 -24.2699)
(-42.2083 7.95195 -20.3567)
(-35.6175 6.38422 -15.6799)
(-31.7608 3.21186 -11.0622)
(-29.071 -0.421871 -7.03543)
(-26.5299 -3.63795 -3.94023)
(-24.0832 -5.88558 -1.79224)
(-22.5443 -7.17933 -0.288864)
(-21.0852 -7.32053 0.679423)
(-18.9488 -6.59526 1.06637)
(-16.0137 -6.22872 0.60772)
(-12.43 -6.50395 -0.277195)
(-9.019 -6.27376 -0.956843)
(-6.71447 -5.48373 -1.34487)
(-5.15058 -4.74953 -1.35836)
(-3.91609 -4.07066 -1.18695)
(-2.8676 -3.31086 -1.16412)
(-1.46202 -2.56078 -1.69039)
(0.937981 -2.32085 -2.0686)
(25.61 -1.42224 -30.3147)
(31.4711 -4.80108 -13.9221)
(-26.4983 3.66711 30.4316)
(-93.2075 26.6612 44.0323)
(-120.96 33.3001 36.7031)
(-125.542 20.376 23.2958)
(-120.678 4.45022 7.48198)
(-111.336 -2.96595 -7.37997)
(-96.2245 -1.05094 -17.4693)
(-79.0131 5.15367 -21.6535)
(-63.5301 10.305 -22.9298)
(-50.2045 14.3787 -23.8742)
(-38.6737 16.8812 -23.622)
(-29.5439 16.5648 -21.6336)
(-23.2488 13.6347 -18.4105)
(-19.0067 9.20677 -14.6643)
(-16.1342 4.45551 -11.0471)
(-14.111 0.214361 -8.00934)
(-13.267 -3.09316 -5.61958)
(-13.0123 -5.36824 -3.73189)
(-12.5562 -6.35127 -2.16313)
(-10.7681 -6.75055 -1.32961)
(-8.07245 -7.31959 -1.47042)
(-5.8703 -7.20395 -1.87885)
(-4.51051 -6.16958 -2.1767)
(-3.31664 -4.97451 -2.25054)
(-1.66365 -4.14575 -2.3421)
(0.131976 -3.59852 -2.58983)
(1.92207 -3.13599 -3.1837)
(4.29046 -2.71683 -3.49138)
(16.1852 7.43198 -29.6118)
(-1.76498 11.8586 7.97603)
(-61.6789 9.00098 46.0295)
(-106.684 16.2991 52.6701)
(-127.272 18.6845 45.5172)
(-136.592 13.4617 34.342)
(-133.695 6.48371 20.6589)
(-119.745 2.34692 6.51555)
(-102.134 4.5976 -5.09299)
(-84.994 10.9571 -11.2704)
(-69.5747 15.7331 -13.2953)
(-55.1915 19.3703 -15.2946)
(-42.0189 22.5011 -17.6417)
(-31.2577 23.3821 -18.203)
(-22.7031 21.592 -17.4321)
(-15.92 18.0144 -15.8124)
(-10.7357 13.3645 -13.7566)
(-7.44626 8.38898 -11.5025)
(-6.12739 3.75739 -9.33254)
(-6.51815 -0.279391 -7.33891)
(-7.08826 -3.13468 -5.60165)
(-6.72382 -4.84094 -4.21498)
(-5.53532 -6.09762 -3.50764)
(-4.76981 -6.39812 -3.2938)
(-4.40979 -5.48134 -3.189)
(-3.69042 -4.27515 -3.11633)
(-2.14003 -3.53077 -3.29519)
(-0.222157 -3.1065 -3.65559)
(1.74847 -2.76558 -4.18065)
(4.19158 -2.24242 -4.28416)
(11.7005 21.1037 -25.7505)
(-22.7454 19.0054 18.2784)
(-85.7072 -6.86176 49.5382)
(-125.714 -14.7474 50.388)
(-142.444 -12.2062 45.547)
(-150.682 -7.40738 41.6941)
(-148.403 0.0378744 36.1666)
(-134.839 6.99706 26.6757)
(-114.218 10.394 13.6419)
(-93.3241 12.7234 2.02107)
(-77.1458 15.8221 -1.86617)
(-61.8154 18.6726 -4.64962)
(-47.8075 22.8048 -9.67298)
(-36.9306 25.4379 -11.6414)
(-27.3825 25.3021 -12.0559)
(-18.8015 23.3997 -11.941)
(-11.5801 20.1824 -11.6214)
(-6.49992 15.73 -10.9116)
(-4.0126 10.7018 -9.74663)
(-3.92407 5.67254 -8.59035)
(-4.70105 1.38768 -7.57311)
(-5.15699 -1.5942 -6.4136)
(-5.3024 -3.56728 -5.32255)
(-5.79873 -4.33523 -4.60325)
(-6.23043 -3.80689 -4.06652)
(-5.99084 -2.87477 -3.73516)
(-4.79101 -2.31729 -3.73985)
(-3.14903 -2.02564 -3.87351)
(-1.24948 -1.75922 -4.06328)
(1.16426 -1.22301 -3.90945)
(14.1617 34.512 -23.2823)
(-15.9764 30.6379 19.9833)
(-80.0735 -12.7757 46.1266)
(-124.38 -32.9209 39.8644)
(-141.327 -35.5399 30.7192)
(-152.994 -32.7256 28.4464)
(-155.541 -26.1179 30.8918)
(-141.99 -15.1164 33.5301)
(-117.736 0.762541 28.219)
(-99.0381 13.2263 14.3573)
(-85.2754 15.0524 10.9927)
(-68.565 15.189 7.55845)
(-52.2122 19.4592 -1.8262)
(-41.9407 23.8009 -5.57535)
(-33.0388 25.7224 -6.23688)
(-23.7346 25.6685 -6.69445)
(-15.5301 24.3805 -7.49858)
(-9.41448 21.1827 -8.01975)
(-6.16206 16.3754 -8.03206)
(-5.52133 10.77 -8.05312)
(-5.86974 5.6145 -8.07034)
(-6.63471 1.84345 -7.4429)
(-7.73938 -0.509842 -6.21665)
(-9.10365 -1.6223 -5.19223)
(-10.013 -1.57006 -4.30356)
(-10.0747 -1.09112 -3.61055)
(-9.1636 -0.821729 -3.20066)
(-7.66689 -0.746306 -2.94396)
(-5.60627 -0.563729 -2.86697)
(-2.91906 -0.0792667 -2.62743)
(20.6124 40.8844 -19.2394)
(6.83081 46.0592 18.1892)
(-51.041 -4.12221 46.636)
(-97.245 -34.138 32.891)
(-105.698 -42.1906 15.3543)
(-115.52 -41.6686 7.59654)
(-127.816 -34.3892 6.15455)
(-128.711 -21.7504 9.06529)
(-115.705 -8.2365 14.0678)
(-93.2284 9.48472 22.6243)
(-85.2799 14.8821 14.7351)
(-70.8073 12.4821 17.7013)
(-54.6227 21.4369 6.88935)
(-44.7804 28.1297 -0.322875)
(-37.2456 27.1437 -1.17725)
(-28.4884 26.805 -1.58228)
(-19.7442 26.7506 -3.41659)
(-13.9842 24.8345 -4.93229)
(-10.9876 20.2413 -5.99872)
(-10.1627 14.2416 -7.16846)
(-10.2491 8.71751 -7.99719)
(-11.1287 4.78476 -7.522)
(-12.6958 2.47268 -6.06128)
(-14.2446 1.29367 -4.77972)
(-15.1462 0.918848 -3.5753)
(-15.2356 0.861594 -2.49045)
(-14.4831 0.75781 -1.82068)
(-13.2874 0.763965 -1.57414)
(-11.8964 1.24123 -1.4864)
(-10.4091 1.94187 -1.12015)
(25.8376 36.8252 -13.2892)
(30.5333 56.3683 15.9696)
(-24.5805 7.93931 48.7009)
(-68.1297 -26.4322 29.2587)
(-66.8813 -38.7507 6.27785)
(-78.2649 -47.2982 -2.17793)
(-93.441 -50.8675 -6.18942)
(-93.9048 -42.5883 -15.2544)
(-102.349 -10.6005 -28.7937)
(-94.7738 9.4912 -7.57398)
(-83.0162 6.75244 3.61658)
(-71.8754 2.20535 19.215)
(-53.7819 15.2468 13.4784)
(-48.159 29.2513 2.59897)
(-45.47 28.3783 1.03301)
(-35.2435 26.6636 2.72428)
(-24.7454 28.1077 0.301115)
(-19.3147 26.9413 -2.62698)
(-17.4889 22.1481 -4.78722)
(-16.9809 16.1232 -6.69325)
(-17.2133 10.9114 -7.56229)
(-18.0396 7.50715 -6.61669)
(-19.2846 5.59049 -4.82578)
(-20.4024 4.35764 -3.41198)
(-21.038 3.5436 -2.178)
(-21.1896 2.95501 -1.28605)
(-20.8748 2.56492 -1.04342)
(-20.688 2.52733 -1.11693)
(-20.86 2.77654 -1.00416)
(-20.7409 2.94588 -0.706543)
(28.2399 24.4355 -8.21788)
(49.1436 57.5353 14.9348)
(-4.80334 15.268 47.4399)
(-39.9919 -17.4571 25.7876)
(-26.4455 -25.2508 0.257922)
(-46.3133 -35.6536 -5.33411)
(-68.1747 -46.8983 -5.48565)
(-75.4818 -49.0969 -16.3929)
(-78.6943 -44.0774 -22.7071)
(-64.4277 -9.9834 -49.3565)
(-68.7947 1.1784 -36.0645)
(-72.8472 -0.202978 -8.33398)
(-40.6811 -2.93 -5.78544)
(-24.7247 24.4372 -11.1184)
(-52.4594 29.6724 8.45579)
(-47.4641 22.0065 10.6177)
(-32.2511 28.13 4.33412)
(-24.9507 27.8189 -1.21476)
(-25.0141 22.8603 -4.47311)
(-25.0909 17.2672 -6.37885)
(-25.3536 13.001 -6.55178)
(-25.4874 10.5063 -4.94999)
(-26.0088 8.79619 -3.16352)
(-26.6439 7.25944 -2.14331)
(-27.0885 5.93148 -1.51699)
(-27.2552 4.85493 -1.31834)
(-27.0776 4.04843 -1.56902)
(-26.7732 3.55491 -1.80689)
(-26.1859 3.2027 -1.73307)
(-24.8323 2.82223 -1.58792)
(30.2232 8.65651 -8.94992)
(59.9598 50.2018 12.6971)
(28.3452 20.5208 39.3181)
(-13.2144 -16.1966 25.157)
(1.10789 -16.2975 1.67631)
(-14.5084 -19.8741 -5.56961)
(-43.8317 -31.3112 -1.55394)
(-63.2911 -26.8622 -15.4351)
(-132.62 -17.1316 -14.4029)
(-143.384 -21.4052 49.9326)
(-3.85335 49.5514 -26.3931)
(-26.8473 40.5963 12.7216)
(-34.5691 26.8027 19.1573)
(-40.5249 28.9856 8.92171)
(-31.4377 28.1993 -0.378921)
(-32.9363 23.2145 -4.39012)
(-33.4411 18.4227 -5.81521)
(-33.2122 15.2611 -5.25202)
(-32.5578 13.3312 -3.49079)
(-32.6012 11.5127 -2.2364)
(-33.0725 9.66549 -1.95159)
(-33.3621 8.00204 -2.07455)
(-33.248 6.59168 -2.43351)
(-32.6199 5.40054 -2.9548)
(-31.564 4.45921 -3.34541)
(-30.0475 3.71091 -3.47935)
(-27.9204 3.12054 -3.55637)
(30.8696 -5.39517 -13.8641)
(66.4182 34.6987 2.37652)
(70.2501 25.8706 27.0821)
(35.561 -14.6631 23.4886)
(-11.8586 -22.1145 11.8663)
(-2.53451 -12.2491 -1.00536)
(-22.2069 -16.2941 6.62553)
(-16.5454 -9.5297 -5.22518)
(-50.0887 6.92841 -30.1429)
(-27.2157 -1.48683 -62.5411)
(-37.2304 -30.2219 -71.9337)
(-34.4026 43.4737 -0.522132)
(-11.6702 6.75097 -38.9541)
(-23.2121 53.7863 -19.4619)
(-6.03154 46.4682 12.2729)
(-25.3624 37.1467 21.9576)
(-47.0143 33.0574 10.6235)
(-38.8001 28.5086 -0.157472)
(-40.6696 23.6893 -4.11275)
(-40.9429 19.7032 -4.99064)
(-39.9716 17.2731 -4.15385)
(-38.7432 15.4678 -2.80303)
(-38.3887 13.4179 -2.19815)
(-38.3794 11.3228 -2.37823)
(-38.059 9.46361 -2.84207)
(-37.2533 7.87527 -3.38822)
(-35.8954 6.50713 -3.95017)
(-34.0695 5.36865 -4.39973)
(-31.8506 4.49576 -4.64714)
(-29.1816 3.9 -4.79823)
(31.2188 -7.19945 -16.5575)
(62.9539 14.6907 -16.8218)
(94.9691 24.4078 3.70125)
(101.152 0.652605 16.7037)
(-8.70403 -33.3921 28.2323)
(-31.1342 -27.3082 17.8483)
(-16.5732 -10.3367 12.2267)
(4.1723 5.68362 1.6386)
(19.9306 19.1441 -27.1052)
(18.1945 12.3106 -44.2712)
(-12.7694 25.1957 -35.9027)
(-13.2873 28.725 -23.2657)
(-32.0747 24.0312 3.52254)
(-25.5207 42.8989 -6.93941)
(-9.88082 46.4121 13.4655)
(-38.6418 43.9062 20.1125)
(-52.9182 35.7136 8.89708)
(-46.1497 28.2822 -0.45735)
(-47.3358 23.9969 -3.60055)
(-46.4455 20.6278 -3.95223)
(-44.371 18.5178 -3.11464)
(-42.2767 16.5595 -2.32694)
(-40.9143 14.2191 -2.1553)
(-39.7111 11.9066 -2.34156)
(-38.2637 9.96276 -2.62884)
(-36.5131 8.38876 -2.98354)
(-34.4281 7.06443 -3.35073)
(-32.1041 5.95424 -3.65519)
(-29.6303 5.16803 -3.80938)
(-26.8122 4.74079 -3.85587)
(34.0299 -9.19707 -14.5498)
(56.3993 -0.0362637 -16.7155)
(99.5864 25.6757 -11.1045)
(128.684 13.2161 13.8894)
(30.6611 -36.7488 37.6816)
(-27.9063 -39.3893 29.8406)
(3.7727 -8.7483 13.1034)
(26.6169 27.2959 -8.0261)
(28.6479 46.6652 -24.5007)
(14.2142 49.1925 -29.1818)
(-19.03 49.4889 -17.0833)
(-36.1524 36.3521 -7.23402)
(-34.8031 35.1272 -4.80928)
(-28.6839 40.4727 4.30341)
(-35.9362 46.6302 14.7965)
(-56.3693 44.3943 15.4967)
(-58.1723 34.4476 6.01989)
(-52.6608 27.1594 -0.659948)
(-51.9906 23.4713 -2.66392)
(-49.4208 20.3118 -2.50811)
(-46.1904 18.0304 -1.6874)
(-43.2716 15.8244 -1.21876)
(-40.9532 13.3009 -1.18203)
(-38.7366 10.7693 -1.21505)
(-36.4387 8.68758 -1.33257)
(-34.0639 7.25705 -1.6242)
(-31.637 6.30615 -1.96684)
(-29.2707 5.54823 -2.20969)
(-26.9745 5.01058 -2.24243)
(-24.251 4.81941 -2.09137)
(34.1402 -17.1203 -9.85614)
(60.965 -25.2078 13.6534)
(98.4057 -16.6633 31.1194)
(93.4116 -28.0015 45.7366)
(29.6671 -41.5158 31.7499)
(20.8439 -20.4969 9.55272)
(39.1388 24.7474 -20.2829)
(36.533 58.8517 -17.8991)
(22.5531 75.5741 -14.7922)
(-4.85628 71.5693 -12.9396)
(-36.0066 56.4976 -0.447733)
(-41.2573 40.0088 4.33074)
(-44.312 36.8032 6.16082)
(-51.3511 41.0124 10.4168)
(-61.9724 43.8295 13.7563)
(-67.6523 39.2084 10.7843)
(-62.8852 30.426 4.00477)
(-57.5652 24.8657 -0.0160124)
(-54.6787 21.608 -0.848145)
(-51.0398 18.7346 -0.20893)
(-47.9198 16.5875 0.676692)
(-45.3405 14.6045 1.23704)
(-42.8783 12.3951 1.54277)
(-40.4222 10.0769 1.7807)
(-37.9095 8.01603 1.76668)
(-35.1007 6.45466 1.32411)
(-31.857 5.3755 0.62559)
(-28.6039 4.68539 0.0368974)
(-26.0347 4.46065 -0.106177)
(-23.5377 4.66458 0.174689)
(32.5798 -27.1924 -11.3574)
(59.9865 -48.3404 18.6562)