/*--------------------------------*- C++ -*----------------------------------*\
| =========                 |                                                 |
| \\      /  F ield         | OpenFOAM: The Open Source CFD Toolbox           |
|  \\    /   O peration     | Version:  2512                                  |
|   \\  /    A nd           | Website:  www.openfoam.com                      |
|    \\/     M anipulation  |                                                 |
\*---------------------------------------------------------------------------*/
FoamFile
{
    version     2.0;
    format      ascii;
    arch        "LSB;label=32;scalar=64";
    class       volScalarField;
    location    "60";
    object      k;
}
// * * * * * * * * * * * * * * * * * * * * * * * * * * * * * * * * * * * * * //

dimensions      [0 2 -2 0 0 0 0];

internalField   nonuniform List<scalar> 
90398
(
0.322578
3.71038
27.6846
114.25
207.691
246.759
234.97
203.076
170.876
144.049
278.923
482.142
647.034
726.613
737.859
702.706
642.392
571.099
496.592
421.932
348.867
278.49
212.32
152.381
101.426
62.8479
39.1694
28.275
25.1134
24.1806
0.388336
5.74043
40.4256
133.433
217.697
248.805
233.387
199.598
166.748
140.151
246.333
448.223
608.869
705.714
732.294
707.28
651.864
581.878
507.54
433.493
362.305
295.497
234.262
179.855
133.478
96.1312
68.6099
52.011
43.1107
40.0101
0.524846
9.29897
63.0518
163.857
234.277
248.808
223.794
189.382
157.276
133.207
212.543
407.448
555.412
671.212
717.216
707.794
661.561
595.633
522.827
450.073
380.951
317.747
261.388
212.41
170.873
136.343
108.164
86.3514
71.5901
62.301
0.720174
13.8274
86.5301
185.452
235.685
233.611
201.664
170.49
141.636
122.723
183.374
365.355
499.782
622.18
686.536
694.051
659.463
600.41
531.402
461.218
394.841
335.096
283.006
238.602
201.427
170.543
145.139
123.436
105.323
91.5625
0.947074
17.8751
104.605
192.615
219.8
201.718
173.723
145.555
120.951
109.553
157.27
321.735
444.533
555.098
637.011
660.522
638.634
588.813
526.237
460.687
398.622
343.216
295.643
255.735
222.716
195.407
172.852
153.94
137.461
121.42
1.17104
22.6369
117.67
191.632
196.023
169.254
143.387
115.261
96.484
94.9636
133.159
270.066
385.134
484.247
564.552
603.927
595.864
557.366
503.899
445.859
390.215
340.645
298.362
263.134
234.143
210.07
189.876
172.953
159.62
146.34
1.36747
28.2136
130.303
193.491
178.888
148.102
118.684
91.7925
75.6507
80.7514
106.86
198.981
319.929
412.278
483.11
522.14
530.222
505.896
464.676
416.83
369.755
327.33
291.074
260.811
235.766
214.657
196.717
181.545
170.317
158.343
1.55698
33.5808
145.267
209.896
187.584
151.636
118.211
92.3173
87.1284
59.8629
69.5591
103.992
185.891
280.337
405.117
442.935
451.156
435.593
409.783
374.861
338.172
304.083
274.396
249.233
228.037
209.794
194.037
180.634
171.364
161.25
1.71655
37.5521
160.389
240.433
230.005
184.361
138.644
109.835
114.359
119.75
174.803
95.3499
75.0615
120.271
328.244
367.539
379.509
370.817
350.267
323.028
296.836
271.878
249.098
229.086
211.685
196.268
182.793
171.27
163.862
156.418
1.78697
38.4443
169.219
273.212
290.936
238.168
180.939
144.911
176.294
192.899
180.369
139.955
63.3557
43.9047
254.092
295.215
311.588
309.697
296.172
276.397
255.393
234.82
216.195
201.038
187.529
175.239
164.335
154.919
148.418
145.338
1.74934
35.3472
167.283
291.613
340.295
309.884
234.567
170.786
115.001
183.942
132.147
58.7489
66.7634
174.727
225.234
247.303
252.003
245.268
232.26
216.856
201.131
186.444
173.397
161.43
150.578
141.915
134.121
127.426
126.197
1.53439
30.3488
153.404
288.201
363.317
367.965
308.865
230.01
147.654
83.2136
127.944
72.8025
72.1531
102.19
76.8303
151.067
186.437
198.179
197.69
190.499
180.302
169.151
158.308
148.109
138.239
128.42
118.952
108.301
94.5607
77.2101
1.30487
24.6101
128.721
262.128
352.329
385.845
364.053
297.397
232.803
144.601
97.8192
113.95
58.5468
87.5008
63.9653
64.9194
124.097
149.024
154.23
152.102
146.589
139.7
132.319
124.326
115.254
104.849
94.8404
80.2712
62.795
44.3401
1.10479
18.9298
98.0838
218.933
312.739
361.512
365.228
328.314
264.369
207.568
137.141
95.1242
107.37
90.4789
61.6593
51.5686
68.4337
107.605
117.647
119.495
117.676
113.778
108.15
100.606
91.1771
81.3794
68.4652
53.5971
39.801
28.9839
0.936459
13.9921
70.6158
166.53
254.107
306.962
322.995
305.193
257.786
211.793
164.877
112.875
105.874
80.929
58.8526
48.1362
62.342
83.499
91.8909
94.2434
93.2008
89.539
83.5008
75.3997
66.1539
55.4982
44.2526
34.2568
26.867
22.2384
0.76696
9.95783
47.9738
117.11
185.834
233.506
252.153
246.788
222.148
191.786
162.093
135.886
113.975
83.2773
60.0262
47.2889
56.8862
67.1441
71.1807
71.3613
68.9555
64.3541
57.9538
50.3619
42.4044
34.7846
28.2307
23.2895
20.0796
18.2431
0.598667
6.78998
30.4109
76.9217
129.418
169.247
188.956
189.311
174.574
156.241
140.745
128.973
105.909
79.1616
58.4946
43.1459
41.2901
46.4859
49.5474
48.8245
46.2422
42.3508
37.6288
32.6039
27.8047
23.6415
20.3684
18.0381
16.5194
15.5589
0.474682
4.73561
18.7205
46.1675
81.5035
111.997
129.399
131.742
122.332
112.975
110.523
104.979
87.0191
66.1345
49.3268
39.2233
30.3705
27.9621
31.184
32.1385
31.5543
30.3334
28.9697
27.8277
27.1632
27.0862
27.4338
27.7924
27.8443
27.1927
0.379521
3.38707
12.2687
27.5897
46.6869
64.3571
74.9099
73.4217
66.7447
72.5613
87.2394
90.42
73.9327
52.2861
39.2591
37.2366
41.8185
45.0048
47.7165
49.3995
50.3652
51.0718
51.7505
52.5194
53.3539
53.8177
53.7923
53.3234
52.5007
51.312
0.32793
2.50518
8.92753
19.4382
29.4189
35.7599
35.9042
32.0336
46.1665
58.4663
74.2057
60.0119
41.5882
40.4503
49.9923
55.3254
59.079
62.4682
65.6001
68.3405
70.1847
71.3576
72.0112
72.2053
71.9705
71.3397
70.292
68.7799
67.0268
65.3205
1.84376
23.3791
133.878
341.92
479.148
500.793
470.158
421.269
381.532
439.08
774.778
1047
1324.11
1487.77
1548.2
1517.19
1426.73
1303.14
1161.74
1012.04
859.561
709.046
564.909
430.893
310.623
207.75
127.26
74.8339
52.9779
47.1114
2.78379
32.6986
164.448
365.706
487.619
500.82
464.019
408.086
363.335
406.05
688.817
949.856
1253.6
1446.32
1538.37
1530.8
1453.94
1335.16
1193.08
1041.01
887.02
737.178
596.441
468.602
356.324
261.646
185.692
130.511
96.1143
81.489
4.32403
46.7456
208.171
397.647
490.017
486.505
441.54
379.367
334.016
371.029
596.297
832.055
1150.29
1375.93
1508.38
1536.48
1482.45
1374.75
1235.93
1083.18
928.641
780.524
644.513
523.475
418.996
330.91
259.164
203.506
162.643
135.761
6.28916
65.2185
249.237
416.662
474.747
454.639
402.561
339.287
298.233
338.936
517.683
717.247
1024.94
1284.48
1450.5
1513.47
1484.88
1393.11
1262.49
1113.49
961.821
817.482
687.706
574.173
477.938
396.953
330.036
276.011
233.44
199.008
8.06248
84.0827
278.562
417.842
444.258
409.225
350.529
292.518
258.798
312.178
451.351
611.679
888.882
1174.11
1362.44
1452.64
1447.54
1374.2
1256.79
1117.29
973.22
836.735
714.989
610.52
522.899
449.454
387.969
336.788
295.533
259.528
9.72018
101.055
298.474
414.009
414.544
360.638
298.439
242.232
220.039
291.756
391.714
515.496
747.442
1022.6
1241.6
1350.64
1367.53
1313.61
1213.53
1088.72
957.441
832.795
722.209
627.957
549.371
483.393
427.543
379.171
339.548
303.011
11.2056
115.637
319.136
426.278
409.272
336.412
267.039
209.508
186.54
267.05
335.747
430.079
613.182
852.232
1067.52
1208.02
1244.44
1212.89
1134.59
1028.87
914.934
805.414
708.46
625.716
556.481
497.662
447.215
401.782
363.073
325.3
12.7199
128.691
347.603
468.936
452.497
364.397
280.707
195.471
160.373
212.18
252.405
359.142
468.945
652.351
868.41
1011.46
1077.29
1077.01
1022.74
941.226
848.295
757.368
675.604
605.208
545.58
494.08
449.052
407.082
369.673
331.707
14.177
138.482
377.854
533.778
540.842
443.854
337.197
212.92
165.876
194.109
266.165
338.536
379.426
459.879
673.248
804.245
885.134
909.055
884.778
831.983
763.452
692.317
626.911
569.59
519.975
475.91
436.284
398.855
364.461
327.202
15.1721
141.518
397.793
595.667
652.082
570.743
450.076
347.216
300.615
252.233
234.425
263.075
224.019
386.344
512.408
617.953
697.001
735.699
736.179
709.065
664.94
615.141
567.045
522.674
482.722
446.246
412.328
380.076
350.661
317.679
15.2917
135.78
397.169
624.413
728.04
686.804
545.051
411.374
312.895
362.094
408.171
391.487
470.426
535.752
577.028
591.89
584.178
560.679
529.74
497.17
465.507
435.991
407.888
380.563
353.548
330.179
313.035
14.1185
121.609
373.187
610.942
751.221
771.582
678.268
526.569
364.646
228.769
411.357
204.162
178.649
267.607
319.721
369.914
412.916
446.032
464.847
468.226
459.501
443.659
425.23
406.385
387.396
366.423
340.726
310.579
279.452
244.188
12.1672
102.469
330.151
558.263
713.557
780.638
753.432
655.806
544.815
418.995
344.893
347.109
181.222
271.227
261.228
304.558
330.358
348.844
363.456
371.076
371.602
367.923
361.133
351.776
337.297
312.631
275.096
230.929
181.35
127.356
10.0969
83.8993
275.213
481.729
633.303
719.288
735.276
689.609
601.74
526.238
468.973
325.966
272.447
214.88
202.812
240.617
270.538
281.045
288.885
296.81
302.635
305.51
303.382
293.712
271.102
233.29
188.471
142.904
100.893
66.0554
8.12695
66.4368
214.593
393.975
532.247
619.148
654.735
641.338
583.528
510.303
477.901
365.756
273.208
204.202
178.534
188.769
216.884
226.365
231.479
238.785
245.108
246.359
239.026
219.919
188.028
150.015
113.005
81.6224
57.7167
41.4496
6.21515
50.5408
159.006
301.211
422.564
502.375
545.335
548.395
508.65
451.901
423.832
368.265
300.15
201.454
165.01
155.173
164.704
173.172
177.14
181.254
181.977
176.121
161.767
139.505
112.383
85.6835
63.3674
46.7499
35.6806
29.2486
4.45595
36.3884
112.503
216.16
311.098
376.105
413.86
422.632
399.36
365.666
353.473
324.154
277.605
203.677
149.346
131.746
119.808
120.261
121.323
119.792
115.173
106.423
93.9069
79.212
64.7687
52.6561
43.8112
38.0322
34.472
32.0229
3.09787
25.3697
77.4217
147.721
213.634
259.037
289.604
304.614
298.527
282.736
290.434
270.747
233.598
182.952
127.181
108.022
98.2931
87.8355
85.5099
83.6312
80.6704
76.7296
72.3667
68.298
65.174
63.2088
62.1029
61.587
61.1968
60.1295
2.11922
17.8753
54.9673
102.775
144.154
168.726
187.121
203.079
200.984
216.036
266.451
259.718
250.195
133.508
96.1275
87.972
86.0818
85.7569
87.8433
90.8035
93.4459
95.6188
97.449
99.105
100.422
101.292
101.545
100.966
99.476
96.8373
1.54136
13.3237
42.1788
80.8716
106.082
113.218
123.987
125.353
132.053
169.422
196.076
160.934
115.212
92.7802
89.8478
91.6176
95.034
100.297
105.886
110.762
114.934
118.39
121.187
123.327
124.709
125.172
124.61
122.91
120.074
116.005
4.32142
48.0409
221.594
445.77
564.247
583.384
570.696
542.207
539.89
724.003
1045.25
1365.66
1631.87
1829.79
1924.57
1918.62
1841.79
1723.6
1581.91
1425.38
1257.23
1079.47
897.631
719.261
550.998
399.849
269.758
166.362
96.3332
67.337
6.40217
64.1458
254.069
469.18
575.747
585.166
558.616
519.142
507.209
649.029
938.108
1242.52
1541.44
1773.99
1907.14
1930.91
1873.55
1763.64
1622.33
1462.84
1291.9
1113.93
933.734
757.94
595.192
450.371
327.601
230.247
160.935
119.69
9.14886
87.9965
300.621
496.447
577.414
570.233
528.705
477.62
460.074
578.216
803.137
1082.93
1409.64
1685.46
1868.24
1936.16
1908.98
1814.73
1678.88
1518.25
1343.56
1164.72
987.515
818.542
663.811
527.458
412.617
319.618
249.469
200.05
12.7693
116.295
342.883
513.834
564.771
539.497
487.33
428.174
409.722
521.551
686.842
932.748
1270.79
1581.01
1803.01
1910.7
1912.96
1838.41
1712.79
1555.66
1382.79
1204.23
1031.89
872.402
728.401
602.943
496.838
409.568
341.647
287.49
16.8113
142.92
374.327
520.17
543.368
500.659
436.271
372.379
363.006
482.18
595.741
801.454
1134.07
1465.67
1711.19
1846.42
1872.2
1817.45
1705.79
1557.24
1390.2
1218.82
1054.41
905.666
774.06
660.475
564.107
482.891
418.929
364.872
20.5528
165.309
400.414
531.994
533.29
465.048
384.896
321.968
333.776
453.559
523.118
686.109
992.537
1329.02
1589.11
1738.46
1784.12
1747.2
1651.87
1516.83
1360.93
1201.08
1050.53
913.804
795.546
693.743
606.673
530.578
469.835
417.377
23.921
185.654
433.248
573.671
566.115
468.58
367.521
296.558
315.441
424.435
475.51
599.724
858.018
1171.97
1427.7
1584.17
1645.64
1628.7
1553.61
1436.31
1297.16
1154.01
1018.85
897.718
792.978
702.295
623.732
553.163
494.929
442.556
27.1574
204.725
477.781
652.509
659.026
536.624
400.282
290.269
302.07
407.709
412.503
514.21
692.572
943.772
1224.77
1380.31
1459.59
1465.42
1414.02
1321.07
1204.3
1082.02
965.314
860.875
770.116
690.793
620.906
556.187
500.732
448.191
29.9212
219.843
521.629
747.371
795.236
668.494
476.483
310.075
295.448
362.903
386.706
433.161
538.993
720.591
983.179
1141.17
1238.28
1268.75
1243.85
1178.99
1088.95
990.022
894.629
808.45
732.628
664.763
603.799
545.925
494.548
442.393
31.3961
226.378
547.884
818.959
938.587
858.78
663.909
458.421
446.15
430.477
309.824
83.744
178.568
568.642
749.45
896.504
1005.99
1057.88
1060.82
1023.21
960.613
887.014
813.087
745.038
684.071
628.594
576.491
526.521
481.004
431.317
31.3247
221.613
545.372
833.103
1003.83
991.637
827.437
637.162
502.55
602.571
1293.92
335.568
562.234
677.988
784.612
851.753
876.413
864.494
827.563
778.052
725.09
674.094
627.121
583.44
542.062
500.047
460.471
421.765
29.9431
206.025
514.891
795.098
991.065
1059
990.17
845.675
646.009
529.641
665.208
361.131
534.907
391.447
430.895
508.28
596.558
664.411
703.236
711.266
697.216
668.428
635.091
600.518
566.736
533.198
499.489
462.682
427.104
401.42
27.4043
182.423
463.982
719.436
910.737
1022.13
1030.74
959.028
858.138
786.011
722.031
727.196
696.266
374.089
350.306
396.304
455.78
512.251
553.659
574.143
577.135
567.403
550.983
529.759
504.651
475.993
440.15
392.435
335.802
273.486
23.9733
153.856
398.103
626.039
799.998
919.972
968.588
946.939
875.654
797.491
769.593
623.612
541.01
376.518
305.457
326.463
362.321
402.109
438.994
465.198
478.849
481.123
472.71
456.527
431.574
395.084
343.699
279.277
212.652
151.759
19.9878
124.976
325.772
526.397
680.502
793.967
858.811
869.276
827.972
757.196
726.222
592.797
396.064
281.096
256.114
269.245
296.856
327.139
357.795
382.521
396.534
398.357
388.345
366.239
332.115
286.743
232.54
177.531
130.93
94.1422
15.695
97.7112
252.181
421.964
557.353
660.58
729.977
755.411
724.919
668.676
647.417
562.813
312.124
225.799
208.19
216.136
239.297
264.015
286.152
301.712
307.194
301.469
284.464
257.139
222.408
183.997
147.045
115.217
90.4979
72.7873
11.5193
72.8763
186.999
320.114
431.871
513.383
571.072
594.907
573.676
543.571
550.518
479.711
269.482
197.532
166.221
160.549
171.366
188.035
201.423
208.488
207.681
198.872
183.437
163.597
141.838
121.15
103.517
89.9724
80.1284
73.0501
8.04875
52.7249
136.371
234.61
317.729
370.559
410.371
431.17
423.226
421.592
450.22
394.631
262.537
174.068
138.171
126.036
123.101
127.141
135.069
140.116
141.185
138.661
133.56
127.128
120.598
114.83
110.422
107.23
105.012
102.092
5.72404
39.0471
104.693
179.207
235.494
258.244
271.71
293.418
299.08
350.133
405.665
359.204
207.632
126.053
108.577
109.717
116.924
124.72
132.028
137.611
141.293
143.384
144.339
144.626
144.812
144.677
144.061
142.727
140.336
136.552
4.32964
30.7251
85.5619
151.559
184.422
190.373
193.365
190.718
217.453
253.821
231.897
159.9
115.524
103.073
108.071
117.253
126.668
135.291
142.898
149.419
154.94
159.318
162.689
165.178
166.839
167.627
167.269
165.618
162.295
157.072
7.37004
79.4717
293.108
517.208
632.457
667.189
666.076
654.595
718.542
972.734
1248.7
1557.97
1827.75
2034.22
2134.64
2139.04
2072.52
1966.78
1840.78
1703.53
1557
1395.4
1216.03
1023.94
825.332
631.779
454.846
302.775
183.499
107.862
10.8111
100.244
324.271
540.874
645.661
663.492
642.292
618.527
663.67
875.635
1118.85
1427.65
1725.49
1974.17
2119.02
2156.8
2114.42
2020.32
1895.22
1752.99
1599.92
1436.32
1259.08
1067.26
873.644
685.944
515.861
370.194
256.902
179.032
15.8168
130.828
368.075
567.83
650.695
642.046
598.155
559.547
589.845
763.451
948.419
1244.99
1575.39
1880.37
2079.62
2164.14
2156.32
2083.52
1966.11
1821.09
1660.21
1490.06
1312.76
1129.39
942.329
767.542
609.266
472.172
364.726
283.822
22.1602
164.156
410.46
591.096
646.02
609.97
549.183
496.578
520.464
675.501
808.219
1083.6
1428.71
1777.65
2016.53
2139.02
2162.47
2112.62
2008.11
1866.12
1702.01
1527.37
1349.73
1172.92
1000.61
840.435
695.661
571.193
473.044
392.555
28.7216
193.926
447.76
613.944
641.18
578.851
497.72
436.977
472.055
616.805
717.138
959.505
1308.34
1673.28
1933.96
2078.38
2123.36
2092.65
2002.65
1868.57
1707.01
1533.15
1358.03
1188.66
1030.28
885.31
756.857
644.744
556.092
481.835
34.7758
220.004
485.406
653.027
662.608
565.746
458.132
399.879
458.957
580.887
663.827
866.506
1203.86
1561.71
1828.32
1981.66
2039.39
2023.28
1947.37
1824.37
1670.6
1503.11
1335
1176.18
1031.16
900.848
786.305
685.209
603.874
535.192
40.6421
246.503
533.97
728.612
742.133
605.039
463.689
396.184
458.258
561.647
654.833
844.391
1128.45
1444.92
1689.68
1839.23
1908.34
1906.45
1845.31
1736.61
1595.76
1439.95
1284.11
1138.79
1007.56
891.317
788.956
696.788
620.911
555.171
46.4836
273.24
596.656
840.614
887.291
717.733
514.559
409.201
471.506
556.689
589.34
732.649
937.295
1193.76
1504.17
1640.02
1723
1740.79
1700.81
1612.24
1489.42
1350.79
1211.97
1082.4
966.327
863.498
772.244
688.447
617.268
553.331
51.4718
295.73
653.028
957.495
1070.46
902.63
599.491
463.577
545.598
654.331
619.747
589.214
699.658
936.529
1251.47
1393.18
1490.4
1532.78
1518.43
1456.2
1357.58
1241.67
1123.61
1012.84
913.203
824.184
744.064
668.975
603.15
540.906
54.3913
308.271
680.741
1026.64
1235.35
1185.04
884.8
680.039
796.596
868.343
1273.82
1078.39
538.959
646.111
1003.65
1127.59
1238.95
1302.41
1315.4
1279.29
1208.9
1119.7
1025.23
934.553
852.121
777.362
708.866
643.431
584.2
524.485
54.6331
307.667
672.465
1014.69
1269.2
1338.15
1200.37
1036.98
1018
1008.59
1231.23
1525.55
1170.68
493.243
808.136
882.537
992.159
1071.82
1105.12
1095.21
1051.92
989.807
919.822
849.916
785.051
725.292
669.232
614.449
562.723
508.218
52.4735
292.949
634.357
943.332
1199.63
1347.78
1359.57
1298.96
1189.96
1164.74
1109.32
1285.93
1397.17
718.413
656.237
677.716
774.233
856.853
904.561
915.135
896.337
858.38
811.472
762.48
715.311
669.837
626.036
581.749
537.411
493.415
48.5243
266.467
576.213
841.758
1068.77
1236.08
1305.29
1291.35
1207.9
1133.28
1063.42
1060.58
1230.47
924.618
514.411
523.735
600.28
675.338
727.861
752.102
752.158
734.935
708.847
678.182
645.506
611.861
576.851
538.343
498.517
466.585
43.2111
231.747
504.028
733.213
925.857
1084.03
1175.77
1194.72
1153.52
1077.72
1042.51
901.098
799.504
600.689
413.78
421.396
477.149
537.946
587.178
617.803
630.285
628.39
616.155
597.122
572.627
542.931
506.732
461.501
407.976
345.69
36.8418
193.437
423.48
625.781
788.799
928.836
1030
1079.75
1062.55
1000.71
974.044
760.43
538.867
412.926
339.72
353.643
396.139
442.46
483.025
512.308
528.438
531.66
523.864
506.994
481.046
446.024
400.649
345.961
286.85
226.429
29.6315
154.868
339.581
514.622
656.171
776.127
874.292
929.426
920.34
881.18
872.965
625.89
352.599
283.995
272.973
294.752
328.579
362.573
391.989
413.494
424.627
424.621
414.017
393.404
364.038
326.692
284.996
241.854
201.89
165.513
22.3522
118.828
261.415
404.005
522.067
615.75
694.031
736.636
729.264
727.897
737.124
422.379
250.52
202.941
199.782
219.45
245.361
270.521
291.118
305.047
310.784
307.622
296.66
279.246
257.058
232.339
207.132
184.051
163.78
145.902
16.4864
90.2606
202.206
315.446
404.594
465.195
515.303
539.847
541.296
579.586
583.349
338.728
218.138
165.615
150.944
159.79
176.39
194.149
209.236
219.658
224.791
224.751
220.414
212.836
203.229
192.898
182.7
173.481
165.359
157.257
12.6371
71.8317
166.837
266.889
324.051
343.04
360.868
382.843
409.191
494.308
452.421
273.332
168.665
131.373
137.053
151.114
164.789
176.996
187.404
195.488
201.018
204.034
204.827
203.783
201.558
199.385
196.903
193.906
190.013
184.572
10.2805
60.7966
144.329
232.948
267.972
278.885
266.141
265.57
294.749
290.224
212.726
142.91
120.358
125.834
140.009
154.085
166.449
177.393
187.03
195.111
201.885
207.122
210.889
213.327
214.651
215.076
214.664
213.074
209.705
203.627
12.0856
114.188
348.799
586.033
728.766
775.099
780.373
800.668
929.993
1157.76
1438.39
1741.05
2032.38
2228.4
2301.77
2288.12
2218.1
2113.43
1991.32
1861.42
1729.42
1594.41
1450.16
1287.56
1097.45
891.173
681.485
484.826
317.706
188.959
16.9294
135.187
377.185
609.066
737.696
760.638
740.388
741.525
853.76
1042.42
1292.77
1600.66
1925.23
2170.78
2292.69
2318.73
2277.16
2187.29
2067.44
1931.9
1789.38
1643.53
1492.2
1329.37
1150.07
952.881
750.053
559.635
400.149
278.25
24.2257
166.093
418
639.814
741.755
726.356
675.533
654.038
746.512
895.653
1091.72
1406.82
1772.45
2075.48
2255.43
2331.09
2326.88
2262.22
2154.45
2018.51
1867.01
1708.72
1547.38
1381.95
1209.47
1029.48
847.357
670.823
524.059
405.508
33.2802
199.424
462.993
676.453
745.322
690.304
611.415
571.849
650.78
784.48
942.548
1266.77
1643
1982.24
2196.57
2305.4
2330.31
2290.2
2199.15
2070.21
1916.78
1751.31
1582.74
1414.98
1248.35
1082.29
920.509
767.148
639.378
529.931
42.3106
230.759
509.745
720.637
759.729
665.878
556.9
510.441
597.093
724.975
877.183
1197.06
1570.72
1911.71
2131.36
2250.01
2289.23
2265.35
2189.73
2071.14
1921.73
1755.49
1584.75
1417.4
1256.63
1103.13
958.937
824.897
713.689
617.831
50.6795
261.854
562.869
786.677
813.592
674.124
534.985
494.62
589.799
713.249
871.978
1196.05
1553.19
1859.06
2058.65
2170.58
2214.15
2199.13
2134.86
2026.39
1883.79
1721.3
1553.13
1389.62
1235.84
1093.84
963.753
844.932
745.887
661.337
59.1765
296.42
628.453
891.03
936.879
753.279
568.314
518.873
602.054
728.441
944
1305.85
1595.91
1812.68
1961.12
2054.28
2098.74
2093.8
2040.8
1942.98
1809.48
1654.7
1493.64
1337.59
1192.95
1061.81
943.49
835.491
745.001
666.863
68.453
332.445
706.011
1028.71
1134.14
921.107
654.212
572.966
667.691
854.133
1270.51
1601.95
1730.41
1789.84
1821.05
1881.45
1930.65
1941.63
1906.01
1823.67
1703.57
1561.26
1412.22
1268
1135.4
1015.59
908.044
809.281
724.994
651.016
77.4698
364.67
772.047
1160.98
1369.67
1204.62
853.448
797.763
964.859
1292.23
1392.26
1706.83
1716.21
1592.21
1634.51
1659.89
1711.08
1742.34
1730.35
1670.63
1570.3
1446.3
1314.92
1187.26
1069.25
962.394
865.891
776.172
697.967
627.372
84.3967
386.171
801.206
1216.35
1534.67
1607.3
1356.71
1287.44
1475.39
1768.77
1817.51
1969
1985.68
1656.73
1437.71
1404.16
1460.17
1511.59
1524.51
1489.53
1414.27
1314.99
1206.49
1098.43
997.466
905.094
820.591
740.801
669.598
602.591
87.7616
392.698
787.661
1173.7
1508.04
1708.65
1749.7
1761.02
1779.92
1798.26
1753.73
1740.85
1828.35
1748.84
1304.14
1153.81
1201.56
1271.71
1306.35
1295.3
1246.1
1172.49
1088.55
1002.52
920.773
844.551
773.361
704.908
641.647
578.499
86.0796
382.476
741.747
1069.87
1368.99
1596.67
1717.09
1757.74
1723.91
1664.41
1620.26
1523.14
1560.78
1696.01
1189.46
920.043
964.246
1040.8
1089.96
1100.19
1076.11
1027.92
967.148
903.165
840.585
780.788
723.83
667.656
613.184
557.093
80.5438
357.425
677.326
942.429
1190.12
1401.95
1529.25
1575.85
1554.41
1497.29
1445.95
1374.87
1411.31
1410.85
910.603
723.948
767.012
839.722
894.088
918.287
914.054
888.438
850.356
807.036
761.783
716.595
672.084
626.298
580.222
536.504
72.6327
320.941
602.895
818.82
1017.48
1203.95
1334.15
1396.25
1398.33
1352.36
1300.31
1179.09
1072.44
961.474
649.783
578.731
621.036
681.857
732.812
763.089
771.957
763.416
743.405
716.405
684.625
650.198
613.738
574.16
534.187
508.282
63.0686
276.179
520.903
707.098
865.989
1022
1154.69
1235.86
1258.51
1229.72
1215.39
949.25
703.873
618.482
493.093
481.43
519.073
566.084
607.56
636.589
651.275
652.72
642.766
624.457
599.471
569.503
534.901
496.658
459.288
429.411
52.4235
229.067
432.807
597.358
731.048
856.321
974.778
1059.44
1088.83
1089.46
1083.9
663.496
454.196
407.575
385.177
401.105
433.12
467.744
498.641
522.327
536.398
539.552
532.685
517.212
494.433
465.573
432.778
397.639
363.289
327.625
41.6165
184.454
348.706
487.884
600.174
697.665
789.466
853.46
880.649
926.05
795.261
408.295
283.335
268.035
281.307
307.614
336.682
363.99
387.536
405.693
416.686
419.128
413.526
401.144
383.302
361.663
338.298
314.214
289.92
263.921
32.9066
148.944
286.547
411.503
500.482
558.217
613.566
647.717
685.83
741.808
540.066
288.753
207.276
192.762
208.423
233.695
258.2
279.595
297.266
310.764
319.413
322.762
321.175
315.405
306.323
294.975
282.421
269.143
254.601
239.909
27.2235
126.45
250.635
372.638
434.167
457.581
474.689
504.41
557.305
554.464
366.111
219.057
168.2
171.503
193.371
214.109
230.894
244.695
256.508
266.213
273.588
278.351
280.422
279.849
276.732
271.549
266.168
260.599
254.189
246.124
23.7568
113.701
226.897
340.437
398.113
377.829
342.667
346.02
341.111
277.144
185.518
146.013
150.329
169.88
190.579
207.632
221.127
232.383
242.253
250.686
258.194
264.41
268.994
271.75
272.729
272.283
270.956
268.899
265.339
258.103
19.0483
147.552
399.054
671.903
854.739
906.561
923.254
980.781
1110.43
1325.47
1621.3
1970.35
2296.01
2459.9
2492.05
2447.37
2357.73
2240.85
2109.67
1974.69
1842.75
1714.68
1587.17
1453.55
1303.32
1128.63
924.632
707.517
507.377
336.1
24.6566
165.031
423.223
691.758
854.209
877.678
863.646
910.976
1030.2
1187.69
1473.47
1826.26
2184.83
2403.97
2489.59
2487.21
2429.11
2332.27
2209.05
2070.66
1926.23
1782.83
1641.93
1499.99
1349.38
1182.01
995.029
791.517
597.325
435.831
33.1401
191.425
459.769
723.518
851.902
826.378
769.975
783.044
901.46
1006.65
1266.94
1652.4
2041.9
2312.59
2451.01
2496.03
2477.8
2411.11
2304.83
2170.56
2020.11
1863.63
1708.09
1555.14
1401.71
1242.08
1073.14
894.487
726.86
575.548
43.3931
222.053
507.889
770.623
861.553
783.953
685.927
670.406
784.756
889.096
1149.55
1568.31
1967.43
2247.73
2397.4
2461.38
2466.83
2424.19
2337.62
2216
2069.18
1908.65
1744.9
1584.46
1428.78
1275.43
1121.88
966.321
824.627
693.52
53.3202
254.811
565.4
832.367
892.413
764.066
629.877
606.548
726.327
866.955
1169.05
1611.45
1995.53
2246.98
2363.96
2411.62
2415.45
2381.44
2309.52
2201.1
2063.06
1905.69
1740.77
1577.89
1422.14
1274.19
1132.63
995.509
873.824
762.967
63.3959
291.275
632.154
919.165
973.094
792.884
628.382
610.831
735.074
927.792
1307.77
1776.89
2121.5
2301.47
2353.3
2361.63
2347.9
2310.31
2244.54
2145.92
2016.17
1864.07
1701.73
1540.2
1386.78
1243.82
1111.34
987.191
879.154
783.411
75.0885
335.119
712.507
1046.66
1141.04
923.713
703.386
674.634
823.83
1103.26
1639.16
2077.11
2306.03
2373.05
2336.34
2293.37
2258.25
2216.37
2154.58
2062.79
1940.07
1793.98
1636.69
1479.84
1331.41
1194.22
1069.24
953.849
854.785
767.901
89.2456
383.819
805.455
1207.21
1405.38
1208.5
913.495
911.353
1149.94
1672.91
2263.76
2491.88
2491.77
2404.26
2275.82
2180.11
2127.06
2088.62
2036.39
1954.08
1839.56
1701.49
1552.83
1404.77
1264.57
1135.35
1018.13
910.179
816.952
735.399
104.694
431.042
884.564
1346.5
1684.98
1697.6
1474.96
1561.53
1951.6
2462.35
2660.42
2607.26
2490.74
2357.72
2149.43
2013.45
1950.08
1921.71
1885.59
1817.89
1716.09
1591.17
1455.52
1319.87
1191.18
1072.47
964.273
864.219
776.784
699.576
118.446
466.507
919.752
1379.28
1786.99
2056.54
2164.91
2298.29
2493.96
2563.28
2461.68
2329.85
2209.99
2147.09
1941.81
1789.22
1728.88
1716.35
1700.49
1652.51
1569.84
1463.7
1346.08
1227.02
1113.19
1007.18
909.787
818.826
738.236
665.877
127.764
482.985
904.156
1306.65
1678.69
1980.85
2188.49
2314.91
2352.4
2297.16
2192.13
2043.54
1919.19
1895.82
1741.41
1557.77
1478.24
1487.06
1493.09
1467.01
1406.08
1321.33
1224.76
1126.06
1030.39
939.784
854.858
774.435
701.866
634.813
130.799
479.62
850.287
1174.55
1480.05
1741.93
1921.23
2017.9
2036.65
1996.27
1938.95
1808.2
1691.42
1703.45
1585.62
1338.39
1223.49
1250.1
1277.72
1272.54
1234.58
1173.02
1098.44
1020.26
943.074
868.816
798.409
730.382
666.726
605.267
127.054
459.01
777.826
1025.4
1267.81
1494.34
1650.51
1732.52
1755.32
1735.18
1689.96
1594.28
1536.58
1569.99
1388.8
1077.62
991.233
1031.32
1071.6
1083.88
1066.91
1027
973.905
915.497
855.706
797.014
740.341
684.219
630.233
577.815
118.285
424.742
700.288
889.342
1073.97
1266.27
1415.53
1504.51
1541.04
1537.78
1505.39
1420.11
1325.63
1297.25
1038.54
834.966
812.101
851.378
893.242
914.902
912.846
891.497
857.812
816.523
771.974
726.685
681.041
634.532
589.773
549.996
105.861
379.606
622.626
777.905
916.116
1068.34
1209.71
1315.6
1379.74
1400.35
1420.01
1189.75
911.42
889.395
749.47
673.656
679.655
713.89
748.56
770.852
777.048
768.52
748.943
721.358
688.69
652.821
615.464
576.956
540.975
515.387
91.4465
328.58
540.386
680.778
794.665
909.336
1034
1146.11
1222.16
1284.32
1250.21
762.734
605.307
595.82
561.054
551.378
569.648
596.745
622.707
641.638
650.694
649.202
638.045
619.157
594.512
565.919
535.284
504.833
478.195
459.861
77.1999
279.435
458.592
590.538
698.928
783.051
878.463
967.959
1049.76
1108.06
809.73
459.673
383.775
397.395
412.918
433.614
458.666
482.806
502.408
517.214
525.802
527.029
520.978
508.673
491.481
471.044
449.283
427.704
408.517
391.345
65.4248
239.633
397.579
534.612
636.365
685.455
736.213
802.451
871.799
794.507
491.638
294.058
264.083
285.617
318.358
348.85
372.796
390.186
403.313
413.171
419.812
422.424
420.775
415.142
406.131
394.634
381.672
368.066
354.357
338.925
57.6111
214.2
361.35
509.52
607.783
614.59
635.958
667.752
645.824
504.813
306.967
223.722
225.418
255.273
286.818
310.872
326.456
335.571
341.967
347.868
353.198
357.322
359.574
359.498
356.894
351.777
344.212
335.594
327.145
316.855
52.7651
200.242
339.332
501.241
557.021
459.028
413.808
400.16
343.264
252.941
189.783
187.883
215.187
246.849
273.357
291.508
301.685
306.94
311.005
315.468
320.832
326.621
331.615
334.891
336.065
335.172
332.748
329.661
325.515
316.905
28.3834
178.79
449.815
779.429
1003.54
1063.71
1082.25
1126.72
1245.82
1493.59
1831.87
2270.1
2600.03
2723.64
2710.23
2630
2516.32
2382.18
2236.51
2087.77
1943.08
1806.71
1679.51
1555.37
1427.93
1286.95
1123.04
932.911
731.965
548.882
33.3883
190.296
467.993
790.281
990.149
1015
1016.26
1074.5
1148.96
1346.48
1690.07
2126.98
2482.4
2664.19
2708.15
2672.83
2592.98
2482.6
2349.4
2201.5
2048.4
1897.47
1752.54
1614.24
1478.45
1336.8
1180.66
1003.41
819.557
645.382
40.9783
209.56
498.994
814.694
975.503
944.515
891.938
934.524
1003.67
1144.81
1521.07
1986.76
2359.77
2571.68
2660.39
2669.99
2629.17
2551.17
2441.16
2304.46
2150.35
1988.98
1829.72
1677.1
1531.29
1387.81
1240.37
1081.6
922.316
765.717
49.833
235.28
547.54
864.639
987.825
895.861