/*--------------------------------*- C++ -*----------------------------------*\
| =========                 |                                                 |
| \\      /  F ield         | OpenFOAM: The Open Source CFD Toolbox           |
|  \\    /   O peration     | Version:  2512                                  |
|   \\  /    A nd           | Website:  www.openfoam.com                      |
|    \\/     M anipulation  |                                                 |
\*---------------------------------------------------------------------------*/
FoamFile
{
    version     2.0;
    format      ascii;
    arch        "LSB;label=32;scalar=64";
    class       volScalarField;
    location    "60";
    object      k;
}
// * * * * * * * * * * * * * * * * * * * * * * * * * * * * * * * * * * * * * //

dimensions      [0 2 -2 0 0 0 0];

internalField   nonuniform List<scalar> 
84826
(
0.231982
0.224316
0.217117
0.210353
0.204005
0.198072
0.193157
0.19181
0.209172
0.322774
0.794071
2.08134
5.26284
12.6974
26.8434
50.521
72.5948
80.6754
78.6745
70.8688
62.8621
54.1328
44.5356
34.6917
25.9632
18.7713
13.6538
11.3834
10.1264
9.21671
0.231988
0.224335
0.217157
0.210416
0.204113
0.198215
0.193114
0.190638
0.199733
0.270187
0.790373
1.91201
3.96156
9.06024
22.5769
47.2618
70.7894
79.7012
77.9399
70.0217
61.8489
53.0035
43.4384
33.7731
25.3792
18.9418
14.6279
12.3924
11.9024
11.9587
0.231993
0.224353
0.217205
0.210518
0.204286
0.198466
0.193267
0.189613
0.192008
0.26799
1.82768
3.75828
5.04
7.67805
18.0235
42.6109
67.5206
77.2189
75.5608
67.4956
59.4446
50.6612
41.1581
31.7881
24.2271
19.1088
16.244
15.5084
16.2982
16.952
0.231998
0.22437
0.21724
0.21059
0.204412
0.198643
0.193446
0.189292
0.190012
0.395897
5.55552
9.66121
10.733
10.6823
16.2688
38.3104
63.3527
73.4992
71.7675
64.0794
56.1189
47.4285
38.0254
29.6391
24.074
21.4779
21.1247
22.6275
24.6494
25.8852
0.232002
0.224383
0.217271
0.210652
0.204517
0.198829
0.193785
0.189805
0.192646
0.745663
13.5466
19.5259
19.5332
17.9449
19.9631
37.5678
59.9555
69.2656
66.8035
59.6029
51.8276
43.1532
34.6344
28.8178
27.0873
28.8606
32.3199
35.9678
38.5547
39.9195
0.232005
0.224395
0.217302
0.210714
0.204626
0.199006
0.194071
0.190385
0.197219
1.41083
25.9371
31.1277
29.6618
28.7606
31.6619
44.098
60.264
66.2191
61.6286
54.714
47.0715
38.8549
32.8763
32.1539
37.2888
44.8069
50.8366
54.3293
55.8414
56.1319
0.232008
0.224403
0.217321
0.210748
0.204674
0.19911
0.194206
0.190956
0.202591
2.39652
41.242
44.3238
44.1516
46.5119
48.8419
55.8937
64.7032
65.4615
58.2101
50.8361
42.9842
36.3797
35.7716
44.6702
57.5603
67.2041
72.3418
73.9894
73.8114
72.4951
0.23201
0.224407
0.217323
0.210747
0.204672
0.199128
0.194236
0.191279
0.210875
3.71884
28.3205
52.4101
48.1222
44.3953
66.9439
68.2827
70.6085
66.164
56.8654
48.4577
40.6182
38.0231
49.0016
67.574
81.942
89.9473
93.1792
93.0779
91.5227
88.7599
0.232011
0.224407
0.217313
0.210728
0.204644
0.199091
0.194179
0.190787
0.202027
2.1372
6.17385
43.6502
54.0891
55.4727
79.6963
77.5387
75.3286
66.7604
55.9882
46.7466
40.5847
49.3787
72.4067
92.2892
104.617
110.83
112.697
111.435
108.998
105.374
0.232013
0.224405
0.217303
0.210708
0.204616
0.199021
0.19405
0.19009
0.190819
0.649045
8.12429
12.5125
20.5617
31.4894
78.0883
79.7564
76.6796
65.7711
54.3705
45.0186
46.8683
70.2296
95.9546
113.951
124.97
130.364
131.533
129.632
126.799
123.224
0.232014
0.224402
0.217293
0.210683
0.204593
0.198915
0.193902
0.189557
0.193806
3.80124
29.0298
40.0935
23.9598
66.4845
74.5807
72.6469
61.864
50.6863
44.7237
61.625
91.1511
116.093
133.285
144.32
149.677
150.638
148.6
145.999
141.996
0.232015
0.224396
0.217275
0.210641
0.204527
0.198805
0.193735
0.189283
0.187765
1.10098
2.04543
39.3372
25.096
18.1424
50.7158
59.6521
60.6644
52.0559
44.1731
49.9917
77.9614
108.859
134.038
151.875
164.161
170.199
171.272
168.277
164.385
158.923
0.232013
0.224389
0.217256
0.210597
0.204451
0.198684
0.193559
0.188998
0.185728
0.316326
0.516222
23.0699
58.6541
57.263
51.3564
48.594
46.7667
41.6712
40.2427
59.4812
92.0955
124.506
151.693
171.658
183.745
189.117
189.404
185.456
180.533
174.192
0.232011
0.224384
0.217242
0.210567
0.204375
0.198572
0.19334
0.188646
0.185257
0.204413
1.75352
26.6365
40.452
49.6949
52.8124
48.6222
41.4582
36.7366
42.3826
68.3229
104.39
140.323
168.58
188.355
200.49
205.841
205.744
201.058
195.208
188.13
0.232011
0.224379
0.217232
0.210545
0.204313
0.198531
0.193186
0.188311
0.184588
0.189187
0.420638
12.7646
25.3007
33.2323
40.9758
43.018
36.8251
33.5834
44.5534
75.6109
116.916
153.147
181.77
202.443
215.435
221.096
220.717
215.283
208.43
200.561
0.232009
0.224374
0.217223
0.210525
0.204258
0.198459
0.193037
0.188031
0.183854
0.187663
0.254391
4.38235
14.1386
21.8893
28.6106
31.6198
29.175
29.3658
45.0375
82.5375
124.687
161.721
191.85
214.21
228.503
234.689
234.052
227.752
219.745
210.985
0.232006
0.224366
0.217211
0.2105
0.20421
0.198387
0.192958
0.187881
0.183542
0.185781
0.236636
0.991424
6.2049
13.3213
19.4039
22.3627
22.6263
25.2946
43.5264
84.1587
128.73
168.161
200.427
224.289
239.3
245.979
245.031
237.652
228.309
218.554
0.232001
0.224356
0.217194
0.210474
0.204166
0.198324
0.192906
0.187783
0.183675
0.184928
0.229768
0.515777
2.34224
7.44025
12.9073
16.1394
17.5996
20.6734
36.5305
80.161
129.779
173.114
208.068
233.448
248.929
255.225
253.201
244.245
233.26
222.334
0.231997
0.224348
0.217183
0.210461
0.204154
0.198305
0.192858
0.187685
0.183597
0.184178
0.219606
0.427918
1.20197
4.02855
8.39196
11.5685
13.4918
16.5823
29.9278
73.4684
129.188
176.948
214.5
241.007
256.521
261.889
257.729
246.769
233.919
221.69
0.23197
0.224299
0.217119
0.210394
0.204082
0.198215
0.192752
0.187485
0.183479
0.184238
0.210594
0.34332
0.741958
2.04291
4.81565
7.51646
9.52933
12.5948
24.7799
69.1184
128.801
179.514
218.574
245.54
260.745
264.596
258.13
245.468
230.933
217.49
0.238887
0.237595
0.236178
0.234712
0.233671
0.233956
0.23813
0.263883
0.424668
1.2293
3.62817
8.73726
19.6406
38.6519
68.221
111.692
142.926
149.98
147.807
143.867
133.684
115.92
94.2729
72.6167
51.324
32.7799
25.9904
26.7698
27.6875
25.9725
0.238892
0.237607
0.236215
0.234808
0.233756
0.233891
0.237587
0.257227
0.370199
0.99471
3.42844
8.33123
16.8654
33.7934
64.5215
110.4
143.026
150.159
147.033
141.011
128.506
109.364
87.742
66.8921
48.2852
35.16
31.6119
34.0454
35.3359
35.2151
0.238898
0.237618
0.236245
0.234933
0.233984
0.233749
0.235645
0.246023
0.30504
0.859786
4.1957
8.82602
14.8097
28.0525
58.8084
107.28
141.811
148.792
144.177
135.665
120.599
100.774
79.9304
61.2775
48.1506
42.7392
43.9207
47.7803
49.6201
50.7333
0.238903
0.237628
0.236273
0.235047
0.234248
0.234038
0.235214
0.242255
0.298306
1.42151
8.38445
13.2547
17.1109
27.0348
56.3647
105.287
140.418
146.627
140.076
128.382
111.38
91.9705
73.4617
60.8711
57.8219
61.5963
65.795
68.4928
69.5383
70.4468
0.238907
0.237642
0.236329
0.235209
0.234601
0.234719
0.23651
0.244146
0.331707
2.78471
16.306
21.5872
24.4452
34.9598
63.1591
108.047
140.376
144.674
135.558
120.392
102.136
84.1775
71.7386
70.7097
79.049
87.6279
91.5552
92.158
92.2644
91.5147
0.238912
0.237665
0.236388
0.235301
0.234783
0.235101
0.238004
0.246911
0.39001
5.04236
28.9701
34.6014
40.5661
55.391
80.0155
116.506
142.369
143.565
131.615
113.16
94.8325
81.5106
81.1965
93.6003
106.652
113.845
116.151
115.379
114.826
112.46
0.238917
0.237686
0.236428
0.235299
0.234876
0.23529
0.239161
0.247947
0.464943
8.71614
47.6267
54.2689
70.0214
86.4214
103.495
129.375
146.433
143.557
128.177
107.986
91.7832
88.6985
102.632
120.084
131.558
137.342
139.276
138.234
137.161
133.753
0.238919
0.237692
0.236447
0.235339
0.234924
0.235421
0.239493
0.247872
0.529556
15.9994
63.3967
75.3292
100.257
113.857
130.781
143.559
151.202
144.009
125.451
105.46
95.6048
105.35
125.121
142.166
153.75
160.708
163.956
163.711
162.848
159.786
0.238919
0.237683
0.23643
0.235363
0.234939
0.235461
0.238844
0.247613
0.46847
13.0955
69.2743
131.633
125.334
142.795
150.077
154.099
154.351
143.526
123.04
106.285
106.112
123.08
144.813
163.41
178.469
188.585
193.83
194.519
194.162
191.412
0.238919
0.237674
0.236407
0.235281
0.234816
0.235285
0.23708
0.244501
0.311969
3.68288
18.9587
178.275
172.093
147.533
161.693
161.292
155.681
141.525
121.385
110.536
116.837
138.933
164.309
189.764
209.877
222.567
228.831
229.468
228.628
224.134
0.238917
0.237668
0.236383
0.235207
0.234642
0.234797
0.236375
0.239711
0.267137
2.07117
40.1293
103.369
169.742
167.103
156.006
138.762
121.371
112.194
126.723
155.144
190.749
223.104
245.81
258.764
264.421
263.695
260.797
253.05
0.238916
0.237663
0.236333
0.23512
0.23449
0.234403
0.235493
0.237265
0.253369
0.788063
2.52699
83.1159
92.4859
96.1694
162.557
166.985
154.646
135.534
116.345
113.52
136.93
179.254
223.392
258.391
279.982
291.074
294.914
293.035
288.981
279.427
0.238914
0.237656
0.236287
0.235001
0.234195
0.234032
0.23453
0.236021
0.244987
0.404669
1.27768
81.9515
118.604
128.597
147.412
154.048
143.77
122.716
105.29
114.78
155.799
209.076
255.533
288.682
309.742
320.816
324.37
321.543
315.922
304.028
0.238914
0.237647
0.236263
0.234875
0.233791
0.233487
0.233857
0.23514
0.242413
0.362832
5.17184
35.7169
44.3067
91.4445
121.114
131.843
123.692
104.795
95.3736
125.152
181.686
237.643
283.651
317.324
339.294
350.964
354.107
349.802
341.919
327.084
0.238914
0.237641
0.236246
0.234781
0.233472
0.232906
0.233221
0.23386
0.242248
0.313397
1.33999
16.7329
25.463
46.9354
81.142
99.7121
97.7161
83.5471
95.1024
144.508
205.444
262.287
309.512
345.218
369.096
381.391
383.949
377.82
367.135
348.809
0.238912
0.237636
0.236228
0.234727
0.23329
0.232203
0.232198
0.232751
0.240544
0.304876
0.723443
5.97175
14.2133
25.9399
46.4734
62.0793
64.9091
68.2684
104.522
162.153
223.705
281.406
331.738
371.259
398.106
411.612
413.4
405.006
391.067
368.928
0.238909
0.237629
0.23621
0.234697
0.233197
0.231754
0.231428
0.232181
0.238534
0.302793
0.677133
2.46928
7.36575
16.2692
28.2896
37.8698
44.6589
63.8341
112.171
173.086
235.738
296.691
351.774
395.695
425.326
439.888
440.579
429.474
411.99
386.181
0.238905
0.237622
0.236195
0.234668
0.233128
0.231522
0.23078
0.231735
0.237404
0.292613
0.646489
2.06449
5.40794
12.1846
19.6759
25.8103
33.0498
53.1454
105.348
171.426
240.071
308.517
370.344
418.924
450.5
464.662
463.125
448.623
427.392
398.564
0.238899
0.237611
0.236182
0.234647
0.233093
0.231426
0.230433
0.23122
0.237381
0.279391
0.523924
1.45638
3.99331
8.81053
14.3464
19.1581
25.5629
40.6979
83.4919
158.409
239.157
318.207
387.196
439.336
471.44
483.63
478.426
460.144
435.294
404.295
0.238875
0.237568
0.236127
0.234584
0.233032
0.231319
0.230201
0.230682
0.237814
0.273664
0.449444
0.991139
2.32226
5.0726
10.3638
15.4306
20.4389
30.1975
67.0693
148.548
238.406
324.971
398.474
452.118
483.291
492.599
484.01
462.952
435.375
403.257
0.239106
0.238215
0.23738
0.236837
0.237125
0.239359
0.250521
0.324498
0.809454
2.86808
7.80434
17.4535
35.2242
59.7495
94.8777
145.474
170.249
173.958
180.298
185.061
176.463
151.887
119.126
84.1859
52.5241
36.8168
37.6658
38.8067
36.9348
36.7968
0.23911
0.238228
0.23742
0.236892
0.237066
0.239131
0.249584
0.312855
0.731754
2.71337
7.98687
17.5976
33.3631
57.9031
95.1958
146.44
171.149
174.3
179.324
181.28
169.502
143.72
112.038
81.4289
57.0192
45.9255
47.1456
50.4409
49.8938
50.4523
0.239116
0.238241
0.237458
0.236996
0.237114
0.23841
0.244718
0.278162
0.502192
1.90532
7.13214
15.8284
29.7833
54.6941
94.3878
147.342
172.373
174.452
176.43
174.022
158.788
132.498
102.588
77.4659
62.8419
59.8832
63.6962
68.4773
69.3176
70.4178
0.239122
0.238253
0.237491
0.237111
0.237313
0.238309
0.242404
0.262892
0.42212
1.99486
8.76802
16.6944
29.1442
54.5113
96.2715
149.434
173.767
173.843
171.471
164.058
145.988
119.965
94.6163
80.9026
80.1794
85.1354
89.5065
92.6016
93.5478
95.3247
0.239127
0.23827
0.237556
0.237321
0.237607
0.238862
0.243002
0.261329
0.438474
2.99208
13.6669
22.6992
35.5815
63.0931
104.337
153.463
175.196
172.413
164.754
152.222
131.957
108.506
94.6395
97.1562
107.099
114.374
117.601
118.787
119.631
118.858
0.239133
0.238292
0.237624
0.237424
0.237782
0.239338
0.244186
0.263444
0.483945
4.69055
23.1837
36.7579
53.8603
81.2132
117.632
159.024
176.4
170.589
158.465
141.051
120.263
105.688
108.941
123.361
134.375
140.03
142.515
142.767
143.337
140.712
0.239138
0.238313
0.237654
0.23742
0.237867
0.239666
0.244977
0.264476
0.52979
7.05758
40.3086
60.5813
85.3285
111.108
135.73
166.34
177.573
169.038
153.598
133.037
115.995
116.014
132.086
147.036
156.222
162.353
165.869
166.648
167.174
164.608
0.23914
0.238324
0.237671
0.237431
0.237888
0.239812
0.244938
0.263775
0.551926
10.3287
51.2305
85.1324
116.732
140.163
158.432
174.661
178.757
168.041
150.222
130.183
122.552
134.935
151.161
164.415
176.639
186.151
192.126
194.551
196.141
194.935
0.239139
0.238315
0.237656
0.237462
0.237895
0.239775
0.244103
0.261908
0.545552
17.7679
88.6369
107.852
115.505
171.711
177.091
181.884
179.58
167.446
148.589
133.598
135.943
148.71
164.042
183.195
201.115
214.375
222.658
226.78
229.7
229.332
0.239138
0.238301
0.237611
0.237355
0.237761
0.239297
0.242787
0.25661
0.358342
5.94543
46.5547
171.266
112.714
187.782
193.492
189.043
180.821
167.385
149.834
140.788
143.61
156.163
180.027
206.839
229.064
244.565
254.322
259.834
263.687
263.104
0.239136
0.238293
0.23757
0.237231
0.237552
0.238747
0.241422
0.250313
0.304633
2.00806
15.0827
156.622
208.489
197.116
183.657
168.649
153.088
142.147
144.814
167.276
200.484
232.121
256.479
273.217
284.117
290.82
295.036
294.277
0.239133
0.23828
0.237519
0.237121
0.237361
0.238199
0.240468
0.24621
0.280036
0.805181
2.90702
134.718
114.907
136.839
213.741
202.435
186.108
169.007
149.047
136.612
148.794
182.596
221.916
256.319
282.085
300.154
312.381
319.998
323.988
322.168
0.23913
0.238266
0.237457
0.236961
0.237062
0.237768
0.239633
0.243706
0.270206
0.532859
1.67057
62.514
132.588
158.714
196.885
195.281
180.731
158.932
136.535
131.992
157.748
199.63
243.546
280.74
308.591
328.02
340.866
347.997
350.32
346.149
0.239129
0.238256
0.237421
0.236782
0.236709
0.237324
0.238985
0.242786
0.266714
0.486742
3.34634
15.6907
41.6121
127.463
163.375
172.912
162.236
139.946
122.171
133.886
171.182
220.215
268.135
307.368
336.718
357.105
369.702
375.102
374.577
366.98
0.239129
0.238247
0.237397
0.236639
0.236258
0.236653
0.238078
0.241409
0.263669
0.437363
1.7005
9.20601
18.8747
63.3681
114.36
139.725
136.365
119.519
117.182
144.188
190.545
243.552
293.648
335.354
366.696
387.638
399.413
402.461
398.438
386.384
0.239126
0.238239
0.23737
0.236553
0.235972
0.236003
0.236932
0.239699
0.261617
0.433105
1.4023
5.47494
13.2098
32.6257
66.4436
93.456
101.31
103.034
122.945
161.84
211.385
265.461
317.823
362.824
397.069
419.667
430.831
431.488
423.702
406.62
0.239122
0.23823
0.237344
0.236515
0.235843
0.235413
0.236038
0.239089
0.26092
0.437826
1.48568
4.98924
11.473
23.7518
41.105
57.5719
71.7793
95.8107
132.004
176.758
229.021
285.951
342.043
390.946
428.352
452.33
463.191
461.829
450.374
428.117
0.239117
0.23822
0.237324
0.236482
0.23576
0.235096
0.235581
0.239204
0.260131
0.421033
1.40908
4.72378
11.0866
20.706
29.7643
38.275
51.2639
81.013
128.084
180.631
239.795
303.777
366.285
420.248
460.743
485.79
495.685
491.525
476.032
448.839
0.239113
0.238211
0.237311
0.236453
0.235707
0.234964
0.235221
0.238784
0.258086
0.376573
0.991727
3.43239
9.02523
17.7962
23.6074
28.0314
36.9401
60.1621
107.412
171.735
244.121
319.356
389.867
448.698
491.509
516.467
524.208
516.281
496.033
464.422
0.239088
0.238166
0.237248
0.236377
0.235631
0.234801
0.234768
0.237614
0.254934
0.343201
0.701271
1.96185
4.98334
10.4087
16.6326
21.0753
27.4967
44.2524
89.5531
162.812
246.345
330.62
406.959
468.805
512.315
536.071
541.093
529.311
504.542
469.773
0.239119
0.238264
0.237526
0.237221
0.237827
0.241591
0.265362
0.447191
1.53675
5.31729
13.0946
27.7486
51.5339
78.9807
119.037
175.635
179.656
166.823
181.147
200.448
189.528
152.27
106.78
71.1984
49.2554
43.9834
45.6479
44.0377
42.4552
47.4818
0.239124
0.238278
0.237564
0.23721
0.23769
0.241591
0.26633
0.449485
1.59843
5.65015
14.2066
28.8544
50.8874
79.6973
121.492
176.496
180.532
167.021
179.615
194.146
181.006
147.784
110.36
79.2348
60.2018
56.6351
59.6882
60.1512
57.368
59.5472
0.23913
0.23829
0.237588
0.237213
0.237541
0.240073
0.254905
0.358175
1.07469
4.38531
12.807
26.4386
47.9973
79.4219
124.134
178.314
182.483
168.925
178.285
185.325
169.479
139.308
107.287
83.0307
71.8411
72.6325
77.9685
81.5055
80.0694
82.3813
0.239136
0.238299
0.237594
0.237322
0.237683
0.239322
0.247795
0.30673
0.76193
3.48883
12.0094
24.8984
46.7536
81.2607
128.836
181.157
184.642
170.809
174.852
174.054
156.169
128.342
102.913
91.2804
92.0271
97.7586
103.407
106.744
106.823
110.036
0.239141
0.238313
0.237645
0.237528
0.237964
0.239548
0.246341
0.291766
0.695059
3.68524
14.7798
29.2247
52.209
89.2646
136.762
184.275
186.234
171.299
168.997
161.094
141.475
117.589
105.705
109.963
119.414
126.863
131.405
133.256
133.458
133.029
0.239147
0.238333
0.237711
0.237621
0.238079
0.23986
0.246455
0.288052
0.685562
4.45405
23.9594
44.0229
68.9655
104.678
146.985
186.901
186.84
170.565
161.576
147.927
128.656
116.005
121.976
134.944
144.796
151.459
155.291
156.285
156.786
154.551
0.239151
0.238349
0.237736
0.237612
0.238109
0.240095
0.246261
0.284091
0.655297
5.60912
41.1003
67.318
96.8747
129.015
158.821
189.06
186.495
169.438
155.784
138.711
124.218
127.971
142.901
154.848
164.452
172.131
177.037
179.021
180.628
180.396
0.239154
0.238358
0.237737
0.237586
0.238104
0.240123
0.245448
0.277906
0.615815
7.40951
45.5499
90.6463
125.196
154.856
175.368
191.141
185.441
168.844
153.524
136.535
132.899
145.282
156.958
169.506
182.642
193.447
200.996
205.743
210.375
213.572
0.239154
0.238353
0.237721
0.237589
0.238077
0.23997
0.244289
0.271929
0.575842
13.4546
91.136
122.758
148.224
180.386
191.651
194.094
184.391
169.611
154.658
143.044
146.906
154.059
166.676
184.799
202.305
216.505
227.337
235.964
244.777
251.704
0.239152
0.23834
0.237674
0.237527
0.237969
0.239524
0.243252
0.263203
0.441773
8.34933
93.1062
207.617
132.509
206.996
207.003
199.425
185.453
172.307
159.255
152.819
151.118
158.214
177.804
200.753
221.761
239.524
254.539
268.051
281.329
291.216
0.239149
0.23833
0.237628
0.237389
0.237786
0.238931
0.242107
0.255629
0.369484
2.70803
31.9771
309.714
91.1072
201.616
219.098
207.57
190.132
176.966
165.759
154.856
149.602
164.061
188.726
215.682
240.716
262.838
282.516
300.568
316.768
327.966
0.239145
0.238316
0.237598
0.237239
0.237505
0.238353
0.240842
0.251385
0.334251
1.29452
6.76385
106.338
141.203
181.318
219.792
212.919
195.246
181.564
164.931
147.165
149.44
169.981
199.679
232.04
261.769
287.874
311.022
331.508
347.598
358.289
0.239142
0.2383
0.237553
0.237074
0.23719
0.237965
0.240113
0.24835
0.32798
1.05547
4.02883
31.4611
126.708
173.088
197.248
205.092
193.633
177.006
153.382
140.77
151.376
178.461
215.639
253.231
286.307
314.576
338.96
358.66
372.796
381.387
0.23914
0.238289
0.237504
0.236929
0.236865
0.237603
0.239697
0.247297
0.317957
0.915546
4.63705
15.4776
43.1897
113.956
156.843
182.445
179.668
161.129
141.465
139.843
159.318
195.644
238.745
279.229
313.665
342.203
365.382
382.547
393.097
397.916
0.239139
0.238281
0.237471
0.236803
0.236423
0.236908
0.238888
0.246952
0.306209
0.78519
3.3665
10.7856
24.4889
63.9117
113.044
149.85
156.695
145.213
138.226
149.052
178.681
220.745
266.413
308.299
343.255
370.791
391.401
404.621
410.218
409.116
0.239135
0.238273
0.237448
0.236728
0.236166
0.236087
0.237685
0.245804
0.305157
0.764074
3.1358
9.37888
20.3006
43.0085
76.6505
111.623
130.085
135.078
145.17
168.386
204.405
249.057
295.786
338.776
374.314
401.302
419.107
427.918
428.27
420.802
0.239131
0.238263
0.237426
0.236692
0.236059
0.235649
0.236988
0.24613
0.310479
0.793507
3.15488
8.99384
18.7991
34.4671
53.9154
77.6037
102.546
127.27
154.131
187.415
228.875
276.607
325.63
370.604
407.559
434.339
450.269
455.401
450.874
437.094
0.239126
0.238254
0.237407
0.236652
0.235993
0.23545
0.236617
0.246375
0.309688
0.753911
2.83518
8.19414
17.6061
29.6259
40.8111
53.7859
75.5393
111.671
152.375
196.368
246.688
301.274
355.426
403.925
442.955
470.287
485.192
487.654
478.938
459.219
0.23912
0.238241
0.237385
0.236613
0.235932
0.235301
0.236072
0.244971
0.298121
0.602054
2.00319
6.39976
14.878
25.4902
32.7295
38.5249
51.4384
81.2078
131.155
192.171
257.778
323.812
385.467
438.338
479.323
506.758
520.119
519.657
506.922
481.748
0.239098
0.2382
0.237328
0.236554
0.235858
0.235158
0.235584
0.242555
0.281485
0.485816
1.28648
4.30841
9.9057
17.3629
23.3852
27.1499
35.0574
57.1753
110.25
185.564
264.48
340.125
407.734
463.828
505.993
533.015
544.597
540.86
523.712
493.768
0.239126
0.23829
0.237575
0.237271
0.238203
0.244671
0.292954
0.658225
2.59822
8.54698
19.917
40.3688
68.367
96.9731
142.327
200.629
165.885
130.039
144.038
163.646
148.353
114.492
81.242
58.9182
49.449
47.8752
47.0991
45.5899
47.5484
55.5849
0.239131
0.238302
0.237602
0.237217
0.238107
0.245532
0.30058
0.718839
2.94856
9.39823
21.8397
41.8134
68.4923
99.4428
145.022
201.165
167.145
130.538
143.915
164.559
151.789
123.825
96.253
75.8551
66.184
66.2735
66.7338
63.9404
61.9179
69.7773
0.239135
0.238307
0.237612
0.237202
0.237783
0.242747
0.277443
0.545425
2.23636
8.23135
20.6341
39.5343
66.7966
101.293
148.942
202.654
169.992
134.134
147.07
167.451
154.616
128.967
103.184
85.3513
79.8891
83.2396
87.5105
87.9337
85.1262
93.2318
0.239141
0.238311
0.23762
0.237339
0.237794
0.240684
0.259809
0.416716
1.53662
6.47054
17.9907
36.3694
66.0485
105.101
155.01
204.763
173.647
139.607
149.638
162.746
149.027
125.126
104.292
95.9911
98.1732
104.89
110.922
113.301
112.553
117.098
0.239146
0.238323
0.237668
0.23756
0.238032
0.240239
0.254073
0.370733
1.28222
5.75101
17.1321
36.0504
69.3962
113.191
162.923
206.491
177.222
144.247
148.522
152.842
138.099
117.904
109.255
114.044
123.216
131.471
136.764
138.196
137.893
137.744
0.239151
0.238342
0.237722
0.237637
0.2381
0.240209
0.252201
0.349742
1.16398
5.59949
19.9183
42.4859
80.0737
125.556
171.494
207.01
179.977
147.583
144.587
141.471
127.573
118.336
124.842
136.514
146.776
154.542
158.758
159.467
159.906
159.661
0.239155
0.238355
0.237737
0.237619
0.238078
0.240168
0.250339
0.329038
1.02235
5.55449
26.2113
58.8039
100.26
143.147
179.682
205.907
181.643
150.738
142.128
134.584
124.799
130.209
142.743
154.271
164.796
173.08
178.171
180.707
184.124
188.222
0.239157
0.238359
0.237731
0.237591
0.238035
0.239957
0.24811
0.308147
0.85845
5.70916
34.4233
83.8077
126.016
168.153
190.759
203.474
181.666
154.922
145.197
135.626
134.482
144.295
154.523
167.227
180.12
190.792
199.002
205.998
215.067
225.028
0.239157
0.238354
0.237717
0.237585
0.237987
0.239664
0.246049
0.291743
0.736004
7.45916
43.5693
106.556
145.591
186.912
205.164
203.631
181.772
160.966
152.876
145.262
147.123
151.303
162.826
178.729
194.396
208.692
221.865
235.408
251.802
268.005
0.239155
0.238342
0.237681
0.237528
0.237885
0.239292
0.244503
0.27734
0.597678
4.91166
40.7254
109.233
152.76
199.714
218.935
208.313
185.008
168.83
161.985
156.273
150.343
154.94
169.978
188.262
207.539
227.184
247.208
268.302
291.312
310.653
0.239152
0.23833
0.237632
0.237368
0.23768
0.238797
0.243077
0.268772
0.500742
2.62337
13.35
98.8474
159.178
193.726
227.339
217.115
192.774
177.896
170.898
158.115
149.518
157.91
174.736
196.877
221.938
248.222
274.705
300.62
325.775
345.886
0.239148
0.238322
0.2376
0.237167
0.237345
0.238253
0.241623
0.263363
0.468417
2.24694
9.17934
61.8045
154.602
167.046
220.99
222.068
200.966
186.293
172.297
152.64
148.56
159.314
180.195
209.381
240.987
272.067
301.111
328.757
353.412
374.078
0.239144
0.23831
0.237568
0.23702
0.23706
0.237901
0.240782
0.259558
0.457282
2.12218
11.0853
31.2925
85.6989
132.602
185.737
210.601
200.827
186.281
164.057
148.261
149.058
164.751
194.283
230.025
265.36
297.338
326.93
353.558
376.867
399.75
0.239141
0.238295
0.237523
0.236922
0.236712
0.237508
0.240468
0.257223
0.436773
1.81445
8.07654
20.8131
46.751
100.797
142.732
183.104
188.571
174.84
156.943
149.717
157.596
182.406
218.797
258.201
294.218
326.053
354.236
379.055
401.09
423.756
0.239139
0.238283
0.237482
0.236819
0.236354
0.236842
0.240074
0.25659
0.409008
1.58274
6.64908
17.0632
34.454
68.4312
108.629
151.005
168.683
164.811
159.4
162.732
180.042
211.486
251.334
291.655
327.735
358.823
385.178
407.249
424.939
440.513
0.239135
0.238273
0.237456
0.236759
0.236139
0.236059
0.239196
0.257678
0.40224
1.49174
5.94278
15.229
30.3164
54.1975
83.7991
121.244
149.557
162.221
171.518
185.569
210.563
246.277
287.39
327.702
363.6
393.878
417.349
433.942
443.386
446.941
0.239131
0.238263
0.237433
0.236715
0.236045
0.235737
0.23843
0.260897
0.415714
1.46488
5.43465
13.8705
27.443
45.2844
65.4812
94.7664
129.432
159.397
182.977
208.553
241.159
280.799
323.364
364.105
399.497
427.558
446.77
456.458
457.266
450.933
0.239126
0.238251
0.237406
0.23666
0.235973
0.235558
0.237911
0.259517
0.41391
1.3529
4.74703
12.4058
24.7324
38.8998
52.2524
70.9269
101.984
143.735
183.002
222.488
265.915
312.583
359.063
401.538
436.815
462.724
478.068
482.523
477.436
463.657
0.239122
0.238242
0.237388
0.236627
0.235923
0.235361
0.237297
0.255766
0.374908
1.0285
3.63899
10.2243
21.4102
33.8737
42.915
51.5366
69.8198
108.23
164.167
224.659
284.873
342.48
395.229
440.577
476.178
500.524
513.123
514.07
504.723
485.033
0.239097
0.238197
0.237328
0.236568
0.235831
0.235189
0.236543
0.249846
0.330119
0.740355
2.46313
7.76228
16.5325
25.9212
31.8282
35.2566
44.8681
73.9229
141.661
222.045
296.429
363.399
421.71
469.721
505.824
529.273
540.155
538.601
525.411
500.668
0.239131
0.238299
0.237574
0.237348
0.238912
0.250257
0.339313
0.978973
4.04337
12.5719
28.2716
54.3781
84.3905
113.177
163.113
212.696
140.547
102.514
94.6913
96.035
92.9223
76.0435
60.3
52.1619
49.5813
48.9101
48.5351
49.8601
56.1066
69.1895
0.239136
0.238312
0.237594
0.237272
0.23898
0.252476
0.358977
1.14841
4.74556
14.1047
30.948
55.9874
85.348
116.827
165.312
214.407
142.837
104.526
99.0014
105.528
107.032
95.4264
83.7389
75.707
72.2351
71.1768
68.5355
66.2877
68.8683
82.6901
0.23914
0.238317
0.237608
0.237222
0.238405
0.247749
0.320278
0.898939
4.00768
13.26
30.2158
54.1215
84.9907
120.279
169.291
216.471
146.768
108.753
107.972
121.49
125.033
114.817
101.481
90.5496
88.9026
91.5579
91.8647
89.5815
89.5578
101.091
0.239144
0.23832
0.237633
0.23732
0.238064
0.24342
0.285994
0.652693
2.9319
11.0697
27.1503
51.1695
85.5768
125.623
175.805
219
152.109
113.563
116.845
133.958
134.262
120.192
105.292
100.076
103.052
109.307
113.534
113.94
113.88
119.285
0.239149
0.238332
0.237687
0.237508
0.238092
0.241847
0.272535
0.55072
2.4228
9.61938
24.2236
49.0363
88.7344
133.881
184.033
221.211
158.839
117.65
121.773
137.293
131.713
116.777
110.433
114.774
123.257
131.229
135.792
136.268
136.392
137.685
0.239154
0.238348
0.23773
0.237577
0.238105
0.241339
0.266644
0.496748
2.14436
8.69941
22.7369
48.9087
95.0668
144.931
192.663
222.236
166.095
122.577
123.166
132.955
125.679
118.696
123.974
134.291
144.497
152.108
155.631
155.994
157.677
160.958
0.239158
0.238359
0.237736
0.23755
0.238036
0.240893
0.261133
0.441862
1.83318
7.76562
22.5108
50.8805
105.071
158.41
200.897
221.259
173.217
129.441
125.668
131.315
125.757
129.263
139.191
150.453
160.984
168.605
173.062
176.343
182.989
192.184
0.23916
0.238362
0.237727
0.237518
0.237935
0.240326
0.255709
0.384589
1.47689
6.77258
22.6191
56.6561
116.639
174.331
209.533
218.257
178.023
139.727
134.559
136.917
135.011
140.328
149.708
162.048
173.619
183.088
191.326
200.685
215.172
231.102
0.23916
0.238357
0.237713
0.237489
0.237825
0.239752
0.251319
0.34107
1.1685
6.15417
20.5509
62.0512
121.964
188.279
220.001
217.317
182.536
152.654
148.658
148.622
145.284
146.724
157.189
170.467
183.464
196.795
211.347
228.844
252.117
272.674
0.239158
0.238346
0.237681
0.237408
0.237671
0.239241
0.247978
0.31418
0.912265
4.81393
19.0492
64.8281
118.398
188.904
228.726
221.284
189.435
166.554
163.864
159.193
148.735
150.733
161.938
175.563
191.835
211.261
233.491
258.524
286.456
305.329
0.239155
0.238335
0.237629
0.237256
0.237448
0.238751
0.245504
0.29914
0.797909
4.03507
17.6082
60.1292
109.601
175.727
231.395
229.024
199.913
180.393
175.613
161.107
149.377
152.905
163.565
179.898
202.099
228.167
255.553
282.917
309.54
322.965
0.239151
0.238326
0.237579
0.237078
0.237176
0.238246
0.243644
0.288277
0.738208
3.93784
17.1705
47.063
93.3574
153.228
218.727
231.639
209.521
191.337
178.649
158.023
149.518
153.424
166.643
189.887
218.28
247.163
274.856
299.842
321.422
336.799
0.239147
0.238315
0.237547
0.23696
0.236903
0.237834
0.242352
0.281183
0.682763
3.6669
14.668
34.7608
72.1589
126.699
185.073
217.923
209.364
193.712
173.662
156.823
151.93
159.447
180.777
210.509
241.063
268.733
293.319
313.949
335.414
361.343
0.239143
0.2383
0.237521
0.236888
0.236619
0.237407
0.241746
0.275909
0.636953
3.24588
12.3821
28.389
55.3032
101.124
148.402
188.681
196.805
186.801
171.806
163.159
164.36
180.067
208.212
241.263
271.168
296.574
318.119
338.084
364.217
403.425
0.239139
0.238285
0.237486
0.236809
0.236349
0.236848
0.24158
0.274368
0.595885
2.84978
10.5556
24.671
46.715
80.112
118.41
158.372
179.749
182.378
180.486
181.582
191.154
213.852
246.552
280.913
310.997
336.455
358.38
381.2
410.145
450.241
0.239135
0.238272
0.237457
0.23675
0.236138
0.236325
0.241033
0.277968
0.58139
2.57063
9.09082
21.7802
41.4071
66.9934
96.5848
134.242
166.713
186.39
198.796
208.994
226.788
255.64
291.489
327.882
360.191
388.004
411.846
433.988
455.387
478.307
0.23913
0.23826
0.23743
0.236698
0.236039
0.235981
0.240655
0.283034
0.593597
2.38243
7.95174
19.2694
36.6524
57.0911
80.2538
114.09
154.985
190.329
215.245
237.012
264.299
298.322
336.376
374.312
408.737
437.76
459.547
473.881
480.736
482.522
0.239125
0.238249
0.237402
0.236649
0.235972
0.235781
0.240249
0.280913
0.58112
2.13764
6.93017
17.0877
32.6208
49.4313
66.6591
91.8158
132.29
180.003
221.095
258.183
296.638
337.19
378.252
416.994
450.356
475.722
491.179
495.921
491.7
480.807
0.239118
0.238234
0.237374
0.236608
0.235898
0.235528
0.23924
0.272213
0.494058
1.64104