/*--------------------------------*- C++ -*----------------------------------*\
| =========                 |                                                 |
| \\      /  F ield         | OpenFOAM: The Open Source CFD Toolbox           |
|  \\    /   O peration     | Version:  2512                                  |
|   \\  /    A nd           | Website:  www.openfoam.com                      |
|    \\/     M anipulation  |                                                 |
\*---------------------------------------------------------------------------*/
FoamFile
{
    version     2.0;
    format      ascii;
    arch        "LSB;label=32;scalar=64";
    class       volScalarField;
    location    "60";
    object      nut;
}
// * * * * * * * * * * * * * * * * * * * * * * * * * * * * * * * * * * * * * //

dimensions      [0 2 -1 0 0 0 0];

internalField   nonuniform List<scalar> 
84826
(
0.0144209
0.0141804
0.0139513
0.0137328
0.0135243
0.01332
0.0131122
0.0128299
0.012336
0.0130847
0.0195046
0.0316292
0.0511615
0.0873993
0.137747
0.200682
0.250357
0.241865
0.219179
0.208449
0.218694
0.223952
0.2039
0.180626
0.156766
0.116217
0.0813583
0.0781236
0.0792541
0.0994359
0.0144211
0.0141809
0.0139524
0.0137346
0.0135271
0.0133267
0.0131249
0.0128821
0.0124964
0.0123434
0.0216044
0.0340923
0.0474038
0.0724737
0.124246
0.192673
0.246701
0.243304
0.218751
0.205208
0.211398
0.22154
0.201264
0.177961
0.154527
0.133791
0.11651
0.108517
0.107554
0.110221
0.0144212
0.0141814
0.0139538
0.0137375
0.0135325
0.0133372
0.0131463
0.0129435
0.00966724
0.00872287
0.0368704
0.0572938
0.0637052
0.0712731
0.109499
0.181273
0.240152
0.238526
0.213604
0.198171
0.202061
0.216578
0.19586
0.1725
0.150729
0.134234
0.124185
0.122023
0.125142
0.132913
0.0144213
0.0141819
0.0139548
0.0137398
0.0135368
0.0133443
0.0131628
0.0112505
0.00675337
0.00937155
0.0631647
0.0938055
0.0998195
0.093563
0.106037
0.171541
0.232389
0.229854
0.205041
0.189702
0.192169
0.209885
0.188555
0.166494
0.15001
0.142588
0.142978
0.149752
0.159251
0.169351
0.0144215
0.0141824
0.0139558
0.0137417
0.0135408
0.0133504
0.0131762
0.00834804
0.00492388
0.0121075
0.0841637
0.131082
0.132424
0.125948
0.123356
0.172614
0.22734
0.221329
0.194713
0.180037
0.182221
0.200988
0.18003
0.163349
0.158493
0.165823
0.178188
0.189649
0.199057
0.203373
0.0144216
0.0141828
0.0139567
0.0137434
0.0135439
0.0133554
0.0127384
0.00636084
0.00419275
0.0138109
0.104224
0.162883
0.159618
0.156632
0.161448
0.192266
0.230665
0.218335
0.186078
0.172309
0.1768
0.191109
0.174036
0.170607
0.185524
0.206463
0.215379
0.204487
0.198173
0.184568
0.0144217
0.0141831
0.0139573
0.0137445
0.0135447
0.0133585
0.011583
0.00529085
0.00408523
0.0154338
0.125397
0.192717
0.191805
0.197957
0.204414
0.220654
0.241757
0.22593
0.186277
0.173766
0.186826
0.18361
0.177575
0.198546
0.218169
0.204691
0.198704
0.195222
0.19133
0.184491
0.0144218
0.0141832
0.0139575
0.0137448
0.0135452
0.01336
0.0107274
0.00508817
0.00439514
0.024073
0.0409099
0.0996188
0.100117
0.0977811
0.243411
0.247177
0.255073
0.242567
0.199046
0.192982
0.196002
0.181956
0.202666
0.203229
0.196094
0.195723
0.196299
0.196527
0.195362
0.197134
0.0144219
0.0141833
0.0139574
0.0137445
0.0135453
0.01336
0.011271
0.00540912
0.00412995
0.0317819
0.0276164
0.0784497
0.105025
0.109166
0.26749
0.265451
0.265356
0.254863
0.224738
0.212938
0.190323
0.198555
0.190613
0.190483
0.196257
0.201416
0.204767
0.206964
0.208594
0.218643
0.0144219
0.0141831
0.0139569
0.0137438
0.0135445
0.0133576
0.0122531
0.00700911
0.00427308
0.00713635
0.0219872
0.0185636
0.0312308
0.0405221
0.266871
0.271728
0.270492
0.255027
0.231697
0.206736
0.191649
0.178555
0.185222
0.198003
0.20889
0.216716
0.222185
0.226438
0.231273
0.248529
0.0144219
0.014183
0.0139565
0.013743
0.0135441
0.0133552
0.0131833
0.00770674
0.00503216
0.0336706
0.0388495
0.0373919
0.0297699
0.250674
0.268197
0.26916
0.250598
0.225309
0.192529
0.166007
0.177419
0.198883
0.216523
0.230506
0.240689
0.248195
0.254666
0.262991
0.283016
0.014422
0.014183
0.0139566
0.0137426
0.0135433
0.0133538
0.0131788
0.00967071
0.0056509
0.021512
0.00672321
0.0226607
0.0363596
0.0176354
0.219113
0.246393
0.253325
0.21962
0.163972
0.14992
0.165777
0.196385
0.223329
0.243886
0.261205
0.273824
0.283045
0.28959
0.297378
0.313777
0.014422
0.014183
0.0139564
0.013742
0.0135413
0.0133503
0.013174
0.0116581
0.00761394
0.00736094
0.00399417
0.0634081
0.109515
0.113258
0.216054
0.218163
0.219095
0.169412
0.134609
0.150053
0.189812
0.226585
0.256917
0.281029
0.29855
0.310809
0.319495
0.324978
0.331182
0.341432
0.014422
0.0141831
0.0139561
0.0137413
0.0135392
0.0133467
0.013169
0.0129461
0.00846462
0.00838751
0.0193777
0.138883
0.180264
0.204098
0.215341
0.216031
0.201567
0.158465
0.139035
0.178917
0.225971
0.267174
0.298215
0.321734
0.339473
0.352023
0.360212
0.36388
0.367232
0.367794
0.0144221
0.014183
0.013956
0.0137407
0.0135372
0.0133452
0.0131655
0.0130001
0.0101471
0.00771833
0.0105613
0.0917468
0.139246
0.164369
0.190082
0.206546
0.189549
0.161595
0.166531
0.220134
0.275504
0.314426
0.344764
0.369501
0.388786
0.401647
0.408356
0.408436
0.406718
0.393521
0.0144221
0.0141829
0.0139558
0.0137402
0.0135354
0.0133433
0.0131624
0.0129908
0.0127978
0.00793188
0.00891062
0.0494843
0.099779
0.130136
0.157029
0.175612
0.165277
0.143014
0.161599
0.235707
0.308429
0.362705
0.400646
0.428307
0.448051
0.457344
0.459544
0.455796
0.449725
0.419137
0.014422
0.0141827
0.0139554
0.0137394
0.0135338
0.0133411
0.0131603
0.0129838
0.0127947
0.00982358
0.00858667
0.0214489
0.0601628
0.0965847
0.125278
0.126386
0.136528
0.126584
0.154555
0.237473
0.313693
0.369958
0.410918
0.4398
0.458422
0.46835
0.470663
0.4663
0.459462
0.444684
0.0144218
0.0141823
0.0139549
0.0137386
0.0135324
0.0133389
0.0131595
0.0129781
0.0128016
0.0124753
0.0105416
0.0157098
0.032106
0.0663687
0.0969929
0.0988414
0.117892
0.111556
0.136123
0.228743
0.314317
0.375218
0.418625
0.448728
0.467756
0.477562
0.479435
0.473985
0.465871
0.457089
0.0144216
0.014182
0.0139544
0.0137381
0.0135318
0.0133379
0.0131583
0.0129731
0.0127919
0.0124791
0.0121059
0.0145029
0.0222452
0.0443914
0.0733191
0.0760659
0.0935992
0.0997516
0.122979
0.215009
0.312462
0.379112
0.425101
0.45619
0.475353
0.48478
0.485137
0.478098
0.468419
0.458396
0.0144208
0.0141802
0.0139519
0.0137351
0.0135283
0.0133333
0.0131533
0.0129675
0.0127722
0.0124582
0.012032
0.013616
0.0182829
0.0295347
0.0515896
0.0590026
0.0729759
0.0844971
0.10929
0.206206
0.311383
0.381861
0.429325
0.46079
0.479868
0.488885
0.486977
0.478405
0.467195
0.455842
0.122925
0.113093
0.104542
0.096943
0.0899396
0.0733787
0.059075
0.0525464
0.0381548
0.0688595
0.201626
0.417039
0.662784
0.951542
1.14676
1.06416
1.1342
1.39814
1.30138
1.21115
0.996781
0.781359
0.612042
0.485263
0.381006
0.300679
0.291313
0.30465
0.288573
0.288474
0.122915
0.113122
0.104645
0.096903
0.0897958
0.0754242
0.0486357
0.0394459
0.0342281
0.0494086
0.110475
0.279103
0.497797
0.797151
1.15869
1.07142
1.11972
1.39303
1.29785
1.20131
0.977119
0.75614
0.586723
0.462451
0.367579
0.308937
0.309884
0.340311
0.349933
0.338042
0.122906
0.113082
0.104677
0.0969679
0.0895418
0.0755756
0.0467001
0.02978
0.0239229
0.0386988
0.0980608
0.19757
0.313012
0.537295
0.972003
1.05156
1.11645
1.38693
1.29371
1.17901
0.933592
0.711042
0.547116
0.434478
0.369238
0.35344
0.374982
0.404591
0.414766
0.406117
0.12291
0.113044
0.104624
0.0969233
0.0892993
0.0672803
0.0422759
0.0235768
0.0177452
0.042215
0.132128
0.178754
0.225212
0.371913
0.780767
1.02182
1.11529
1.37635
1.2856
1.1261
0.86813
0.654699
0.509114
0.432373
0.419878
0.44024
0.458233
0.470553
0.477779
0.480053
0.122906
0.113039
0.104597
0.0969009
0.0894569
0.0577496
0.0334417
0.0179948
0.0148475
0.050166
0.156432
0.182532
0.225797
0.364675
0.725004
1.01624
1.12006
1.36087
1.26749
1.05288
0.791771
0.598904
0.493543
0.471405
0.49374
0.514422
0.523426
0.529374
0.539411
0.552435
0.122898
0.113043
0.104603
0.0969149
0.0894424
0.0530607
0.0257398
0.014787
0.0118787
0.0628332
0.160878
0.20534
0.297609
0.48609
0.796733
1.08203
1.15796
1.34371
1.23631
0.967491
0.717703
0.565634
0.516259
0.528927
0.551895
0.570017
0.584502
0.597469
0.616456
0.642402
0.122894
0.113055
0.104597
0.0968517
0.0863202
0.0512334
0.021118
0.0149216
0.00960365
0.0891763
0.160535
0.228327
0.402497
0.643967
0.917391
1.15964
1.21951
1.32667
1.17036
0.878667
0.664458
0.539734
0.516056
0.534697
0.582904
0.640354
0.671568
0.697655
0.728977
0.772553
0.122897
0.11308
0.104637
0.096845
0.0845632
0.0488054
0.0201148
0.0157843
0.0102369
0.105439
0.151776
0.195628
0.459204
0.722104
1.10916
1.26956
1.29939
1.30861
1.08671
0.809771
0.599429
0.478851
0.494902
0.593401
0.694737
0.758474
0.812924
0.855691
0.903399
0.971879
0.122908
0.113112
0.104683
0.096947
0.0845979
0.0489492
0.0222634
0.0142914
0.0157689
0.112972
0.147149
0.122317
0.331631
0.749282
1.18744
1.32115
1.35683
1.27678
1.01479
0.774592
0.487591
0.45513
0.599451
0.737072
0.852648
0.954005
1.03607
1.09628
1.16137
1.24965
0.122907
0.113138
0.10473
0.097059
0.086989
0.0506895
0.0302717
0.0147564
0.0128605
0.0699507
0.067524
0.0278059
0.0873841
0.210906
1.08831
1.29439
1.32815
1.22697
0.966858
0.588745
0.424907
0.569522
0.750455
0.934001
1.10728
1.24553
1.34982
1.41607
1.4813
1.54499
0.122889
0.113163
0.104842
0.0972305
0.0901997
0.0567978
0.0342923
0.0219984
0.0100109
0.0357467
0.0805873
0.0777101
1.03529
1.26721
1.28513
1.16343
0.842684
0.437868
0.497236
0.723042
0.970643
1.23768
1.4509
1.59812
1.69606
1.73291
1.74913
1.74534
0.122884
0.113211
0.104966
0.0974877
0.0907102
0.0638266
0.0398568
0.0300452
0.0118983
0.0323601
0.0212597
0.0585368
0.109168
0.194745
0.868555
1.06562
1.20522
1.04831
0.549953
0.42602
0.655512
0.944561
1.29245
1.602
1.77823
1.86574
1.90564
1.91386
1.91137
1.89164
0.122896
0.113271
0.105092
0.0977953
0.0912186
0.0666169
0.0464876
0.0346891
0.0194736
0.0154589
0.0181425
0.147929
0.301203
0.435071
0.878559
1.02055
0.991654
0.712379
0.414643
0.577525
0.852084
1.25965
1.62011
1.83979
1.96715
2.03395
2.06162
2.05971
2.04737
2.01758
0.122926
0.113328
0.105239
0.0981172
0.0917164
0.0715498
0.0504014
0.0411507
0.0257357
0.014865
0.0955988
0.160177
0.227776
0.386519
0.712762
0.886144
0.838038
0.520809
0.529672
0.72685
1.15089
1.54271
1.82344
2.00922
2.1229
2.18288
2.20343
2.19304
2.17145
2.13213
0.122953
0.113378
0.105386
0.0984337
0.0920879
0.0845687
0.0537112
0.0513283
0.028509
0.0247981
0.0391911
0.153592
0.201381
0.351245
0.544422
0.705869
0.678271
0.545603
0.620972
0.983602
1.38724
1.67115
1.9707
2.15833
2.26798
2.32254
2.33669
2.31849
2.28733
2.23776
0.12296
0.113421
0.105529
0.0987107
0.0923872
0.0863816
0.0634691
0.05567
0.0352426
0.0332593
0.0401809
0.133033
0.179901
0.301407
0.468651
0.56397
0.554536
0.554621
0.809772
0.999287
1.22055
1.52685
1.84596
2.13056
2.37855
2.45481
2.46206
2.43569
2.39473
2.33368
0.122964
0.113463
0.105644
0.0989449
0.0927127
0.0869877
0.0774844
0.0609365
0.0554305
0.0285928
0.0596453
0.119905
0.156133
0.256508
0.424245
0.462584
0.4672
0.588128
0.733398
0.896434
1.16925
1.48182
1.77933
2.04115
2.27174
2.48616
2.57403
2.53855
2.48812
2.41525
0.122963
0.113499
0.105731
0.0991315
0.0930127
0.0874685
0.0829451
0.0642261
0.0752578
0.0375616
0.0480107
0.162809
0.251344
0.273742
0.380823
0.36963
0.376801
0.496781
0.650601
0.881826
1.17714
1.46569
1.73784
1.99528
2.23801
2.47582
2.66492
2.61816
2.55753
2.47483
0.122963
0.113522
0.105795
0.0992763
0.0932368
0.0877951
0.0834687
0.0756617
0.0762491
0.0561227
0.0417187
0.133961
0.199831
0.19315
0.271382
0.275897
0.293755
0.377419
0.662169
0.91303
1.17464
1.42831
1.69795
1.9795
2.26495
2.55144
2.72751
2.67023
2.59863
2.50676
0.122958
0.113518
0.1058
0.0993303
0.093368
0.0879082
0.0838127
0.0806133
0.0579153
0.0698572
0.0307565
0.0886717
0.0957636
0.155019
0.156945
0.18888
0.226822
0.285935
0.559208
0.857909
1.09871
1.36451
1.66547
1.99381
2.34315
2.6957
2.7585
2.69576
2.61345
2.51432
0.134471
0.133816
0.132848
0.131585
0.113324
0.0782422
0.0738199
0.0513918
0.0661141
0.239203
0.62166
0.940011
1.30955
1.84033
1.84353
1.41156
1.20349
1.12764
1.12228
1.09727
0.993228
0.854629
0.674021
0.520683
0.439407
0.380923
0.387426
0.356378
0.368847
0.380591
0.134472
0.133823
0.132863
0.131575
0.119154
0.0725189
0.0555978
0.0498408
0.058753
0.140785
0.342369
0.879143
1.21326
1.63426
1.70427
1.42731
1.21191
1.13566
1.14788
1.1514
1.05595
0.921403
0.754908
0.603196
0.471871
0.427142
0.453333
0.475373
0.473875
0.485494
0.134473
0.133824
0.132876
0.13159
0.117182
0.074468
0.0481753
0.0364957
0.0404314
0.0792519
0.193275
0.541506
0.795452
1.27141
1.46333
1.36457
1.22777
1.22256
1.27387
1.27025
1.15323
1.01062
0.783087
0.603964
0.514413
0.506726
0.538336
0.563495
0.560971
0.574016
0.134474
0.133823
0.13288
0.131609
0.104517
0.0724882
0.0436883
0.027341
0.0271312
0.0601059
0.18112
0.316524
0.503811
0.934325
1.31312
1.30012
1.25805
1.38325
1.52151
1.46723
1.25951
0.984944
0.744862
0.620684
0.596024
0.615574
0.640685
0.660463
0.663562
0.647907
0.134475
0.133826
0.132891
0.131657
0.0990857
0.0627323
0.0350203
0.0217701
0.020184
0.0615053
0.195576
0.255985
0.412492
0.798321
1.35083
1.31409
1.31145
1.56696
1.60567
1.47308
1.20275
0.908618
0.722855
0.670746
0.685978
0.712692
0.737064
0.760186
0.779777
0.803042
0.134476
0.133831
0.132906
0.13168
0.097454
0.0542106
0.028895
0.0177599
0.0163836
0.0822005
0.185088
0.259929
0.437305
0.800625
1.3498
1.4359
1.40459
1.72241
1.62294
1.41876
1.10723
0.846686
0.663415
0.677983
0.763746
0.805196
0.846401
0.884712
0.926738
0.977681
0.134477
0.133838
0.132914
0.131668
0.0936906
0.0495498
0.0257011
0.0152266
0.0153817
0.121199
0.184555
0.273262
0.525995
0.939138
1.42811
1.59758
1.53628
1.75363
1.62203
1.3378
1.01969
0.657611
0.62719
0.762289
0.861398
0.940149
1.01404
1.07789
1.1463
1.23007
0.134478
0.133843
0.132925
0.131677
0.0929804
0.0465358
0.025486
0.0135583
0.0163461
0.136901
0.188611
0.219344
0.576944
1.0266
1.65385
1.74619
1.67908
1.77893
1.5905
1.25507
0.748778
0.588515
0.740702
0.896562
1.03514
1.17145
1.28848
1.38204
1.47591
1.58472
0.134478
0.133843
0.132929
0.131711
0.092212
0.0466572
0.0284494
0.012494
0.0199192
0.128847
0.169058
0.147343
0.262724
0.790981
1.79135
1.86891
1.82401
1.7881
1.53652
1.06813
0.601817
0.693863
0.896655
1.10459
1.33274
1.53132
1.68483
1.79517
1.89453
1.98845
0.134478
0.133842
0.132926
0.13172
0.0904325
0.0522434
0.0329705
0.0137791
0.0156817
0.0791529
0.127423
0.106278
0.133861
0.0796717
1.69545
1.90193
1.91685
1.77282
1.46668
0.734409
0.643187
0.858341
1.11266
1.44316
1.74796
1.97787
2.13208
2.22602
2.29504
2.32584
0.134477
0.133844
0.132933
0.131732
0.0949192
0.0599215
0.0412385
0.0193624
0.01179
0.0559356
0.0672845
0.128305
1.41205
1.77555
1.89955
1.71612
1.06156
0.659235
0.805754
1.04518
1.44822
1.86221
2.1787
2.38251
2.49482
2.54679
2.56511
2.55462
0.134476
0.133845
0.132939
0.131765
0.0995463
0.0706476
0.0452779
0.0306124
0.0149578
0.0358741
0.0421571
0.0508208
0.191285
0.191386
1.30848
1.56137
1.72971
1.44807
0.838415
0.777556
0.928935
1.33747
1.8289
2.23333
2.49405
2.64853
2.72961
2.75882
2.75592
2.72777
0.134476
0.133847
0.132947
0.131796
0.107931
0.0726644
0.0498878
0.0398515
0.0231241
0.024755
0.0449288
0.142276
0.265916
0.55269
1.53686
1.53116
1.54232
1.11152
0.752404
0.834142
1.15333
1.66312
2.13809
2.49156
2.72162
2.85641
2.92197
2.93651
2.92047
2.88055
0.134477
0.133851
0.132965
0.13182
0.125608
0.0746579
0.0532831
0.0459072
0.0285123
0.0307805
0.100268
0.183923
0.308488
0.530719
1.25802
1.46523
1.28577
0.853415
0.81054
0.991421
1.43364
1.94716
2.39227
2.71474
2.9262
3.04899
3.10299
3.10622
3.07918
3.02855
0.134478
0.133855
0.132981
0.131848
0.130452
0.0878704
0.0556644
0.0562525
0.0357128
0.0365841
0.0819926
0.193641
0.313451
0.42692
0.855798
1.13507
0.926148
0.872296
0.920101
1.24199
1.71507
2.20533
2.62167
2.92841
3.12863
3.23943
3.28333
3.27676
3.23886
3.17543
0.134478
0.133857
0.132995
0.131885
0.130488
0.117535
0.0683946
0.0536559
0.0503034
0.0451763
0.0833038
0.168079
0.40386
0.510974
0.720863
0.9733
0.934929
0.932708
1.15108
1.52743
1.89664
2.1446
2.4651
2.78499
3.09102
3.37197
3.4645
3.44914
3.40013
3.32276
0.134477
0.133859
0.133006
0.131924
0.130557
0.128971
0.0904942
0.0668123
0.0547029
0.0652571
0.0987138
0.213733
0.652018
0.672933
0.796024
0.860691
0.882069
1.06681
1.33346
1.51442
1.77332
2.07958
2.36783
2.63668
2.8887
3.12571
3.34387
3.57481
3.55664
3.4643
0.134476
0.13386
0.133014
0.131955
0.130626
0.129074
0.112247
0.0841689
0.0893687
0.0712215
0.110568
0.261344
0.804561
0.731249
0.797755
0.717269
0.736346
0.885869
1.05306
1.39953
1.75139
2.03108
2.26558
2.49491
2.72357
2.94751
3.17049
3.42683
3.69086
3.58954
0.134475
0.13386
0.133019
0.131976
0.130675
0.129156
0.127705
0.0930606
0.128792
0.0741283
0.103358
0.19301
0.535194
0.386013
0.630113
0.533142
0.529398
0.702562
0.972892
1.38578
1.69899
1.92067
2.14266
2.38043
2.62556
2.87535
3.13155
3.42885
3.7365
3.68587
0.134469
0.13385
0.133009
0.131975
0.130696
0.129187
0.127754
0.105907
0.0995624
0.0553358
0.0645319
0.106308
0.182858
0.248241
0.291923
0.341018
0.359931
0.505424
0.924573
1.25748
1.5273
1.76398
2.02374
2.30167
2.59188
2.90223
3.238
3.63941
3.87849
3.74885
0.134754
0.134665
0.134575
0.134531
0.114332
0.0930287
0.0862013
0.0614783
0.156002
0.617048
0.995493
0.972978
1.40574
2.33614
1.7964
1.31217
0.934823
0.775303
0.827686
0.946616
0.917148
0.746392
0.553409
0.472817
0.452703
0.400517
0.399852
0.427359
0.457707
0.514389
0.134755
0.134669
0.134584
0.134527
0.12368
0.077986
0.0694014
0.0656942
0.127667
0.415278
0.943443
1.40808
1.76806
2.18428
1.82714
1.39399
0.939578
0.786274
0.857759
0.993306
0.972718
0.832191
0.665613
0.56009
0.525231
0.524703
0.518466
0.520106
0.56452
0.627449
0.134756
0.134672
0.13459
0.134531
0.122498
0.0746256
0.0540697
0.0493073
0.0820987
0.213178
0.543568
0.97237
1.3281
1.86919
1.67218
1.4303
0.979366
0.848309
0.939078
1.10528
1.12126
1.02256
0.853632
0.683795
0.611048
0.620964
0.65419
0.641316
0.633714
0.715784
0.134758
0.134674
0.134592
0.134561
0.107543
0.0751587
0.0460876
0.0359496
0.0534492
0.128197
0.360478
0.556735
0.898473
1.49698
1.58445
1.46015
1.06975
0.982695
1.09828
1.2918
1.32058
1.10012
0.862756
0.734816
0.711823
0.739119
0.775104
0.796129
0.757587
0.75644
0.134759
0.134677
0.134605
0.13461
0.102251
0.0669776
0.0395102
0.0295948
0.0367603
0.0975851
0.259489
0.364408
0.65577
1.23858
1.70304
1.5569
1.21078
1.18657
1.35951
1.49502
1.32688
1.05779
0.856236
0.796856
0.815943
0.858638
0.902204
0.936358
0.947957
1.00168
0.13476
0.134682
0.134622
0.13463
0.102967
0.0588055
0.0349731
0.0238119
0.0286346
0.0968259
0.204007
0.312351
0.593757
1.14953
1.84881
1.78069
1.40105
1.43358
1.60086
1.50301
1.27288
1.00115
0.85613
0.864838
0.917807
0.987366
1.05371
1.10955
1.16455
1.23409
0.134762
0.134686
0.134628
0.134632
0.101347
0.0536137
0.0329768
0.0185883
0.0268798
0.105042
0.181814
0.313355
0.666027
1.25634
1.88335
2.15233
1.65159
1.68123
1.65618
1.48398
1.20166
0.875531
0.85813
0.947478
1.05539
1.17398
1.28042
1.36892
1.45791
1.562
0.134762
0.134688
0.134628
0.134629
0.0985335
0.0509831
0.0331653
0.0156418
0.0244544
0.128852
0.188364
0.264484
0.718572
1.33744
2.06836
2.20573
1.95872
1.8429
1.70168
1.44979
1.03905
0.828018
0.94773
1.09276
1.28572
1.47109
1.62529
1.74576
1.85719
1.96944
0.134762
0.134687
0.134625
0.134633
0.0964696
0.0517798
0.036404
0.0133544
0.0237738
0.123564
0.14991
0.23145
0.679068
1.32136
2.21399
2.25731
2.08383
1.90814
1.72111
1.3851
0.856895
0.935917
1.08124
1.3465
1.63232
1.87588
2.05838
2.18614
2.28639
2.3623
0.134761
0.134684
0.134614
0.134621
0.0962273
0.0575223
0.0395851
0.0151913
0.0145375
0.0933686
0.100374
0.161354
0.133315
0.196066
2.28587
2.29598
2.12816
1.94978
1.68851
1.03121
0.957343
1.02674
1.31658
1.69002
2.03339
2.29331
2.4673
2.57215
2.63253
2.63729
0.134761
0.134681
0.134603
0.13459
0.100257
0.068177
0.0432094
0.0237486
0.0131809
0.0796653
0.0976648
0.0427702
0.0846342
0.265054
2.03428
2.30876
2.14961
1.93684
1.3113
1.02424
0.97634
1.20523
1.6072
2.03399
2.38091
2.62016
2.7638
2.83279
2.55953
2.31671
0.13476
0.134678
0.134597
0.134558
0.107747
0.0761942
0.0510628
0.0329173
0.0210898
0.0439145
0.0852505
0.107791
0.235468
0.480447
1.79419
1.99723
2.10182
1.60566
1.1746
0.99704
1.07917
1.42318
1.88006
2.30868
2.63265
2.84685
2.96579
2.60231
2.31976
2.19767
0.134759
0.134675
0.134587
0.134525
0.117553
0.0754449
0.0556747
0.0447184
0.0348257
0.0525958
0.106762
0.339481
0.318332
0.853653
1.85261
1.9707
1.82496
1.35822
1.12438
1.0193
1.23435
1.6469
2.12511
2.54284
2.84736
3.03937
2.83668
2.50321
2.33353
2.30164
0.134759
0.134672
0.134577
0.134495
0.134471
0.0773731
0.0550987
0.0465432
0.0482986
0.0860437
0.219132
0.403772
0.422763
0.646682
1.4494
1.76011
1.53693
1.23038
1.06266
1.129
1.43757
1.9051
2.39096
2.78651
3.06343
3.18038
2.94815
2.71879
2.6379
2.69184
0.134758
0.13467
0.13457
0.134468
0.134377
0.096986
0.0550827
0.0436105
0.0514683
0.103043
0.185137
0.519383
0.638587
0.566866
1.17179
1.44256
1.23585
1.16921
1.13553
1.33408
1.72805
2.21615
2.67993
3.0444
3.29224
3.43553
3.41109
3.31859
3.33374
3.43338
0.134758
0.134669
0.134566
0.134455
0.134325
0.134229
0.0694662
0.0466991
0.0512634
0.0957217
0.197807
0.51465
0.891404
0.790414
1.0111
1.25705
1.15565
1.21705
1.34549
1.65292
2.08147
2.55022
2.97432
3.30455
3.52711
3.65479
3.7068
3.70683
3.67239
3.61201
0.134757
0.134667
0.134562
0.13445
0.134308
0.134147
0.106673
0.066693
0.0609593
0.102498
0.231906
0.666632
1.06426
1.06935
1.15359
1.18786
1.22724
1.3671
1.62488
1.98454
2.41298
2.85543
3.24864
3.55409
3.76143
3.87906
3.92441
3.91554
3.86719
3.79081
0.134756
0.134664
0.134558
0.134443
0.134301
0.134116
0.134217
0.0993721
0.101671
0.113758
0.25
0.78811
1.07414
1.14206
1.08901
1.03323
1.11414
1.24162
1.66229
2.17298
2.63955
3.06081
3.25928
3.47222
3.70656
3.94907
4.13621
4.12065
4.05862
3.96318
0.134754
0.134661
0.134553
0.134436
0.134293
0.134089
0.13407
0.104838
0.145756
0.132633
0.213096
0.408027
0.818731
0.851143
0.91528
0.782032
0.803793
0.996703
1.39561
2.05772
2.5524
2.80494
2.9946
3.19097
3.39347
3.59822
3.80496
4.04572
4.2215
4.11008
0.134749
0.134652
0.13454
0.134425
0.13428
0.134056
0.133882
0.106938
0.142314
0.0728569
0.203797
0.162999
0.640233
0.484835
0.487932
0.487598
0.509799
0.733084
1.15857
1.77311
2.22555
2.48598
2.70726
2.92978
3.15149
3.38002
3.62828
3.95145
4.30514
4.21387
0.134762
0.1347
0.134665
0.134713
0.126419
0.105016
0.0828802
0.0824548
0.291701
0.832014
1.13516
1.02875
1.66311
2.64327
1.55052
1.10991
0.75493
0.646528
0.714608
0.790909
0.740354
0.626541
0.563042
0.543623
0.489648
0.47083
0.516665
0.555077
0.618372
0.753084
0.134763
0.134703
0.134672
0.134702
0.131404
0.0854411
0.0796209
0.0924788
0.273779
0.915016
1.34757
1.78294
2.19263
2.57254
1.74004
1.1708
0.756428
0.673511
0.764572
0.8507
0.803152
0.696302
0.611456
0.553627
0.512784
0.505953
0.542251
0.606258
0.668943
0.775802
0.134765
0.134705
0.134674
0.134705
0.129365
0.076462
0.0613404
0.0718702
0.175406
0.533606
1.15818
1.42296
1.84448
2.30097
1.76425
1.23962
0.789945
0.725123
0.835983
0.972604
0.973815
0.900229
0.811564
0.728274
0.689829
0.710738
0.68572
0.695958
0.763892
0.855416
0.134766
0.134705
0.134677
0.134743
0.116383
0.0755456
0.0510676
0.0515589
0.116027
0.311319
0.763424
0.943623
1.41768
1.94422
1.7751
1.34226
0.878189
0.823485
0.95127
1.15938
1.25905
1.1038
0.911546
0.805558
0.794265
0.830612
0.870715
0.884238
0.905201
0.971869
0.134767
0.134709
0.13469
0.134798
0.10919
0.0731844
0.0463831
0.0415849
0.0795736
0.202434
0.436217
0.599471
1.09022
1.81768
1.95052
1.521
1.03676
0.99352
1.15522
1.41422
1.32118
1.10906
0.928147
0.876196
0.905101
0.962783
1.01806
1.05621
1.08772
1.15153
0.134768
0.134713
0.134703
0.134813
0.109901
0.0684537
0.0408676
0.0348429
0.0549789
0.145137
0.286423
0.449803
0.927625
1.69299
2.35413
1.84922
1.27836
1.24691
1.44223
1.45554
1.31228
1.07428
0.948032
0.954138
1.02605
1.11628
1.19635
1.2599
1.32517
1.41492
0.134769
0.134717
0.134707
0.134813
0.109372
0.0633934
0.0366899
0.0277094
0.0392671
0.1297
0.229214
0.406142
0.906869
1.70342
2.35301
2.35459
1.64014
1.53022
1.55238
1.48283
1.27183
1.03847
0.980962
1.055
1.18846
1.32906
1.45048
1.55048
1.65296
1.77195
0.13477
0.134717
0.134706
0.134809
0.106855
0.0616779
0.0357379
0.0218015
0.0282826
0.130297
0.205856
0.406369
0.974318
1.86094
2.42544
2.39821
2.02256
1.7608
1.65254
1.4994
1.2094
1.01808
1.05071
1.21823
1.43366
1.63666
1.80448
1.9365
2.05634
2.1672
0.13477
0.134716
0.134702
0.134807
0.106685
0.0629465
0.0378756
0.0182298
0.0202664
0.129192
0.156146
0.27878
0.795769
1.50541
2.53651
2.44756
2.12127
1.88512
1.73433
1.47939
1.13014
1.03907
1.19134
1.46277
1.75466
2.00875
2.20209
2.33825
2.43612
2.41988
0.134769
0.134713
0.134692
0.134793
0.108919
0.0666296
0.0406915
0.0222589
0.0162566
0.105393
0.11415
0.23503
0.846446
1.69737
2.55668
2.49054
2.2103
1.98725
1.67616
1.38162
1.08056
1.13115
1.39418
1.73964
2.07692
2.35017
2.54118
2.65117
2.28478
2.00845
0.134768
0.13471
0.13468
0.134753
0.111708
0.0729798
0.043796
0.0292689
0.0211002
0.0641679
0.120574
0.220641
0.782623
1.39272
1.97159
2.50328
2.27513
2.03231
1.42899
1.24938
1.1027
1.27221
1.59736
1.98073
2.33495
2.60636
2.67484
2.21914
1.91814
1.79149
0.134768
0.134708
0.134672
0.134703
0.11811
0.0770485
0.0512315
0.0360964
0.0321314
0.0715823
0.172297
0.374656
0.497473
1.34347
1.68866
2.04854
2.26635
1.81986
1.41993
1.17634
1.18017
1.41259
1.77283
2.18298
2.54252
2.61989
2.22219
1.90463
1.75745
1.70941
0.134767
0.134705
0.134663
0.134667
0.131312
0.0774599
0.0566386
0.0506993
0.0509643
0.0998892
0.426716
0.681758
0.603907
1.07416
1.99642
2.10704
2.12209
1.58476
1.3603
1.18933
1.28744
1.57013
1.98436
2.40977
2.63288
2.3321
2.0184
1.79881
1.72868
1.70651
0.134766
0.134701
0.134652
0.134642
0.134715
0.0835351
0.0521756
0.0580014
0.095495
0.132914
0.371864
0.806169
0.685868
0.795698
1.63933
1.97222
1.79343
1.55753
1.30375
1.27845
1.45882
1.82274
2.27082
2.68192
2.5695
2.29373
2.03218
1.85941
1.82688
1.83881
0.134765
0.134698
0.134642
0.134616
0.13463
0.110821
0.0509317
0.0450867
0.124135
0.178206
0.359127
0.959085
1.02678
0.815655
1.49595
1.67518
1.58911
1.44719
1.37833
1.47919
1.76753
2.18381
2.62295
2.98947
2.8168
2.55423
2.31736
2.18026
2.19465
2.27906
0.134764
0.134695
0.134635
0.1346
0.134574
0.134652
0.0695979
0.0445004
0.0840121
0.171446
0.434741
1.01981
1.2442
1.12139
1.50532
1.53383
1.38579
1.37272
1.59546
1.82413
2.18325
2.59966
2.99344
3.30717
3.49033
3.28866
3.10154
3.03828
3.14367
3.32347
0.134763
0.134693
0.134629
0.134589
0.134548
0.134569
0.123112
0.0714178
0.0869914
0.16436
0.543083
1.01137
1.33554
1.45085
1.46271
1.47608
1.38
1.53602
1.90092
2.22149
2.59773
2.98664
3.33622
3.61113
3.79966
3.90971
3.95659
3.9602
3.93388
3.88628
0.134762
0.13469
0.134623
0.134576
0.134531
0.134514
0.135074
0.114665
0.153556
0.186307
0.603546
0.952493
1.27421
1.36479
1.33566
1.32451
1.34206
1.55465
2.0946
2.48775
2.90167
3.2981
3.63674
3.89594
4.07216
4.17383
4.21434
4.20624
4.16098
4.08941
0.134761
0.134687
0.134618
0.134567
0.134517
0.134453
0.134837
0.124222
0.163167
0.178667
0.477582
0.821268
0.964267
1.18425
1.13306
1.02483
1.09652
1.23017
1.79825
2.55634
3.08385
3.53391
3.88848
4.14718
4.31838
4.41422
4.44731
4.42768
4.3645
4.26931
0.134755
0.134677
0.134604
0.134555
0.134497
0.134397
0.134503
0.111166
0.151876
0.14631
0.239176
0.326489
0.843445
0.784853
0.708417
0.662744
0.694417
0.918721
1.37758
2.32682
3.17124
3.6758
4.04804
4.30238
4.41729
4.5186
4.60418
4.58103
4.50727
4.39752
0.134764
0.134704
0.134669
0.134746
0.121774
0.0978036
0.072618
0.113076
0.384759
0.96107
1.11143
1.13793
2.07277
2.69531
1.38544
1.04653
0.730052
0.750848
0.780353
0.742025
0.755799
0.701798
0.605823
0.566878
0.572233
0.59542
0.625675
0.676781
0.781508
0.934637
0.134765
0.134707
0.134673
0.134729
0.121835
0.0825811
0.0800668
0.139599
0.496917
1.11674
1.62203
1.99998
2.56364
2.8786
1.59902
1.08938
0.731137
0.797275
0.875775
0.812815
0.802024
0.742301
0.67817
0.614854
0.574551
0.595663
0.667665
0.718984
0.789465
0.933248
0.134766
0.134708
0.134677
0.134721
0.121936
0.0732548
0.0679907
0.115426
0.354453
0.953091
1.52466
1.90442
2.35904
2.49775
1.72403
1.14076
0.765177
0.88299
0.968239
0.898994
0.885854
0.832803
0.785645
0.741436
0.71915
0.71824
0.769289
0.816316
0.857822
0.982485
0.134767
0.134709
0.134684
0.134749
0.118136
0.0745294
0.0569142
0.0845356
0.251181
0.634044
1.22507
1.51214
2.05984
2.23251
1.80642
1.22651
0.84988
0.982153
1.0407
1.04286
1.08879
1.07299
0.942934
0.864706
0.863895
0.900866
0.935587
0.955198
0.988549
1.08307
0.134768
0.134712
0.134698
0.134797
0.1167
0.0789699
0.0526526
0.0653064
0.186069
0.462035
0.837351
1.1182
1.77516
2.2026
1.96491
1.38598
1.00559
1.10396
1.17723
1.3083
1.2839
1.12761
0.974168
0.932675
0.968009
1.0306
1.08674
1.12651
1.17458
1.26354
0.134769
0.134716
0.134709
0.134813
0.119406
0.0770955
0.0473578
0.0539045
0.12943
0.321102
0.550411
0.850845
1.57676
2.32748
2.32926
1.67705
1.26559
1.3385
1.34011
1.39937
1.31813
1.115
1.00126
1.01518
1.09717
1.19411
1.277
1.34541
1.4274
1.54258
0.13477
0.134719
0.134711
0.134808
0.119609
0.0717576
0.0412712
0.0460957
0.0843878
0.232342
0.390007
0.71525
1.48381
2.34111
2.80506
2.25578
1.69276
1.51867
1.45165
1.46472
1.30841
1.09479
1.04222
1.12616
1.26862
1.41233
1.53581
1.64361
1.76412
1.90015
0.134771
0.134719
0.134708
0.134801
0.120783
0.0704056
0.037518
0.0394067
0.0532847
0.178336
0.30963
0.630304
1.20681
2.10263
2.83015
2.57081
2.03288
1.68876
1.58935
1.50279
1.26992
1.08482
1.1201
1.29016
1.5014
1.69956
1.86852
2.01082
2.14428
2.25827
0.13477
0.134718
0.134704
0.134793
0.123845
0.072189
0.0369856
0.0347915
0.0352059
0.165333
0.274559
0.396514
0.985772
1.7845
2.84599
2.63186
2.17808
1.8716
1.48832
1.39681
1.21366
1.1149
1.25488
1.50207
1.7696
2.01537
2.21529
2.3643
2.20981
1.97024
0.13477
0.134715
0.134695
0.134772
0.125167
0.074471
0.0402806
0.0335563
0.0352304
0.11212
0.283653
0.370127
0.905194
1.57108
2.31251
2.68528
2.3121
2.03214
1.41504
1.35849
1.18285
1.20186
1.41682
1.70579
2.01209
2.28816
2.49595
2.25961
1.86241
1.81849
0.134769
0.134712
0.134682
0.134734
0.125988
0.0768678
0.0449161
0.0347427
0.047397
0.115696
0.383179
0.507315