/*--------------------------------*- C++ -*----------------------------------*\
| =========                 |                                                 |
| \\      /  F ield         | OpenFOAM: The Open Source CFD Toolbox           |
|  \\    /   O peration     | Version:  2512                                  |
|   \\  /    A nd           | Website:  www.openfoam.com                      |
|    \\/     M anipulation  |                                                 |
\*---------------------------------------------------------------------------*/
FoamFile
{
    version     2.0;
    format      ascii;
    arch        "LSB;label=32;scalar=64";
    class       volScalarField;
    location    "60";
    object      nut;
}
// * * * * * * * * * * * * * * * * * * * * * * * * * * * * * * * * * * * * * //

dimensions      [0 2 -1 0 0 0 0];

internalField   nonuniform List<scalar> 
90398
(
0.0160993
0.0483094
0.136126
0.290353
0.409859
0.457848
0.421146
0.406743
0.38891
0.354388
0.473673
0.642325
0.765246
0.821031
0.834846
0.820376
0.789072
0.748712
0.703353
0.654186
0.557484
0.450809
0.350925
0.25925
0.1789
0.115613
0.075452
0.057088
0.0529719
0.0525031
0.0169585
0.0594539
0.162242
0.316228
0.420373
0.460231
0.434104
0.40916
0.385227
0.350893
0.440833
0.613017
0.738734
0.806204
0.829198
0.820909
0.792823
0.753459
0.708151
0.658953
0.604506
0.497808
0.401639
0.316587
0.243088
0.182192
0.13567
0.107046
0.0918111
0.0872744
0.0191303
0.0757645
0.206287
0.355975
0.440538
0.46359
0.421223
0.393081
0.375894
0.34305
0.403224
0.561928
0.701104
0.782946
0.817587
0.818726
0.796518
0.759986
0.715797
0.667438
0.616646
0.545808
0.459697
0.386487
0.324894
0.272933
0.228667
0.191982
0.165615
0.147434
0.0217536
0.0946416
0.247523
0.385228
0.448013
0.454066
0.385786
0.364182
0.357975
0.328933
0.367567
0.508478
0.651722
0.751087
0.797547
0.808702
0.793454
0.76131
0.719596
0.672893
0.624045
0.572659
0.501226
0.442814
0.396008
0.358211
0.327307
0.298284
0.270436
0.244692
0.0242856
0.104727
0.278196
0.400443
0.439356
0.417667
0.34634
0.336353
0.331991
0.308481
0.33376
0.465923
0.583909
0.707229
0.766982
0.787769
0.779778
0.752859
0.714839
0.670716
0.624615
0.570207
0.516124
0.47453
0.444457
0.423632
0.403194
0.37953
0.35907
0.336271
0.0269167
0.117057
0.302103
0.410548
0.425886
0.367178
0.314732
0.302411
0.296757
0.284111
0.306319
0.422505
0.510618
0.617896
0.714968
0.752457
0.752521
0.731735
0.698272
0.643549
0.589441
0.542263
0.505325
0.479741
0.465436
0.444649
0.421445
0.401634
0.38575
0.369996
0.0294962
0.133839
0.325734
0.424662
0.421935
0.351467
0.298804
0.295704
0.262704
0.260027
0.285121
0.37819
0.452976
0.524233
0.597263
0.641462
0.6537
0.635394
0.603249
0.565274
0.528436
0.49724
0.47477
0.462164
0.459955
0.44882
0.42876
0.411643
0.399028
0.385128
0.0321577
0.149465
0.349701
0.451002
0.443013
0.39631
0.339915
0.284235
0.275034
0.111435
0.119968
0.147123
0.199672
0.20287
0.492709
0.528427
0.533729
0.520849
0.504688
0.482632
0.46046
0.442368
0.430911
0.42732
0.432473
0.44366
0.426062
0.411006
0.400928
0.389479
0.0346038
0.161168
0.36909
0.48082
0.489711
0.440604
0.384119
0.228925
0.0936649
0.11254
0.120098
0.146275
0.094584
0.115771
0.414081
0.435062
0.438634
0.429117
0.41529
0.399729
0.388885
0.381279
0.377717
0.379561
0.387866
0.403461
0.413926
0.400671
0.39286
0.384217
0.0362405
0.165497
0.377149
0.50169
0.535558
0.491004
0.429937
0.287062
0.112695
0.0542731
0.058052
0.0709004
0.0359055
0.0504098
0.354707
0.360342
0.36192
0.354549
0.344296
0.333541
0.325126
0.319187
0.317059
0.321312
0.33015
0.344469
0.367722
0.380982
0.374441
0.37028
0.0345712
0.159008
0.372312
0.508237
0.561485
0.547547
0.477215
0.402729
0.132716
0.0733619
0.0828731
0.0517461
0.0489879
0.283402
0.297925
0.299952
0.293805
0.285806
0.27786
0.271534
0.26725
0.265716
0.267449
0.27202
0.280344
0.296516
0.320991
0.352592
0.362346
0.0309672
0.149972
0.353444
0.498068
0.567893
0.577853
0.532673
0.455688
0.18202
0.127673
0.0481709
0.0493244
0.0633795
0.0750081
0.170103
0.23276
0.247402
0.243657
0.237049
0.230537
0.225416
0.221824
0.219881
0.219335
0.219474
0.219315
0.218491
0.212701
0.195221
0.158574
0.0296693
0.135038
0.319835
0.469713
0.55222
0.582724
0.567793
0.510485
0.449349
0.17912
0.084428
0.125405
0.111861
0.145302
0.224926
0.157299
0.195801
0.202787
0.196163
0.189231
0.183487
0.178878
0.17497
0.170906
0.165167
0.15616
0.145489
0.125768
0.0997674
0.0702182
0.0276329
0.117927
0.275456
0.424971
0.516369
0.560743
0.566434
0.536311
0.481158
0.428863
0.355469
0.238453
0.318054
0.305905
0.250895
0.186985
0.155431
0.163809
0.154523
0.146396
0.140296
0.135414
0.130564
0.12432
0.115507
0.105349
0.0904573
0.0724851
0.0554073
0.041329
0.025187
0.100854
0.233158
0.366843
0.462569
0.51502
0.532546
0.519389
0.47775
0.434366
0.387225
0.325763
0.326845
0.295662
0.19315
0.108991
0.108371
0.112443
0.107956
0.10388
0.100407
0.0965891
0.0914269
0.0842946
0.0756857
0.065144
0.0535298
0.0429218
0.0350486
0.0300364
0.0229312
0.0848646
0.190582
0.306382
0.392683
0.447387
0.470253
0.468094
0.445372
0.413609
0.379825
0.360608
0.346776
0.297767
0.166784
0.0711092
0.0690845
0.073361
0.0726592
0.0706945
0.0679609
0.0640779
0.0588344
0.052441
0.0455174
0.0386802
0.0326568
0.0281117
0.0253883
0.0240451
0.0205055
0.0700738
0.150474
0.245679
0.326154
0.379918
0.406669
0.410736
0.396369
0.373823
0.352852
0.347605
0.326357
0.283023
0.244039
0.0757313
0.0452762
0.0473943
0.0485278
0.0470945
0.044824
0.0418439
0.0382869
0.0344255
0.0306616
0.027367
0.0248211
0.0231715
0.0224755
0.0223704
0.0183062
0.0591191
0.117993
0.187972
0.255849
0.306837
0.335401
0.342846
0.333089
0.317434
0.312191
0.312501
0.289503
0.254191
0.218598
0.117236
0.0647896
0.0359602
0.03561
0.0351093
0.0341221
0.0331072
0.0322785
0.0318789
0.0321663
0.0333226
0.0352121
0.0373806
0.0396964
0.0413325
0.0162378
0.0497701
0.0963372
0.144642
0.190738
0.22921
0.252129
0.253511
0.20492
0.249556
0.272195
0.29007
0.272606
0.151737
0.0636309
0.0423597
0.0421101
0.0448358
0.0471283
0.0489703
0.0507451
0.0528399
0.0554305
0.0586254
0.062434
0.066389
0.0702088
0.0738492
0.0780077
0.0823903
0.0152019
0.042803
0.0830159
0.121825
0.150099
0.167113
0.169811
0.0873583
0.0875523
0.128403
0.219553
0.197559
0.141871
0.0571521
0.0553931
0.0574613
0.0594133
0.0622734
0.0655926
0.0691783
0.072604
0.0760929
0.0797189
0.0834801
0.0874094
0.0915503
0.0957293
0.0997752
0.10501
0.112172
0.197788
0.85527
1.41633
1.55055
2.0504
2.96417
2.68312
2.1343
1.64467
1.07339
2.01525
3.32499
4.49979
4.90998
5.04637
4.98528
4.81404
4.58888
4.34329
4.09859
3.85569
3.60807
3.34028
3.02463
2.6196
2.08052
1.43456
0.866714
0.589337
0.512851
0.225855
0.954257
1.62287
1.76869
2.28388
2.908
2.62112
2.06892
1.59337
1.08425
1.78263
2.89714
4.27405
4.75933
4.95853
4.93733
4.78912
4.5721
4.32197
4.06739
3.81567
3.56162
3.29464
2.99959
2.65886
2.2615
1.8156
1.38541
1.04558
0.863038
0.261806
1.08499
1.62238
1.9153
2.56439
2.78615
2.46867
1.87696
1.46031
1.07755
1.53275
2.43753
3.93476
4.52606
4.81505
4.86807
4.76521
4.57213
4.33103
4.07365
3.81881
3.56515
3.30888
3.04181
2.75745
2.45201
2.13553
1.83107
1.56403
1.35704
0.29921
1.27268
1.64439
2.0752
2.81243
2.59594
2.1795
1.5889
1.26782
1.03658
1.34357
2.02235
3.38038
4.22817
4.60814
4.7432
4.69443
4.53675
4.31575
4.0676
3.81739
3.56938
3.3273
3.0855
2.84378
2.59726
2.35263
2.12315
1.91474
1.72471
0.323533
1.45647
1.69951
2.25346
2.64995
2.34024
1.73577
1.26558
1.05636
0.968337
1.20493
1.66837
2.73645
3.86244
4.33722
4.55016
4.55775
4.44118
4.24911
4.02149
3.78352
3.54818
3.32086
3.10291
2.89345
2.68837
2.48935
2.30434
2.14168
1.98444
0.347879
1.45467
1.81834
2.49723
2.50823
1.94768
1.34671
0.990245
0.881547
0.903662
1.07222
1.37925
2.14677
3.19765
3.9825
4.27746
4.35079
4.28055
4.12489
3.92356
3.70569
3.48775
3.27917
3.08321
2.89975
2.72502
2.56119
2.4078
2.27498
2.14526
0.371023
1.50253
2.01404
2.76253
2.47561
1.71266
1.15818
0.827318
0.756372
0.935045
0.964077
1.15719
1.68491
2.49836
3.31318
3.89957
4.0497
4.04425
3.93723
3.7703
3.5791
3.38335
3.19697
3.02273
2.86146
2.70939
2.57081
2.43962
2.32769
2.21615
0.397134
1.6056
2.27382
2.93152
2.63867
1.82291
1.13642
0.727082
0.625504
0.733194
0.637192
0.63811
1.07212
1.59627
2.55004
3.16391
3.53924
3.70958
3.66527
3.55035
3.39677
3.23219
3.07102
2.91919
2.77826
2.64559
2.52542
2.41159
2.31613
2.2203
0.424076
1.75401
2.55338
3.1582
2.97044
2.21611
1.13499
0.695765
0.43879
0.379585
0.337202
0.362733
0.670384
0.977473
1.90334
2.41796
2.84523
3.12118
3.23226
3.24226
3.15525
3.02939
2.89975
2.77376
2.65458
2.54019
2.43302
2.33478
2.25525
2.17388
0.446296
1.84432
2.73209
3.34759
3.31871
2.81237
1.80946
0.74126
0.559266
0.342635
0.184412
0.067075
0.185619
0.189305
1.44753
1.81827
2.19275
2.49216
2.68515
2.78065
2.78646
2.74352
2.67849
2.58672
2.49106
2.3966
2.3026
2.21457
2.15028
2.08864
0.41889
1.8095
2.86041
3.41869
3.51998
3.18909
2.33386
1.33768
0.587641
0.533955
0.0963227
1.14174
1.38594
1.67504
1.94284
2.1517
2.28632
2.34682
2.35744
2.33807
2.29806
2.25479
2.20758
2.13979
2.05877
1.99288
1.95953
0.366557
1.67794
2.76147
3.36089
3.57529
3.43562
2.92347
1.98117
1.03395
0.426221
0.758846
0.11839
0.0650214
0.215657
0.858918
1.08592
1.30395
1.51547
1.70188
1.8398
1.92379
1.96851
1.9894
2.00127
2.01117
2.00495
1.94352
1.78309
1.45711
1.01646
0.329694
1.48751
2.57467
3.18503
3.47356
3.48646
3.22593
2.68635
1.9365
0.965214
0.785996
0.730981
0.245041
0.562977
0.627377
0.63626
0.923827
1.21369
1.36224
1.48887
1.58476
1.66199
1.7269
1.78827
1.832
1.79546
1.55954
1.31594
1.06985
0.849795
0.312544
1.33452
2.33296
2.92247
3.23926
3.33959
3.23322
2.9346
2.39081
1.77643
1.16202
1.02623
0.781146
0.717172
0.5609
0.533702
0.610367
0.892458
1.13962
1.25777
1.36934
1.47561
1.57327
1.65046
1.64833
1.47525
1.31957
1.18017
0.985245
0.762891
0.310177
1.22804
1.97419
2.5824
2.90308
3.03837
3.01453
2.842
2.47835
1.95133
1.72379
1.38737
1.09873
0.56379
0.388752
0.44835
0.537388
0.7485
1.01927
1.13736
1.25872
1.37174
1.45876
1.48838
1.40449
1.27321
1.09408
0.905349
0.729031
0.583544
0.311995
1.12673
1.66115
2.11066
2.46001
2.59994
2.62193
2.4738
2.15287
1.82724
1.7364
1.52331
0.966959
0.374368
0.269603
0.352234
0.534001
0.760797
0.941897
1.04748
1.14436
1.21434
1.23595
1.19093
1.07573
0.917679
0.751515
0.602446
0.487692
0.412644
0.302924
1.02228
1.46888
1.67838
1.83211
1.87371
1.84585
1.75018
1.58225
1.46611
1.52063
1.39481
0.840073
0.345876
0.201947
0.201981
0.318306
0.531495
0.769128
0.850096
0.884216
0.881862
0.838368
0.758552
0.659918
0.564399
0.487455
0.433663
0.399558
0.37638
0.261442
0.909876
1.38657
1.43458
1.39479
1.30461
1.23784
1.18532
1.11653
1.11375
1.26314
1.21761
0.977759
0.372993
0.208605
0.161156
0.152129
0.216602
0.308592
0.388879
0.447646
0.485714
0.512337
0.536546
0.567092
0.610258
0.63499
0.650979
0.669365
0.681583
0.187608
0.755352
1.35601
1.38334
1.20123
0.985471
0.830071
0.605052
0.640687
0.901177
1.1405
0.85446
0.431466
0.178552
0.155276
0.216494
0.333361
0.5648
0.721601
0.802328
0.870561
0.928703
0.979045
1.02082
1.05016
1.0748
1.09231
1.09941
1.09511
1.07722
0.138903
0.660943
1.28645
1.42503
1.18355
0.871928
0.523078
0.407824
0.658258
0.804525
0.799352
0.37992
0.175324
0.207034
0.348272
0.591767
0.800071
0.947184
1.07602
1.14075
1.18742
1.22515
1.25623
1.2813
1.30001
1.31145
1.31418
1.3063
1.28823
1.25976
0.275872
1.12397
1.47424
2.13143
3.95279
4.35944
4.12749
3.51985
2.04959
1.67697
3.65581
6.06911
7.20682
7.6909
7.86554
7.42077
6.93664
6.47628
6.00585
5.56276
5.18968
4.9046
4.67825
4.43945
4.11086
3.62048
2.89951
2.09049
1.35782
0.98777
0.333499
1.3635
1.73822
2.4653
4.1104
4.25091
3.98225
3.38899
2.3013
1.56028
3.18386
5.39812
6.83935
7.40658
7.65357
7.17873
6.63841
6.18755
5.74862
5.32245
4.94152
4.63191
4.39355
4.19289
3.97737
3.70125
3.15055
2.55621
2.01151
1.60966
0.387886
1.47742
1.89992
2.83477
4.18267
4.02744
3.70069
3.06039
2.37184
1.46976
2.66416
4.54099
6.29556
6.99684
7.3586
7.11686
6.5358
6.08665
5.67958
5.28896
4.92928
4.63039
4.40515
4.24772
4.12382
3.89992
3.47412
3.04474
2.64678
2.31648
0.448833
1.45848
2.1258
3.26875
3.96555
3.72205
3.2801
2.57005
2.06799
1.37486
2.24492
3.70248
5.62046
6.51806
6.99561
7.08107
6.49362
6.04364
5.65436
5.29385
4.96689
4.68249
4.47223
4.33038
4.23952
4.06526
3.72703
3.39844
3.09395
2.82819
0.512076
1.52352
2.40197
3.74037
3.74923
3.39189
2.69335
1.98771
1.67782
1.28772
1.92644
2.95769
4.72883
5.97792
6.5791
6.87905
6.56203
6.11012
5.71634
5.36346
5.04935
4.7813
4.56823
4.42515
4.33147
4.17216
3.89093
3.62194
3.37424
3.16501
0.566534
1.65455
2.71237
3.86004
3.631
2.98459
2.11464
1.54084
1.24246
1.29306
1.68172
2.36158
3.7904
5.28429
6.09794
6.49586
6.61353
6.3268
5.90726
5.5299
5.20196
4.92892
4.70932
4.54036
4.41926
4.21473
3.97137
3.73764
3.52357
3.34839
0.61214
1.81691
3.06333
4.01152
3.7122
2.79646
1.84663
1.31697
1.12571
1.3166
1.51276
1.95765
3.01387
4.42063
5.4543
6.01774
6.23165
6.22062
6.06375
5.79683
5.42323
5.11228
4.86273
4.6605
4.42444
4.19361
3.97585
3.76492
3.57325
3.41131
0.654756
2.00106
3.42191
4.32109
4.03176
3.00221
1.62439
1.17779
1.18265
1.06527
1.02331
1.4943
2.25124
3.36789
4.53114
5.29543
5.70577
5.81061
5.72912
5.54147
5.29856
5.03925
4.78429
4.54537
4.32389
4.11537
3.918
3.72555
3.55064
3.39707
0.6898
2.17864
3.7329
4.69784
4.51116
3.50568
1.5239
1.08164
1.00328
0.680679
0.532939
0.820589
1.36688
2.54356
3.50231
4.33635
4.92607
5.20805
5.26653
5.18062
5.00143
4.78949
4.5747
4.36867
4.17464
3.98831
3.80892
3.63415
3.47463
3.3295
0.709008
2.29535
3.88965
4.99256
5.02515
4.34519
2.19734
1.28721
0.951705
0.682116
0.333196
0.0689772
0.377774
0.311991
2.62432
3.3569
4.01942
4.44453
4.65375
4.68615
4.60519
4.46929
4.30905
4.14058
3.97677
3.81581
3.65221
3.49098
3.34481
3.21186
0.714973
2.36232
3.94983
5.08327
5.2824
4.84387
3.67673
2.17904
1.16358
0.889736
1.52844
0.374591
1.99383
2.52406
3.13533
3.6259
3.94146
4.08507
4.10202
4.04479
3.94828
3.83312
3.71331
3.58576
3.37537
3.12442
2.99317
2.99802
0.712553
2.38214
3.91314
5.00371
5.32661
5.15584
4.49041
3.38602
2.24886
1.28261
1.55094
0.217756
0.386689
0.342183
1.59438
1.90842
2.39734
2.86209
3.22292
3.43889
3.53787
3.55033
3.52232
3.46707
3.39149
3.19266
2.83744
2.46202
2.09484
1.60451
0.70036
2.31831
3.74918
4.79868
5.18446
5.20869
4.87889
4.24957
3.55404
2.71862
1.41408
1.63383
1.07409
1.30519
1.32412
1.50713
1.85899
2.24994
2.59404
2.84042
2.99555
3.07681
3.11185
3.10278
2.8676
2.52302
2.12571
1.72042
1.32497
0.926948
0.677497
2.17593
3.4497
4.52172
4.92199
5.05576
4.92503
4.56855
4.03511
3.28401
2.04787
1.88113
1.49005
0.984207
1.05093
1.26916
1.51903
1.83403
2.13921
2.39132
2.57853
2.70192
2.67941
2.47438
2.20196
1.89275
1.58471
1.29739
1.06213
0.893608
0.643997
2.01513
3.09306
4.19836
4.58259
4.75658
4.73104
4.52196
4.11314
3.48317
2.78395
2.03654
1.00003
0.683391
0.81863
1.13838
1.35341
1.6187
1.88557
2.11948
2.29392
2.24997
2.11753
1.94042
1.73578
1.53814
1.35563
1.20113
1.10879
1.02789
0.594519
1.85441
2.69831
3.65571
4.1445
4.30984
4.29933
4.10837
3.71001
3.24538
2.89382
1.58204
0.588896
0.520795
0.773845
1.06925
1.28935
1.51814
1.73606
1.91414
1.90831
1.83817
1.73789
1.6199
1.49464
1.37853
1.27801
1.1983
1.07126
0.954175
0.528044
1.67482
2.35109
2.94385
3.45971
3.45274
3.34004
3.1303
2.82493
2.61509
2.47059
1.14514
0.450519
0.362004
0.510993
0.879063
1.12733
1.33703
1.50558
1.62485
1.68639
1.68922
1.62762
1.54706
1.4334
1.30762
1.19035
1.0945
1.01839
0.951257
0.456332
1.40481
2.15818
2.36462
2.7849
2.53015
2.26934
2.02336
1.89556
1.93346
1.98718
1.19772
0.468368
0.293025
0.298061
0.410489
0.775296
1.0184
1.18702
1.29661
1.3586
1.38441
1.38531
1.37248
1.3558
1.34146
1.33263
1.32426
1.31078
1.27393
0.395497
1.18543
2.13429
2.00583
2.16913
1.87799
1.14814
0.853857
1.0825
1.41535
1.11677
0.603982
0.307072
0.292906
0.529291
0.851894
1.06021
1.24505
1.38916
1.49218
1.56429
1.61552
1.65242
1.67826
1.69835
1.71136
1.71339
1.70028
1.66796
1.61294
0.322032
1.02655
1.91726
2.24844
2.2336
1.25897
0.582607
0.666569
0.971383
0.896732
0.541281
0.322693
0.35729
0.724746
0.974734
1.23003
1.44844
1.61114
1.71999
1.78792
1.84118
1.8838
1.91789
1.94414
1.96227
1.97096
1.96618
1.94522
1.90424
1.84025
0.339056
1.14815
1.75405
3.28777
4.91897
4.97277
4.81604
4.07266
2.07537
2.87582
5.27105
7.58647
8.46616
8.90162
9.09284
9.06584
8.51256
7.92678
7.31808
6.66479
6.042
5.51211
5.10867
4.81776
4.55334
4.2182
3.73443
3.032
2.24208
1.63056
0.415941
1.41109
2.09558
3.70258
4.8343
4.79582
4.58652
4.08585
2.1967
2.5071
4.60512
6.99204
8.0163
8.51216
8.77995
8.76305
8.02362
7.43936
6.89994
6.34956
5.80297
5.30079
4.87535
4.52567
4.24669
3.97216
3.64468
3.23561
2.69602
2.23378
0.505217
1.51081
2.42428
4.2751
4.63815
4.4761
4.18509
3.67208
2.23926
2.22823
3.79403
6.01781
7.35292
7.96305
8.35143
8.46395
7.76145
7.20662
6.72775
6.26158
5.78908
5.33358
4.9271
4.58901
4.31709
4.10762
3.9033
3.66678
3.30339
2.92999
0.605046
1.65698
2.88565
4.38622
4.37443
4.0859
3.64993
3.06304
2.10501
2.04047
3.12545
4.97072
6.59308
7.36163
7.86597
8.09441
7.52509
7.03442
6.60907
6.20663
5.80165
5.40067
5.03152
4.72112
4.4791
4.30726
4.15904
4.0328
3.72708
3.4649
0.694604
1.86549
3.41376
4.3235
4.16438
3.73115
3.05364
2.41824
1.75138
1.95365
2.66215
4.01993
5.6665
6.73334
7.35755
7.7421
7.38457
6.97898
6.59038
6.22624
5.86853
5.51485
5.18347
4.89882
4.66628
4.49831
4.3743
4.29151
4.00919
3.79389
0.766106
2.09241
3.9104
4.38796
4.13499
3.44792
2.55049
1.9608
1.42148
1.96506
2.34982
3.24627
4.73618
6.05681
6.82785
7.30722
7.33064
7.05259
6.6998
6.34898
6.01127
5.68411
5.38281
5.11277
4.87391
4.68884
4.55154
4.40283
4.14569
3.95253
0.826666
2.32532
4.19061
4.64143
4.35013
3.40778
2.32499
1.56765
1.41782
1.84317
2.10899
2.85633
4.01887
5.3265
6.24476
6.82747
7.14496
7.22545
6.92922
6.57222
6.22098
5.89287
5.59509
5.31708
5.06638
4.85505
4.67651
4.41973
4.1841
3.99615
0.881592
2.54574
4.45658
5.05155
4.78985
3.68156
2.033
1.53089
1.58055
1.73828
1.63058
2.22014
3.12201
4.39792
5.48984
6.23763
6.68264
6.84199
6.80214
6.62325
6.35551
6.04522
5.72688
5.41936
5.13194
4.86517
4.61543
4.37457
4.15269
3.96726
0.924687
2.72351
4.70755
5.50494
5.37223
3.86833
2.33155
1.66442
1.64918
1.57526
1.3712
1.34822
1.7549
2.77831
4.53222
5.43659
6.0442
6.33673
6.38866
6.27852
6.06141
5.79648
5.51747
5.24433
4.98649
4.74359
4.51221
4.28735
4.07756
3.89514
0.948225
2.81824
4.84251
5.81349
5.9705
5.24055
3.35002
2.13092
1.98279
1.55489
1.47125
0.920307
0.611095
1.07852
3.58865
4.49707
5.24403
5.68014
5.8535
5.83277
5.69329
5.49196
5.26352
5.02926
4.80363
4.58569
4.37267
4.1624
3.96302
3.7873
0.949741
2.81029
4.83468
5.84904
6.20157
5.80909
4.55929
3.14969
2.75738
2.19981
2.74819
0.911844
0.995392
0.414616
2.62407
3.59002
4.35262
4.90384
5.19573
5.28417
5.23422
5.10862
4.94262
4.75998
4.57512
4.38781
4.0886
3.80787
3.60756
3.62161
0.934617
2.72974
4.71299
5.69014
6.16537
6.08694
5.54127
4.75127
3.97526
3.61242
2.75746
1.2802
1.11429
0.812558
2.09479
2.84003
3.50414
4.08419
4.4662
4.65326
4.6965
4.64951
4.55182
4.42742
4.2872
4.04448
3.65007
3.26732
2.99759
3.01681
0.909555
2.64955
4.4523
5.41867
5.94121
6.06648
5.82353
5.34644
4.75576
4.19031
3.12461
2.22667
1.83908
1.33064
2.03327
2.28051
2.80707
3.34113
3.75274
4.00611
4.12771
4.1549
4.12493
4.04966
3.84189
3.4256
2.96367
2.49998
2.07774
1.61537
0.875641
2.56052
3.93751
5.10908
5.63065
5.86941
5.81513
5.54421
5.13432
4.56532
3.11349
2.10812
2.05472
1.72423
1.73722
1.91576
2.32158
2.77802
3.16674
3.4432
3.61055
3.68683
3.68669
3.41973
3.03305
2.62125
2.2096
1.83374
1.49059
1.11266
0.829679
2.4547
3.47208
4.79784
5.2951
5.57332
5.62862
5.50056
5.16333
4.62293
3.03414
1.9502
1.31345
1.21945
1.52332
1.73481
2.06949
2.44166
2.77096
3.02025
3.17742
3.14254
2.89484
2.60647
2.30887
2.02501
1.76068
1.52766
1.32234
1.11105
0.762752
2.20338
3.08257
4.03833
4.91798
5.15664
5.20899
5.07359
4.7319
4.24369
2.5864
1.19723
0.813461
1.12987
1.38768
1.65967
1.95552
2.24437
2.49019
2.66863
2.64986
2.501
2.31878
2.12924
1.9522
1.79619
1.66493
1.56562
1.4991
1.41976
0.67897
1.91655
2.75281
3.25977
4.10041
4.40955
4.32576
4.10364
3.76859
3.43775
1.73694
0.750225
0.641104
0.943132
1.14382
1.46949
1.77125
2.01035
2.19012
2.30904
2.36533
2.29538
2.18346
2.08413
2.0043
1.95308
1.81746
1.69948
1.60672
1.53067
0.598818
1.65358
2.52817
2.52761
3.11127
3.42033
2.83361
2.71237
2.58389
2.41179
1.34932
0.641167
0.474623
0.573986
0.861625
1.13875
1.46746
1.73205
1.90094
2.00514
2.06056
2.07729
2.06539
2.03308
1.98804
1.93853
1.88979
1.8441
1.79587
1.73242
0.534448
1.44439
2.4143
2.30241
2.7229
2.09751
1.19836
1.14678
1.32657
1.21777
0.805237
0.504
0.493829
0.789867
1.1218
1.44723
1.69001
1.86292
1.97859
2.0549
2.10466
2.13512
2.15101
2.15526
2.15099
2.14428
2.13067
2.10507
2.06116
1.99156
0.485735
1.29324
2.07957
2.52452
2.39274
0.941013
0.673446
0.892653
0.91566
0.719525
0.544616
0.565827
0.842787
1.17467
1.5281
1.79595
1.97309
2.08845
2.16609
2.2199
2.263
2.29736
2.32394
2.34297
2.35436
2.35742
2.35002
2.32713
2.28208
2.20629
0.437614
1.22329
2.29428
4.84797
5.34351
5.38772
5.18676
3.19986
2.65256
4.58349
6.69304
8.43796
9.10947
9.49914
9.67634
9.66267
9.49768
9.22059
8.86796
8.31413
7.4675
6.64159
5.94139
5.42557
5.03406
4.69461
4.28026
3.69971
2.89309
2.17055
0.529192
1.51099
2.71975
4.84382
5.21069
5.13602
4.89339
3.76077
2.4286
4.1095
5.92719
7.83979
8.5455
8.99805
9.27437
9.36462
9.2809
8.87411
8.2683
7.6544
6.99498
6.31835
5.68383
5.14624
4.71586
4.33581
3.94487
3.50842
2.9368
2.6509
0.642841
1.72996
3.22279
4.79021
4.95898
4.71653
4.37569
3.94799
2.33517
3.56442
4.8932
6.82634
7.72354
8.30185
8.72817
8.97247
8.98465
8.43351
7.91541
7.40621
6.87041
6.30634
5.74238
5.22355
4.78285
4.42669
4.10275
3.78289
3.3108
3.1697
0.763544
2.0172
3.89004
4.71524
4.66458
4.25286
3.75876
3.31666
2.25142
3.12404
4.02207
5.73442
6.84158
7.57537
8.1368
8.51845
8.54179
8.12921
7.68611
7.25246
6.80938
6.33983
5.85262
5.37967
4.95715
4.61795
4.32952
4.10479
3.7296
3.62785
0.863243
2.32303
4.14319
4.69736
4.47459
3.88963
3.19206
2.71177
2.04335
2.81663
3.46173
4.81979
5.9962
6.88051
7.55181
8.03922
8.26957
7.99382
7.61681
7.22916
6.84331
6.44262
6.02405
5.60213
5.21176
4.87812
4.5967
4.39622
4.07319
4.00264
0.938974
2.60082
4.30709
4.83472
4.52192
3.69678
2.79989
2.19429
1.9756
2.64149
3.13135
4.18059
5.27364
6.20881
6.96813
7.54363
7.90839
7.95702
7.65979
7.31695
6.9683
6.61393
6.24871
5.87951
5.524
5.19905
4.91049
4.71265
4.39952
4.34838
1.00472
2.85449
4.54927
5.1731
4.85006
3.78571
2.66264
1.8099
2.30374
2.53089
3.02441
3.86107
4.68101
5.53209
6.34748
7.01362
7.47218
7.69816
7.71361
7.44089
7.12214
6.79546
6.45985
6.12513
5.79622
5.48451
5.18246
4.88271
4.61173
4.39651
1.07219
3.09359
4.85938
5.66485
5.4209
4.18727
2.76876
2.23588
2.3276
2.54643
2.52291
2.96702
3.59754
4.47813
5.66406
6.43599
7.00351
7.31178
7.38861
7.28296
7.05053
6.74242
6.39977
6.05099
5.71461
5.39671
5.09869
4.8158
4.5588
4.34719
1.13418
3.24297
5.13095
6.17219
6.14124
4.82657
3.2333
2.70926
2.81548
2.27862
2.18887
2.33225
2.40244
3.18303
4.70679
5.8177
6.49324
6.88311
7.01731
6.95644
6.75959
6.48489
6.17675
5.86079
5.55339
5.26091
4.98393
4.71704
4.47122
4.26284
1.18066
3.33968
5.24877
6.44692
6.7882
5.59413
3.97488
3.11842
2.87412
3.53869
3.76595
3.93724
2.80887
2.31995
3.76342
5.08821
5.89156
6.3716
6.56875
6.55814
6.41032
6.18372
5.92001
5.64128
5.36669
5.10217
4.84733
4.59768
4.36323
4.15904
1.20359
3.31147
5.20072
6.39742
6.94042
6.2218
4.81772
4.15232
4.30025
4.91996
4.61364
4.53575
3.8885
2.09268
2.83509
4.10791
5.18996
5.75782
6.0298
6.08391
5.99734
5.82704
5.61517
5.38288
5.14914
4.91722
4.68533
4.45188
4.22569
4.02715
1.19066
3.14178
5.03123
6.13659
6.77483
6.8701
6.57284
6.17481
5.74739
5.40897
4.63715
4.33675
3.81907
2.35641
2.19586
3.27196
4.4407
5.03991
5.38939
5.52686
5.51759
5.41568
5.26041
5.07907
4.8868
4.68565
4.47253
4.15955
3.88291
3.83244
1.15344
2.9619
4.79142
5.76712
6.42647
6.70774
6.63329
6.38035
6.03074
5.6242
5.08325
3.61889
3.02728
2.17895
1.91873
3.13177
3.74768
4.31742
4.71034
4.91868
4.98424
4.95212
4.85918
4.72906
4.57038
4.38164
3.95099
3.50865
3.17712
3.20377
1.10278
2.82079
4.38489
5.38236
6.01406
6.39659
6.47847
6.35539
6.09344
5.66239
4.1715
2.37445
2.14028
1.94437
2.21197
2.73334
3.21514
3.70708
4.0898
4.33075
4.44628
4.46579
4.41695
4.31403
4.06073
3.62544
3.15411
2.70369
2.32317
1.95802
1.04064
2.70915
3.74624
5.02918
5.61144
6.0182
6.20325
6.16641
5.93794
5.46275
2.99805
1.92149
1.85316
1.93826
2.2391
2.49944
2.88532
3.27872
3.59858
3.81705
3.93526
3.96563
3.87771
3.54321
3.1709
2.80208
2.44227
2.1255
1.8549
1.54445
0.964915
2.53276
3.28515
4.17813
5.16532
5.5317
5.66084
5.3204
5.24962
4.11942
2.10296
1.27056
1.43849
1.86137
2.06946
2.36853
2.68323
2.97291
3.20169
3.35734
3.43617
3.33631
3.08246
2.82117
2.57214
2.34354
2.14513
1.97471
1.81886
1.58901
0.873882
2.24636
2.98943
3.27031
3.99281
4.77286
4.62022
4.40883
4.25898
2.51805
1.3449
0.970873
1.30444
1.49199
1.81147
2.16142
2.45049
2.6716
2.82993
2.93052
2.97561
2.94562
2.77206
2.61892
2.491
2.39092
2.32149
2.27663
2.19267
2.04185
0.790241
1.98597
2.81173
2.70754
3.29257
3.53635
3.09848
3.01507
2.33256
1.54683
1.01962
0.802764
0.999807
1.16598
1.50872
1.89356
2.20304
2.40996
2.53812
2.61313
2.64869
2.65117
2.62719
2.58313
2.52491
2.45873
2.38979
2.31794
2.23667
2.14569
0.726241
1.78953
2.66082
2.96221
2.92593
1.59689
1.26266
1.25501
1.20399
1.03426
0.811697
0.79551
0.981872
1.3415
1.78016
2.09342
2.29246
2.4161
2.49209
2.53812
2.56571
2.579
2.58024
2.571
2.55234
2.52598
2.49751
2.46299
2.41362
2.33786
0.679614
1.66052
2.38692
2.63205
1.53852
0.892825
0.922852
1.00724
0.922987
0.841736
0.890348
0.995021
1.32398
1.7604
2.10367
2.32073
2.44832
2.52133
2.56743
2.59862
2.62531
2.64831
2.6665
2.67856
2.68354
2.68108
2.67079
2.64952
2.60877
2.53245
0.570789
1.44828
3.19273
5.2141
5.76446
5.74656
4.46662
3.17801
4.36536
5.71189
7.78217
9.00066
9.58925
9.94752
10.0978
10.08
9.92721
9.6663
9.33013
8.95018
8.54624
8.07596
7.11152
6.27355
5.64704
5.19693
4.75828
4.23175
3.461
2.93808
0.66218
1.75135
3.641
5.18942
5.59416
5.44302
5.09916
3.08058
3.49402
5.06978
6.98663
8.29478
8.89859
9.35353
9.63016
9.73352
9.68205
9.49611
9.20754
8.85131
8.17784
7.42288
6.65084
5.92955
5.31806
4.82137
4.37139
3.91616
3.25436
2.93417
0.776972
2.04741
4.09468
5.12357
5.29779
4.94749
4.53092
3.33523
3.02748
4.29482
5.85263
7.23807
7.96993
8.57482
9.01615
9.28103
9.37277
9.30111
9.02173
8.49067
7.93177
7.32306
6.67348
6.02459
5.42574
4.91457
4.46785
4.10034
3.59088
3.36315
0.891525
2.41657
4.21448
5.06237
4.98483
4.42786
3.87682
3.56863
2.8836
3.72901
4.91226
6.26758
7.13659
7.85432
8.40268
8.78821
9.00252
9.03813
8.83426
8.35206
7.86522
7.35184
6.80268
6.22655
5.65961
5.14554
4.69622
4.3589
3.93849
3.81251
0.977831
2.70771
4.3687
5.08587
4.8152
4.0541
3.33834
3.02493
2.883
3.43629
4.40243
5.64273
6.56473
7.30763
7.87402
8.31326
8.60797
8.72758
8.67479
8.44006
7.96926
7.50651
7.02924
6.52622
6.00712
5.50731
5.05125
4.70433
4.27313
4.18178
1.05076
2.8687
4.57775
5.28111
4.9246
3.92115
3.03641
2.67911
2.93748
3.34222
4.24556
5.14682
6.23862
6.90713
7.4182
7.8608
8.20768
8.3922
8.40641
8.26787
8.00984
7.67136
7.28737
6.85822
6.39939
5.94978
5.51336
5.1668
4.69351
4.58987
1.12846
3.05398
4.86287
5.68876
5.36801
4.14075
3.03172
2.70173
2.95441
3.14797
3.20418
4.09399
5.36527
6.56772
6.95333
7.37461
7.76651
8.02169
8.10353
8.01763
7.79743
7.48558
7.12214
6.73849
6.35601
5.98563
5.63415
5.30149
4.9999
4.75487
1.21859
3.25376
5.21383
6.25327
6.11068
4.78777
3.42817
3.13347
3.18283
2.75114
3.49838
4.50116
5.12664
5.88054
6.42757
6.8206
7.26062
7.60243
7.76055
7.72879
7.54525
7.26121
6.92125
6.55976
6.19825
5.8481
5.51561
5.19908
4.91189
4.67406
1.3112
3.44429
5.51228
6.79158
7.00006
5.26683
4.13888
3.53745
3.23661
3.84982
5.83439
6.69931
6.22586
5.20076
5.62959
6.28516
6.77746
7.18347
7.39751
7.40812
7.25753
7.00306
6.69137
6.35613
6.01934
5.69151
5.37752
5.07622
4.79995
4.56755
1.38959
3.58557
5.62253
6.99684
7.58577
5.88999
4.70157
4.39851
4.84284
6.60202
7.15422
7.01114
6.24558
5.19664
4.56068
5.30122
6.27042
6.75872
7.01088
7.04762
6.92651
6.70613
6.4303
6.12797
5.82131
5.51921
5.22682
4.94304
4.67934
4.45443
1.44268
3.65388
5.54197
6.84874
7.58965
7.53182
6.4371
6.6195
7.35259
7.30909
7.1917
6.78488
5.94966
5.04796
3.70361
4.04276
5.42475
6.28774
6.57996
6.64049
6.5486
6.36422
6.12758
5.86634
5.59789
5.32836
5.06135
4.79791
4.54886
4.33344
1.4616
3.55882
5.324
6.4807
7.25637
7.58791
7.59519
7.52668
7.40967
7.20539
6.8741
6.18713
5.3675
4.56327
2.95124
3.07465
4.58361
5.74846
6.07889
6.17464
6.124
5.9833
5.78935
5.56974
5.33909
5.10312
4.86551
4.62513
4.39014
4.18662
1.4412
3.32734
5.0349
6.01162
6.76612
7.2283
7.37324
7.34921
7.21913
6.92337
6.35617
5.15132
4.39771
3.27425
2.28997
2.6242
4.30472
5.13656
5.49365
5.64362
5.64992
5.56165
5.41547
5.23718
5.03993
4.82997
4.60957
4.37738
4.15185
3.98195
1.39265
3.10585
4.7252
5.54635
6.23233
6.75536
7.00879
7.05464
6.92239
6.5778
5.17865
2.96749
2.52973
2.26401
2.06273
2.8929
4.05458
4.55919
4.90398
5.08652
5.13868
5.09891
4.99916
4.85588
4.6818
4.48277
4.25858
3.87883
3.55456
3.61752
1.32243
2.93655
4.09778
5.14407
5.73243
6.2326
6.54192
6.63696
6.52041
5.45157
3.04575
2.04817
2.08864
2.20697
2.53034
3.27129
3.7014
4.09502
4.37822
4.54513
4.61075
4.59596
4.52061
4.39626
4.18614
3.83349
3.45357
3.09758
2.80988
2.57232
1.23798
2.86629
3.51895
4.32638
5.12008
5.60397
5.91284
5.69002
4.91727
3.34101
2.0387
1.65608
2.26003
2.5414
2.78759
3.09574
3.43266
3.71264
3.91042
4.02673
4.07243
4.0556
3.90542
3.64975
3.38079
3.1185
2.86738
2.63733
2.43847
2.17158
1.14778
2.65961
3.19603
3.37568
3.91257
4.73123
4.7871
4.12343
3.16454
2.04232
1.50775
1.61673
1.87934
2.19011
2.52473
2.85098
3.13584
3.34915
3.48193
3.55044
3.57057
3.54802
3.37417
3.19387
3.02993
2.8888
2.76796
2.66262
2.56163
2.33598
1.06484
2.42205
3.16519
3.1073
3.23469
3.22268
2.90091
2.30425
1.77888
1.4849
1.3559
1.39048
1.51939
1.88845
2.29128
2.62926
2.88065
3.05218
3.15226
3.19339
3.20105
3.18546
3.15059
3.0999
3.03737
2.96809
2.89689
2.82598
2.75082
2.64727
1.003
2.24821
3.03326
3.1552
1.9987
1.48549
1.37509
1.32628
1.29173
1.26062
1.29294
1.25259
1.58359
2.06246
2.43656
2.68744
2.85763
2.9639
3.01029