/*--------------------------------*- C++ -*----------------------------------*\
| =========                 |                                                 |
| \\      /  F ield         | OpenFOAM: The Open Source CFD Toolbox           |
|  \\    /   O peration     | Version:  2512                                  |
|   \\  /    A nd           | Website:  www.openfoam.com                      |
|    \\/     M anipulation  |                                                 |
\*---------------------------------------------------------------------------*/
FoamFile
{
    version     2.0;
    format      ascii;
    arch        "LSB;label=32;scalar=64";
    class       volScalarField;
    location    "60";
    object      omega;
}
// * * * * * * * * * * * * * * * * * * * * * * * * * * * * * * * * * * * * * //

dimensions      [0 0 -1 0 0 0 0];

internalField   nonuniform List<scalar> 
90398
(
20.0368
76.8046
203.375
393.487
506.737
538.954
518.9
480.555
439.372
406.472
588.852
741.777
845.525
885.001
883.827
856.566
814.111
762.775
706.034
644.973
579.801
510.503
437.591
362.863
291.09
231.529
192.167
173.799
166.299
163.265
22.8993
96.5526
249.169
421.95
517.867
540.608
515.689
474.926
432.857
399.412
558.79
718.248
824.206
875.354
883.135
861.582
822.206
772.275
716.711
657.851
596.911
534.665
472.138
410.867
353.011
301.284
261.631
233.897
217.107
209.646
27.4354
122.735
305.65
460.305
531.797
536.699
501.264
459.89
418.406
388.302
527.108
688.985
792.196
857.29
877.235
864.507
830.566
783.743
730.412
674.329
617.78
562.246
508.887
458.737
412.51
370.293
331.763
301.579
277.127
260.172
33.106
146.103
349.584
481.408
526.067
514.486
476.166
435.4
395.66
373.095
498.886
655.558
751.988
828.372
860.809
858.229
831.131
788.655
738.472
685.425
632.712
582.392
535.663
493.137
455.015
420.833
390.153
360.457
335.609
313.987
38.9974
170.683
376.012
481.004
500.278
471.843
438.383
399.681
364.321
355.138
471.207
617.227
709.583
784.892
830.543
838.472
818.994
782.103
736.162
686.858
638.188
592.561
551.26
514.592
482.4
453.987
428.708
405.606
382.826
361.078
43.5062
193.384
389.501
466.772
460.272
428.901
394.251
352.618
325.128
334.248
434.708
572.424
662.737
732.56
783.203
802.607
791.824
761.705
721.365
677.046
633.188
592.52
556.215
524.412
496.776
472.44
450.536
430.625
413.793
395.518
46.3609
210.803
400.028
455.635
423.972
389.459
347.195
307.811
287.969
310.55
374.788
503.107
606.429
676.122
724.228
747.818
748.119
726.706
693.75
655.825
617.804
582.448
551.013
523.54
499.598
478.271
458.805
441.025
426.829
411.144
48.4169
224.673
415.402
465.401
423.429
382.621
336.119
309.939
316.791
537.199
579.812
706.837
930.983
1118.64
663.691
688.197
689.899
676.171
653.009
623.321
592.219
562.72
536.142
512.645
491.833
472.872
455.421
439.491
427.418
414.016
49.6057
233
434.554
500.048
469.675
418.427
360.94
348.992
735.157
744.627
873.131
651.854
579.663
757.964
599.512
627.706
633.2
623.104
603.372
579.22
556.279
533.205
511.599
491.91
473.96
457.168
441.609
427.458
417.099
407.108
49.3088
232.296
448.678
544.583
543.239
485.064
420.849
396.598
922.394
1894.7
1794.89
1574.93
1067.06
870.955
531.819
564.779
575.054
570.037
555.402
536.042
515.663
495.292
476.74
461.088
446.298
432.216
419.05
406.632
396.373
392.509
48.0399
222.299
449.308
573.775
606.063
565.949
491.532
424.071
701.998
1819.65
1594.57
1079.39
1097.5
454.762
497.802
514.746
515.653
506.502
492.097
475.583
458.692
442.696
427.923
413.837
401.049
390.388
377.163
361.399
348.279
45.6402
202.364
434.026
578.639
639.762
636.779
579.84
504.752
811.195
651.773
1583.85
1154.8
1138.43
1362.38
319.567
422.22
451.424
459.617
456.252
446.75
434.517
421.419
408.544
395.872
382.833
369.153
355.775
334.478
304.309
263.688
42.7125
182.245
402.46
558.06
638.023
662.14
641.172
582.576
518.089
807.287
703.598
723.415
523.388
602.199
255.34
300.613
383.742
402.326
405.213
400.867
393.252
384.195
374.193
362.529
348.518
334.127
313.614
282.975
244.723
202.362
39.9808
160.521
356.078
515.171
605.65
644.701
644.784
612.17
549.442
483.996
385.802
330.098
337.583
295.774
245.757
239.635
306.817
347.82
356.899
357.475
353.852
347.377
337.93
324.996
309.889
290.167
262.357
229.425
197.073
170.588
37.1802
138.736
302.866
453.955
549.34
596.02
606.511
587.599
539.583
487.59
425.791
346.494
323.927
273.721
236.531
235.94
278.148
307.702
316.556
318.05
314.69
307.121
295.319
279.541
261.189
237.466
211.112
186.076
166.465
153.957
33.4461
117.338
251.722
382.236
473.241
521.934
536.207
527.219
498.792
463.689
426.756
376.825
328.671
279.673
237.75
231.336
257.195
273.478
277.176
275.499
269.34
259.035
244.944
227.839
208.951
189.358
171.268
156.743
146.878
141.072
29.1955
96.8975
202.101
313.098
396.8
445.484
464.642
460.906
440.434
417.955
398.879
371.032
324.518
279.701
239.693
207.993
217.482
227.803
230.899
227.465
220.376
210.339
198.068
184.518
170.833
158.167
147.6
139.664
134.213
130.563
25.9302
80.103
158.658
245.608
318.561
365.005
385.805
384.259
367.264
355.9
354.024
335.931
300.581
260.177
225.65
202.025
176.32
179.228
185.783
186.411
184.11
180.588
176.967
174.168
172.836
173.201
174.173
174.871
174.395
171.67
23.3727
68.0542
127.352
190.744
244.77
280.778
297.11
289.619
271.053
290.762
320.503
311.718
271.207
231.947
202.133
208.478
219.17
227.361
233.001
236.297
238.381
240.059
241.733
243.62
245.019
245.376
244.715
242.911
240.222
236.77
21.5716
58.5282
107.54
159.559
195.996
213.986
211.436
194.28
222.972
251.045
281.795
245.327
203.022
220.54
239.313
250.449
259.069
266.49
272.791
277.878
281.235
283.381
284.545
284.782
284.096
282.493
279.878
276.121
271.712
267.429
9.32189
27.3353
71.5752
127.693
156.947
168.949
175.228
197.38
231.981
311.161
384.458
314.889
294.261
303.009
306.794
304.334
296.368
283.977
267.479
246.923
222.933
196.517
169.12
142.461
118.576
99.8548
88.7101
86.3421
89.894
91.8618
12.3256
34.266
81.402
133.761
161.472
172.221
177.031
197.246
228.029
299.34
386.405
327.86
293.304
303.891
310.247
310.047
303.592
292.023
276.05
255.941
232.467
206.978
181.034
156.222
134.014
115.696
102.276
94.2034
91.9244
94.4211
16.5161
43.0841
95.4934
142.428
166.586
174.616
178.858
202.117
228.73
290.173
384.529
341.352
292.341
304.001
313.263
315.623
311.1
300.68
285.365
265.899
243.175
218.932
194.783
172.093
151.951
134.955
121.358
111.141
103.99
100.042
21.0192
51.245
106.94
148.745
168.803
175.135
184.703
213.536
235.234
287.289
380.334
354.66
303.204
303.792
314.77
319.081
316.307
307.072
292.531
273.747
251.958
229.026
206.686
186.087
168.064
152.836
140.284
130.001
121.917
115.386
24.9201
57.7303
114.66
151.931
167.648
174.865
201.945
231.133
244.989
289.815
374.585
366.633
324.831
303.982
314.127
319.251
317.6
309.422
295.777
277.829
257.226
235.821
215.303
196.757
180.718
167.185
155.852
146.154
137.991
130.781
27.9412
63.4059
119.55
152.91
165.273
185.163
221.606
244.619
249.606
292.542
365.332
373.749
348.171
319.797
311.764
315.758
314.316
306.879
294.198
277.482
258.371
238.777
220.241
203.67
189.455
177.391
166.932
157.476
149.254
141.247
30.2019
68.693
123.809
154.307
165.322
196.427
230.569
251.129
246.625
285.601
348.257
371.659
363.926
341.117
322.204
309.784
307.291
299.905
288.17
272.888
255.633
238.052
221.604
207.004
194.474
183.68
173.959
164.691
155.98
146.786
32.0292
72.9021
129.038
159.963
171.487
199.898
238.239
268.843
256.391
289.392
396.121
450.872
437.398
408.671
340.548
319.688
304.384
290.332
279.036
265.108
249.736
234.321
219.994
207.32
196.374
186.756
177.813
168.803
159.608
149.398
33.4303
75.8113
134.546
169.013
182.075
200.285
251.54
306.023
378.031
447.552
703.914
586.296
515.36
470.477
353.72
332.613
311.094
291.253
273.733
256.606
241.963
228.533
216.195
205.349
195.878
187.352
179.318
170.832
161.606
150.515
33.9957
76.7318
138.186
177.939
196.487
202.94
247.355
389.496
537.517
736.157
1271.2
3922.1
728.316
709.981
353.988
339.857
317.867
295.205
274.166
254.999
238.632
224.216
211.703
202.061
193.782
186.2
179.07
171.626
163.077
152.098
33.338
75.0377
138.417
182.647
206.831
215.361
233.541
307.528
482.342
678.135
1900.59
342.885
339.427
319.844
297.003
275.08
255.511
238.91
224.71
212.641
202.565
193.362
184.767
177.851
171.728
165.679
159.746
31.3029
72.4754
135.141
181.78
210.115
224.583
232.008
265.788
352.673
536.738
542.082
1724.48
1750.72
1240.89
323.762
334.922
316.667
294.319
273.138
254.498
238.851
225.378
213.748
203.064
192.622
182.759
175.314
170.389
167.206
165.543
28.38
68.8861
128.231
175.277
205.425
223.906
233.555
244.125
281.34
398.041
438.797
474.854
739.559
361.917
317.945
331.253
311.142
287.425
266.808
249.234
234.485
221.375
209.123
196.713
184.114
172.362
163.425
152.803
139.109
120.474
24.8454
62.8685
117.967
164.836
195.508
215.382
227.413
234.992
251.689
296.233
333.074
317.635
348.778
299.621
303.568
313.686
303.786
275.281
253.492
235.981
221.008
207.04
192.836
177.957
163.004
149.441
134.874
118.818
102.404
86.5856
20.9448
54.0998
108.699
152.562
183.339
203.776
217.193
225.664
235.45
261.515
277.239
263.632
248.659
325.463
319.148
284.087
275.351
248.686
227.103
209.947
194.728
179.596
163.856
147.758
132.547
117.824
103.288
90.1557
79.1692
71.0308
16.8761
43.5596
95.7204
142.709
171.773
193.226
207.99
221.681
236.266
247.314
244.087
241.754
263.449
370.919
344.557
255.151
225.144
205.645
188.067
173.039
159.021
145.034
130.885
117.139
104.472
93.3698
84.3196
77.6001
73.1623
70.881
12.9269
33.0278
76.591
128.791
169.803
200.727
224.211
241.479
252.4
249.413
232.452
232.4
266.121
372.584
400.679
286.442
198.653
169.615
153.466
140.916
130.255
120.679
112.012
104.425
98.1466
93.296
89.8775
87.6999
86.2752
85.0814
9.60795
24.9585
55.8369
102.971
153.166
198.555
233.958
256.988
267.371
253.858
229.93
222.36
238.912
330.788
377.602
356.453
271.638
185.908
154.639
138.744
128.413
120.724
114.548
109.441
105.117
101.292
97.8014
94.6067
91.4252
88.2204
7.08808
19.5255
40.5361
74.295
120.005
171.214
216.291
258.957
262.16
239.726
233.626
251.977
366.272
405.781
282.769
197.307
159.311
135.289
121.734
113.175
107.34
102.96
99.5347
97.0838
95.6259
94.2421
92.9632
91.837
90.8369
89.8951
5.396
15.9976
32.7869
56.751
89.6305
129.848
176.173
223.573
200.61
210.586
245.294
318.705
329.969
217.977
165.132
137.347
118.782
105.89
98.4048
97.096
96.7931
96.633
96.4689
96.2517
95.9291
95.4454
94.8192
94.0905
93.2082
92.0845
15.6646
42.7421
80.7557
115.376
129.01
133.821
138.267
154.042
199.648
297.652
285.915
225.019
226.434
237.916
244.684
246.16
243.957
239.17
232.326
223.068
210.579
194.252
174.513
152.787
130.805
110.441
93.0358
79.5801
70.9468
68.1708
19.1969
47.0449
85.5262
118.509
133.088
137.657
140.276
153.185
192.046
287.152
294.645
230.177
225.378
239.515
249.183
252.87
252.202
248.171
241.502
232.178
219.69
203.643
184.33
162.943
141.422
121.328
103.982
90.0737
80.0068
74.3574
23.5865
51.7565
93.745
124.141
138.049
141.587
142.867
156.065
190.171
277.583
301.46
238.48
223.909
240.889
253.886
260.052
261.097
257.975
251.509
241.954
229.119
213.188
194.555
174.35
154.099
135.248
118.769
104.974
94.2536
86.3594
28.45
56.5164
101.134
129.848
142.419
144.946
148.572
166.602
198.126
275.541
305.954
251.925
226.101
242.558
257.734
265.632
267.886
265.519
259.27
249.523
236.543
220.513
202.571
183.814
165.345
148.316
133.307
120.516
110.424
101.652
32.8296
63.4486
107.313
134.298
144.928
147.604
161.981
187.341
216.356
281.434
309.244
270.973
239.821
245.18
260.095
268.413
270.997
269.03
262.992
253.199
240.149
224.52
207.3
190.006
173.424
158.305
144.98
133.324
124.155
115.283
36.2781
69.333
112.135
137.821
146.871
155.816
182.014
208.956
237.317
288.188
311.061
290.53
261.856
251.504
260.598
267.625
269.769
267.763
261.905
252.307
239.517
224.481
208.536
192.67
177.933
164.599
152.761
141.955
133.341
124.65
39.0777
74.2152
116.851
143.006
152.501
167.562
199.022
225.181
247.367
290.762
314.333
306.349
284.689
265.114
261.757
263.251
264.077
261.822
256.214
247.069
234.942
220.94
206.36
192.226
179.227
167.468
156.88
146.925
138.509
129.732
41.4772
78.1862
122.09
151.006
163.459
178.743
219.293
246.453
255.418
327.361
357.079
344.114
307.641
280.226
270.302
260.66
255.81
252.196
246.812
238.396
227.289
214.719
201.767
189.396
178.107
167.857
158.475
149.29
141.026
131.934
43.3766
80.8934
126.49
159.088
176.282
190.689
240.447
286.671
294.483
395.725
471.717
371.188
311.541
283.3
280.723
263.163
251.373
243.614
236.18
227.576
217.729
206.707
195.56
185.057
175.495
166.678
158.522
150.221
142.331
132.87
44.2817
81.67
128.622
164.036
186.778
197.639
241.011
356.136
468.79
631.09
929.853
1214.08
472.685
694.841
285.578
267.063
250.282
238.019
227.949
218.348
208.594
198.469
188.693
179.936
172.017
164.734
157.847
150.823
143.806
134.289
43.8124
80.029
127.466
163.891
190.032
204.72
225.047
292.404
427.735
596.879
846.561
851.335
281.987
268.61
250.248
234.908
222.358
211.623
201.745
192.359
183.647
175.861
168.885
162.71
157.573
152.582
147.605
140.681
42.0222
76.1366
122.932
158.902
186.059
205.399
220.508
249.755
287.26
398.788
428.906
1658.42
1383.3
796.035
270.259
266.336
248.842
232.142
218.198
206.83
197.072
188.272
180.305
173.206
167.106
162.354
159.598
158.699
160.216
167.928
39.1289
70.5435
115.472
149.924
175.667
196.236
211.265
225.676
241.455
289.121
367.325
445.086
600.079
286.618
264.557
262.953
245.177
227.673
213.435
202.133
192.664
184.413
177.059
170.737
166.091
163.998
165.133
168.851
173.922
175.245
35.3851
63.852
105.276
138.452
162.535
181.965
196.666
207.274
217.009
242.841
291.69
320.876
363.082
295.498
266.24
257.229
238.522
219.249
205.213
194.536
185.706
178.067
171.524
166.619
163.7
162.393
160.624
155.5
146.394
128.715
31.0371
56.7322
93.4514
125.382
148.497
166.92
181.527
192.234
201.299
217.387
242.587
265.352
316.728
295.298
261.738
236.516
219.339
202.1
189.754
180.479
172.863
166.235
160.513
155.525
150.531
144.115
135.099
124.028
109.738
91.5877
26.3995
49.844
80.9152
111.467
134.48
153.273
169.789
183.871
195.396
206.04
223.724
268.908
338.975
291.894
240.6
202.137
185.595
173.907
164.828
157.622
151.277
145.118
138.652
131.455
123.269
114.056
104.569
94.6034
84.478
76.2829
21.8149
43.5129
67.8661
97.9992
124.828
148.689
170.977
190.048
203.076
207.859
222.829
285.935
359.437
310.591
244.007
182.636
152.011
140.636
133.784
128.313
123.151
117.73
111.84
105.5
98.9518
92.6489
86.964
82.2037
78.6812
76.7932
17.6379
37.5316
55.5788
82.2266
113.002
146.458
180.833
209.129
223.272
218.051
226.563
271.26
348.72
336.615
272.789
208.773
154.938
124.844
113.788
108.064
103.919
100.158
96.4119
92.6264
88.9501
85.6007
82.8598
80.9738
80.1139
80.1394
14.473
32.9391
47.9225
68.4946
96.3506
135.512
188.433
242.529
244.637
234.483
265.988
354.327
383.8
260.746
170.564
128.791
110.284
100.172
95.0413
92.2213
90.3239
88.7538
87.3502
86.1759
85.2665
84.5393
84.0791
83.9432
84.1362
84.6606
12.3674
29.9305
44.6271
62.961
82.5671
118.956
199.893
230.543
223.859
254.622
288.842
281.156
210.651
142.22
110.872
95.3256
87.4518
83.9721
83.0806
83.5711
84.1526
84.5728
84.8271
84.962
85.0234
85.0484
85.0727
85.1412
85.2287
85.3537
21.7369
54.0121
90.9588
116.151
128.575
134.168
138.304
153.81
213.578
277.993
236.898
205.362
215.889
228.522
234.76
235.945
234.08
230.607
226.449
221.953
216.622
208.909
196.98
180.442
160.108
138.255
117.621
99.8597
81.8435
66.1502
25.9919
58.9965
94.6556
120.38
133.558
138.348
140.039
151.383
202.283
274.314
242.957
204.182
215.248
231.924
241.348
244.468
244
241.273
237.164
232.154
226.156
218.295
207.004
190.901
171.283
149.784
129.035
110.85
95.2893
80.1476
31.3069
65.3967
101.413
127.061
140.292
143.439
142.925
152.379
195.059
267.854
249.977
206.884
214.253
236.137
249.013
254.114
254.98
253.025
248.938
243.19
236.019
227.162
215.78
200.967
182.445
162.667
143.141
125.135
110.41
96.8677
36.6256
71.2016
108.426
134.762
147.681
149.286
150.464
162.12
199.591
265.563
258.593
217.997
216.698
241.475
256.362
262.446
263.869
262.281
258.19
251.856
243.609
233.591
221.629
207.348
190.764
173.093
155.517
139.346
126.402
113.295
41.3496
76.6669
115.091
142.002
153.968
155.14
162.992
180.7
217.649
270.026
269.382
238.687
230.891
248.507
262.854
268.414
269.313
267.467
263.184
256.402
247.346
236.405
223.85
209.822
194.734
179.145
164.018
149.838
138.704
127.003
45.393
82.0867
121.239
148.823
160.244
164.083
179.625
203.936
241.346
277.534
282.502
266.923
254.184
257.843
267.774
271.192
270.725
268.132
263.478
256.353
246.806
235.331
222.484
208.852
194.976
181.197
168.048
155.629
145.663
135.405
49.1638
87.6423
127.42
156.98
170.6
177.547
199.437
225.984
256.201
287.025
301.155
295.621
280.787
271.27
270.576
269.387
267.089
263.853
259.027
251.863
242.274
230.767
218.126
205.199
192.471
180.249
168.706
157.654
148.398
138.927
52.7269
92.8494
133.882
166.407
185.244
194.953
223.389
245.299
274.502
320.253
333.845
314.776
286.127
268.074
273.621
262.923
257.832
254.428
250.041
243.422
234.352
223.447
211.629
199.728
188.297
177.486
167.318
157.375
148.643
139.474
55.664
96.8503
138.719
173.934
199.258
212.761
242.584
278.523
330.829
415.381
451.974
374.688
297.742
263.08
276.129
256.259
246.583
241.889
237.676
231.933
223.971
214.211
203.646
193.13
183.135
173.747
164.9
156.035
147.919
138.867
57.3612
98.7972
140.576
176.597
206.909
226.129
254.761
319.129
401.755
552.223
728.73
1110.2
715.79
534.37
278.14
250.739
236.259
229.292
224.72
219.329
212.337
203.879
194.78
185.823
177.391
169.519
162.113
154.582
147.413
138.485
57.5243
98.3867
139.092
173.48
204.657
230.354
254.894
302.162
368.015
458.489
448.014
1071.01
979.959
1130.6
279.042
245.831
227.945
218.567
212.697
207.262
200.969
193.752
186.1
178.555
171.591
165.297
159.688
154.136
148.602
140.329
56.1444
95.712
134.598
165.783
194.576
221.421
245.355
273.392
299.341
322.426
359.236
1004.48
1156.14
778.035
272.453
238.63
220.948
209.797
202.535
196.665
190.852
184.617
178.274
172.218
166.848
162.388
159.199
156.892
154.947
151.188
53.3495
91.1883
127.601
155.344
179.891
203.755
224.141
241.535
253.986
270.454
307.378
397.738
579.589
479.135
252.997
229.657
213.846
202.129
193.954
187.738
182.222
176.884
171.845
167.466
164.254
162.734
163.556
166.853
172.698
183.736
49.348
85.2278
118.271
143.512
164.432
184.691
202.192
215.489
224.668
236.066
272.088
328.358
387.342
315.369
238.185
219.962
205.528
193.644
185.42
179.427
174.568
170.442
167.13
165.144
164.983
167.098
171.789
178.35
185.311
189.188
44.4049
78.1804
106.859
130.43
148.968
166.658
182.993
196.298
205.788
216.466
250.649
295.823
314.035
268.8
223.013
203.851
191.419
181.213
174.317
169.624
166.311
164.062
162.927
163.014
164.189
165.871
166.93
165.602
161.053
149.668
38.8482
70.2864
93.8582
115.736
133.423
150.51
167.843
183.189
194.497
207.645
252.972
317.136
286.189
231.822
196.712
177.596
168.026
161.548
157.414
154.946
153.474
152.524
151.738
150.734
149.072
146.196
142.18
136.051
127.298
115.314
32.9207
62.0011
80.8979
101.194
120.299
139.64
160.441
179.508
193.511
211.736
275.998
324.841
270.69
215.178
174.662
149.337
138.525
134.564
132.923
132.11
131.391
130.296
128.537
126
122.687
118.721
113.968
108.299
101.935
95.3188
27.5315
54.5851
71.5983
90.4145
111.11
136.009
166.203
192.965
209.489
229.45
288.577
324.577
286.103
226.187
175.185
140.32
120.201
112.092
110.069
109.547
109.092
108.194
106.718
104.686
102.226
99.5073
96.6774
94.0734
92.0776
90.7734
23.6452
49.7315
69.1039
89.1258
107.795
140.16
196.625
239.208
247.232
272.623
338.623
330.722
250.232
166.323
122.173
104.416
97.508
95.01
94.716
95.1327
95.5106
95.5611
95.2233
94.5511
93.7047
92.9848
92.4135
92.1138
92.1876
92.6767
21.1649
47.0111
69.4029
92.2742
111.994
162.15
239.249
243.96
252.8
269.056
252.957
198.94
142.81
107.124
91.6228
85.796
84.3594
84.9404
86.3443
87.8918
89.211
90.1565
90.7465
91.0498
91.1716
91.2338
91.3454
91.5609
91.8918
92.2942
27.6169
63.1484
96.6995
120.882
136.383
143.864
150.455
174.593
232.385
252.593
214.909
206.336
223.106
234.589
237.876
236.8
233.541
229.208
224.552
220.07
215.971
211.976
206.906
198.7
184.987
166.464
146.004
127.584
109.815
87.0559
31.9911
67.7367
100.497
125.741
141.574
148.099
151.304
168.41
223.82
253.663
218.108
204.171
225.292
241.25
247.207
247.606
245.359
241.583
236.928
231.893
226.873
221.889
216.212
208.253
196.252
179.213
159.037
139.78
123.293
104.964
37.6854
74.2886
107.126
133.567
149.578
154.002
154.383
165.663
213.714
251.276
223.109
206.087
229.487
250.002
258.409
259.805
258.177
254.834
250.229
244.612
238.375
231.81
224.74
216.276
205.103
190.352
172.645
153.244
137.326
120.207
43.5865
81.0153
115.012
143.461
159.784
162.315
162.664
172.417
212.744
251.111
234.344
220.906
240.15
261.669
269.955
270.636
268.406
264.833
260.123
254.108
246.936
238.97
230.417
221.003
210.017
196.754
181.543
164.969
150.911
134.668
49.0135
87.4014
123.032
153.413
169.788
171.193
174.464
188.232
225.714
257.391
253.394
248.364
261.953
277.844
282.232
279.88
275.512
270.729
265.448
259.015
251.181
242.18
232.408
222.036
210.871
198.576
185.346
171.322
159.429
146.019
53.9733
93.7258
130.684
162.714
179.922
182.354
191.074
212.724
244.977
270.018
278.467
286.097
294.519
299.422
295.438
287.737
279.975
273.201
266.834
259.764
251.339
241.59
230.961
219.877
208.505
196.835
184.954
172.788
162.372
151.218
58.8984
100.532
138.144
172.243
193.169
198.979
213.44
236.556
261.337
287.82
312.127
338.208
340.933
327.667
308.96
292.899
280.874
271.987
264.571
256.919
248.057
237.88
226.838
215.462
204.13
192.985
182.055
171.112
161.545
151.68
63.8443
107.099
145.288
181.596
209.217
219.978
236.283
256.26
286.859
335.423
403.537
433.163
416.671
370.023
321.51
292.332
275.669
265.548
257.966
250.402
241.623
231.558
220.668
209.552
198.683
188.186
178.094
168.047
159.032
149.756
68.3049
112.449
150.469
188.099
223.028
243.082
263.956
294.458
342.698
426.39
504.154
566.097
531.18
419.287
329.755
285.317
263.518
253.133
246.583
240.156
232.308
223.025
212.882
202.576
192.54
182.933
173.736
164.547
156.102
147.172
71.4825
115.631
152.646
188.671
226.079
261.607
288.882
333.565
391.558
437.027
482.616
500.097
567.181
525.059
341.16
275.963
247.842
237.238
232.086
227.127
220.625
212.654
203.798
194.712
185.862
177.394
169.287
161.125
153.464
144.887
72.9163
116.251
151.452
183.465
217.284
254.421
291.121
326.369
356.219
365.504
380.118
383.806
459.95
579.473
361.876
267.138
231.517
220.867
216.649
212.906
207.776
201.216
193.858
186.242
178.821
171.754
165.06
158.339
151.844
143.65
72.2957
114.482
147.429
174.343
202.069
232.409
261.24
284.663
299.947
307.713
327.459
351.217
408.682
553.849
376.852
250.241
217.138
206.512
202.242
199.062
195.032
189.804
183.854
177.821
172.011
166.634
161.839
157.255
152.63
145.362
69.8292
110.728
141.362
163.414
185.19
209.005
230.542
246.984
257.747
266.223
283.841
335.593
417.371
469.747
321.209
231.163
204.663
194.496
189.814
186.694
183.389
179.406
175
170.655
166.678
163.545
161.517
160.346
159.197
154.794
65.8631
105.331
133.526
152.13
169.184
188.217
205.936
219.695
229.481
238.833
266.006
335.643
389.493
366.924
261.773
211.73
193.16
183.934
179.18
176.203
173.618
170.948
168.307
166.064
164.613
164.386
165.832
168.632
171.877
175.101
60.6056
98.4352
123.931
140.599
154.326
169.818
186.143
200.419
211.944
225.109
271.9
324.867
315.991
279.587
220.219
192.615
179.901
172.654
168.833
166.775
165.497
164.594
164.08
164.163
165.094
166.965
169.781
172.838
175.975
180.566
54.3296
90.4415
112.428
128.244
140.932
154.803
171.048
187.483
202.14
226.347
301.196
318.358
260.349
218.965
186.124
169.348
161.418
157.336
155.743
155.577
156.104
156.923
157.836
158.763
159.609
160.186
160.258
159.369
157.694
155.103
47.6226
82.1121
101.039
116.71
131.46
146.173
163.725
182.894
203.375
249.147
325.61
278.135
217.208
179.649
155.292
142.32
137.394
136.244
136.942
138.437
140.034
141.314
142.05
142.133
141.501
140.119
138.029
135.28
132.222
128.522
41.6412
74.9982
94.8063
114.056
132.691
151.569
173.712
198.827
229.236
284.727
312.573
260.476
207.316
165.322
138.145
123.416
117.201
116.016
117.12
118.924
120.593
121.743
122.25
122.102
121.32
119.971
118.178
116.113
113.83
111.81
37.4855
70.6605
94.1948
121.359
146.461
182.729
226.63
259.758
283.774
315.565
297.397
235.536
171.305
127.844
108.626
102.277
100.719
101.277
102.929
104.886
106.632
107.93
108.681
108.848
108.423
107.503
106.574
105.806
105.314
105.278
34.9563
68.4732
95.0587
129.343
168.29
229.145
258.984
258.024
257.874
239.677
194.752
146.744
113.543
96.5006
90.5936
89.4684
90.3179
92.1668
94.3563
96.4688
98.3479
99.8409
100.879
101.454
101.63
101.557
101.451
101.49
101.71
101.918
33.3718
70.5046
102.687
128.863
148.277
157.757
171.344
201.09
234.07
232.054
208.336
218.912
239.436
247.288
246.792
242.796
237.502
231.821
226.114
220.631
215.622
211.237
207.321
203.032
196.461
185.66
169.498
150.662
134.333
114.394
37.2355
74.1849
106.167
133.302
152.697
161.248
169.37
196.534
231.789
234.269
210.898
220.169
245.525
257.012
258.52
255.531
250.887
245.602
239.917
233.939
228.009
222.487
217.49
212.5
206.139
196.578
182.785
164.864
148.308
129.952
42.6529
80.0361
112.285
141.214
160.803
167.03
169.938
187.56
224.66
234.388
216.474
228.293
256.201
269.695
271.847
268.939
264.362
259.228
253.624
247.352
240.568
233.664
227.006
220.547
213.565
204.747
193.094
177.784
162.656
144.644
48.6729
86.908
120.51
152.226
172.835
177.05
176.93
187.861
221.947
238.427
234.017
250.225
275.683
286.178
285.314
280.078
274.016
268.218
262.443
256.069
248.861
241.034
233.02
225.107
217.124
208.344
198.007
185.203
172.772
156.917
54.5291
94.1056
129.421
163.663
185.333
188.468
188.68
200.516
231.192
252.294
265.547
285.58
303.978
307.485
300.223
290.093
280.606
272.863
266.234
259.569
252.141
243.816
234.92
225.88
216.893
207.718
197.938
186.84
176.444
163.697
60.3333
101.535
138.093
174.048
197.599
202.207
206.949
223.378
250.239
277.598
308.033
331.871
340.059
333.201
317.233
300.431
286.062
275.293
267.003
259.549
251.712
242.99
233.518
223.716
213.959
204.277
194.555
184.31
174.984
164.397
66.5407
109.732
146.52
183.988
212.562
223.078
232.009
249.705
278.848
321.648
369.336
388.166
380.318
361.321
336.003
310.981
290.768
276.298
265.882
257.282
248.808
239.657
229.804
219.61
209.473
199.514
189.778
179.921
170.96
161.498
73.2367
117.962
154.484
193.053
229.988
252.414
266.467
290.844
333.703
400.137
440.7
426.238
409.22
387.705
354.072
319.636
292.958
274.731
262.403
252.831
243.804
234.325
224.357
214.149
204.02
194.14
184.591
175.065
166.321
157.336
79.8463
125.147
160.472
198.26
240.71
281.854
312.339
343.401
394.809
429.936
405.555
389.184
400.065
404.748
365.023
320.35
287.73
267.518
254.895
245.392
236.457
227.21
217.522
207.653
197.892
188.433
179.315
170.248
161.832
153.162
85.2382
130.107
163.583
197.129
235.571
281.63
325.886
355.945
375.772
367.44
344.088
332.307
353.849
392.376
366.477
315.774
275.72
253.946
242.551
234.478
226.643
218.263
209.334
200.233
191.226
182.486
174.061
165.652
157.765
149.487
88.5604
132.184
163.147
190.788
221.181
256.982
291.612
312.386
319.942
314.288
304.815
301.19
322.571
375.562
371.361
312.787
260.445
236.502
226.915
220.919
214.714
207.619
199.876
191.952
184.067
176.374
168.899
161.411
154.295
146.492
89.4908
131.611
159.708
181.238
203.966
229.566
252.953
268.1
274.864
277.053
282.066
292.251
315.123
373.297
383.986
307.744
241.522
217.467
210.19
206.092
201.597
196.049
189.734
183.179
176.636
170.252
164.095
157.916
151.869
144.572
88.1583
129.095
154.487
170.57
187.376
206.735
223.852
235.742
243.148
250.627
265.877
301.35
349.404
405.156
379.196
279.406
218.932
200.78
195.061
192.053
188.836
184.658
179.838
174.807
169.785
165.014
160.609
156.308
151.795
145.109
84.9356
124.992
148.203
160.347
172.322
187.447
201.965
213.266
222.616
233.783
259.629
327.616
379.291
391.627
316.792
238.409
200.292
186.739
182.146
179.868
177.642
174.841
171.591
168.151
164.888
162.106
159.922
158.017
155.627
150.278
80.05
119.363
141.03
151.224
159.813
171.411
184.917
198.224
211.603
230.12
287.429
349.076
330.19
307.671
250.322
205.93
183.621
174.331
170.974
169.6
168.53
167.217
165.673
164.084
162.733
161.798
161.402
161.056
160.154
157.769
73.8673
112.404
132.565
143.333
152.704
162.266
174.874
191.249
211.55
251.869
338.648
314.279
260.437
233.623
201.269
178.109
165.95
160.734
159.243
159.344
159.78
160.075
160.116
159.95
159.681
159.333
158.922
158.235
157.373
157.481
67.2605
105.066
123.739
138.91
155.487
165.507
176.721
197.157
231.585
300.284
323.533
248.96
204.207
181.45
163.549
152.093
146.266
144.157
144.29
145.676
147.26
148.542
149.32
149.544
149.24
148.451
147.287
145.804
144.46
144.283
61.4408
98.9383
119.188
143.364
172.955
187.655
201.118
231.782
278.909
309.965
272.349
211.48
173.808
151.244
138.944
132.68
129.414
127.838
127.944
129.383
131.148
132.61
133.554
133.921
133.711
132.959
131.752
130.243
128.819
128.028
57.439
95.2761
119.129
157.329
207.849
236.931
269.634
296.872
303.022
283.297
231.719
178.608
142.346
123.771
117.715
115.676
114.24
113.219
113.599
115.13
116.917
118.518
119.718
120.402
120.511
120.029
118.987
117.76
116.864
116.573
55.0436
93.6087
120.781
172.619
243.296
258.219
261.781
253.598
233.727
198.058
155.759
125.437
109.636
103.881
102.794
102.238
101.791
102.155
103.401
105.098
106.957
108.726
110.161
111.114
111.562
111.58
111.341
111.143
111.127
110.878
39.2299
76.9793
110.475
139.17
162.259
175.641
193.127
212.24
226.09
219.552
214.173
239.066
257.705
261.184
257.014
250.434
243.497
236.622
229.923
223.482
217.418
211.85
206.877
202.433
197.939
191.899
182.619
168.941
153.762
137.157
41.9537
79.4822
113.067
142.227
165.007
176.114
191.212
213.511
226.709
222.576
218.759
244.989
266.043
271.883
269.281
263.594
257.303
250.94
244.471
237.77
230.914
224.21
218.037
212.564
207.437
201.531
193.4
181.378
167.612
150.528
46.2705
83.9331
117.865
148.814
171.668
180.014
186.595
205.723
223.559
224.883
230.017
258.909
279.208
284.174
281.418
275.814
269.68
263.596
257.422
250.723
243.398
235.734
228.205
221.2
214.749
208.275
200.79
190.654
179.285
163.309
51.5739
90.1978
125.514
159.447
183.863
190.352
190.568
201.483
223.846