/*--------------------------------*- C++ -*----------------------------------*\
| =========                 |                                                 |
| \\      /  F ield         | OpenFOAM: The Open Source CFD Toolbox           |
|  \\    /   O peration     | Version:  2512                                  |
|   \\  /    A nd           | Website:  www.openfoam.com                      |
|    \\/     M anipulation  |                                                 |
\*---------------------------------------------------------------------------*/
FoamFile
{
    version     2.0;
    format      ascii;
    arch        "LSB;label=32;scalar=64";
    class       volScalarField;
    location    "60";
    object      omega;
}
// * * * * * * * * * * * * * * * * * * * * * * * * * * * * * * * * * * * * * //

dimensions      [0 0 -1 0 0 0 0];

internalField   nonuniform List<scalar> 
84826
(
16.0865
15.8187
15.5625
15.3176
15.0844
14.8703
14.7311
14.9503
16.9562
24.668
40.7121
65.8042
102.867
145.281
194.875
251.747
289.965
299.993
294.036
277.957
261.228
241.716
218.418
192.064
165.617
140.282
119.588
106.792
98.4951
92.69
16.0867
15.8195
15.5641
15.3202
15.0892
14.8735
14.7136
14.7987
15.9833
21.2194
36.5838
56.0834
83.5705
125.014
181.711
245.295
286.944
298.251
292.511
276.208
259.226
239.251
215.828
189.778
164.238
141.578
124.415
114.135
110.664
108.497
16.0869
15.8202
15.566
15.3243
15.0959
14.8806
14.7012
14.6493
15.1535
19.9553
47.5544
65.5966
79.1145
107.727
164.6
235.065
281.157
293.841
287.931
271.668
254.291
233.917
210.14
184.279
160.733
142.354
130.805
127.094
130.238
127.542
16.0871
15.8208
15.5674
15.327
15.1005
14.8859
14.6964
14.5727
14.8448
24.9446
81.3577
102.992
107.524
114.172
153.426
223.331
272.615
286.594
280.185
264.317
246.686
225.973
201.667
178.019
160.483
150.629
147.748
151.1
154.783
152.849
16.0872
15.8213
15.5685
15.3294
15.1038
14.8931
14.7072
14.574
14.9626
36.4454
128.603
148.959
147.505
142.479
161.834
217.641
263.726
277.128
269.02
253.891
236.186
214.705
192.381
176.419
170.906
174.044
181.381
189.655
193.687
193.261
16.0874
15.8216
15.5697
15.332
15.1084
14.9008
14.7189
14.5966
15.2742
53.1081
180.135
191.104
185.83
183.619
196.112
229.359
261.262
268.658
256.615
241.899
223.891
203.312
188.905
188.468
200.991
217.022
228.825
235.192
236.708
235.287
16.0874
15.8219
15.5704
15.3333
15.111
14.9051
14.7238
14.6198
15.6778
73.6021
228.353
229.994
230.19
234.959
238.936
253.309
267.637
264.244
248.886
232.049
212.757
198.136
201.444
224.987
251.101
267.999
275.823
277.266
275.309
271.431
16.0874
15.822
15.5703
15.3329
15.1103
14.9048
14.7238
14.6328
16.4017
100.218
433.842
508.791
480.658
454.027
275.024
276.25
276.817
262.831
243.958
224.828
207.234
208.968
241.785
278.254
301.092
312.096
315.333
313.245
308.931
302.815
16.0874
15.8219
15.5698
15.3317
15.1081
14.9021
14.7197
14.6122
15.6811
67.2459
223.557
506.344
515.01
508.15
297.941
292.101
283.877
261.947
240.382
219.531
213.242
248.69
295.147
325.229
341.189
347.942
348.496
344.43
338.856
331.487
16.0875
15.822
15.5695
15.3311
15.1069
14.8995
14.7139
14.576
14.822
35.5518
192.607
501.5
658.379
777.093
292.607
293.516
283.482
257.898
234.662
217.759
244.553
298.961
338.441
361.398
373.683
378.498
377.762
372.652
366.688
359.365
16.0876
15.8219
15.5693
15.3303
15.1057
14.8942
14.7082
14.549
14.688
66.3318
384.349
888.539
662.827
265.223
278.082
269.903
246.866
224.964
232.295
288.541
338.631
371.331
391.089
402.182
406.42
405.198
399.604
394.234
387.666
16.0876
15.8215
15.568
15.3277
15.1016
14.8875
14.7005
14.5347
14.4986
34.4367
112.995
836.642
690.218
633.35
231.459
242.101
239.473
223.816
216.812
264.548
324.415
368.345
398.609
417.774
429.29
433.944
432.89
427.015
420.305
411.816
16.0874
15.8209
15.5667
15.3251
15.0983
14.8824
14.6925
14.522
14.4305
18.6565
48.3171
363.832
535.582
505.596
237.702
222.741
213.454
205.351
232.266
295.046
351.107
392.988
423.923
444.364
455.428
458.916
456.753
449.783
441.84
432.289
16.0873
15.8205
15.5661
15.3237
15.095
14.878
14.6814
14.5037
14.4174
15.4433
52.3132
191.792
224.404
243.486
245.25
225.07
205.679
204.933
252.336
317.706
373.17
416.754
446.859
466.162
476.675
479.77
477.013
469.24
460.289
449.955
16.0872
15.8202
15.5655
15.3227
15.0927
14.8766
14.6737
14.4853
14.3992
14.9497
24.4016
139.129
181.698
202.181
215.569
208.273
194.277
206.797
266.618
336.878
393.107
434.363
464.1
483.862
494.801
497.855
494.585
485.971
475.947
464.82
16.0871
15.82
15.5651
15.3218
15.0907
14.8733
14.6658
14.4742
14.366
15.0098
19.4949
88.5604
141.699
168.203
182.199
180.054
176.297
205.335
278.699
350.169
404.263
445.873
477.102
498.224
509.993
513.156
509.315
499.679
488.404
476.4
16.087
15.8197
15.5646
15.3209
15.0889
14.8703
14.6621
14.4705
14.3452
14.8999
19.0085
46.2226
103.135
137.924
154.887
158.388
162.641
199.825
281.624
354.393
410.37
454.54
487.753
509.979
522.009
525.204
520.609
509.654
496.905
483.863
16.0868
15.8194
15.564
15.32
15.0872
14.8681
14.659
14.4692
14.3478
14.8236
18.8194
32.8316
72.9534
112.105
133.075
141.06
149.285
185.318
268.364
350.442
412.893
461.368
497.027
520.242
532.176
534.433
528.125
515.301
500.697
486.414
16.0867
15.8192
15.5638
15.3195
15.0869
14.8677
14.6568
14.4672
14.3526
14.7589
18.1404
29.5057
54.033
90.7507
114.277
125.29
135.423
166.236
243.357
341.7
413.452
466.744
504.586
528.303
539.642
540.222
531.249
516.147
499.38
483.62
16.0858
15.8177
15.562
15.318
15.0855
14.8662
14.6543
14.4581
14.3655
14.7885
17.5028
25.2145
40.582
69.1696
93.3454
106.866
118.717
149.056
226.735
335.192
413.641
470.104
509.11
532.867
543.368
541.222
530.067
513.097
494.298
477.116
1.94336
2.10089
2.25917
2.42113
2.59809
2.8261
3.15478
3.60125
4.64307
7.43326
13.0144
20.9507
29.6334
40.6203
54.5235
74.2866
95.1417
107.271
113.578
118.785
134.116
148.357
154.03
149.644
134.707
109.02
89.2181
87.8705
90.9513
90.0341
1.94356
2.10044
2.25729
2.42313
2.60319
2.80388
3.10261
3.58152
4.53296
7.13613
14.4863
24.3249
33.88
42.3928
55.6848
75.3267
96.1034
107.793
113.29
117.381
131.515
144.635
149.546
144.647
131.36
113.81
102.012
100.042
100.979
104.174
1.94374
2.10129
2.25688
2.42279
2.61312
2.82445
3.11402
3.61374
4.63646
8.39783
25.2254
39.9391
47.3136
52.2106
60.5022
77.8099
97.0754
107.282
111.444
115.067
129.177
141.727
146.094
141.037
130.405
120.924
117.127
118.095
119.634
124.923
1.94372
2.10208
2.25831
2.42508
2.62318
2.85112
3.15609
3.70718
5.09334
13.9864
54.2759
74.1505
75.9769
72.6911
72.1915
83.5838
98.9623
106.534
108.958
114.007
128.298
140.478
144.293
140.784
137.711
139.915
143.584
145.558
145.545
146.748
1.94383
2.1023
2.25942
2.42731
2.62251
2.8569
3.19787
3.943
6.58915
26.2683
104.237
118.265
108.262
95.8658
87.1155
91.6755
101.877
106.31
106.95
114.345
128.997
140.553
145.354
149.998
160.102
170.342
174.915
174.088
171.047
165.657
1.94398
2.10242
2.25987
2.42791
2.62496
2.86964
3.27167
4.23278
9.04235
44.6147
180.075
168.508
136.307
113.952
100.429
99.8075
105.205
106.842
106.458
116.962
132.133
144.105
157.279
176.963
193.247
199.721
198.718
193.114
186.267
175.061
1.94409
2.10239
2.26038
2.42948
2.63088
2.87468
3.34715
4.29991
12.3945
67.9841
296.675
237.681
173.968
134.202
112.815
107.466
108.721
108.208
109.519
122.898
138.132
157.11
187.365
210.382
217.286
214.478
207.39
198.14
188.156
173.131
1.94407
2.10198
2.2597
2.43006
2.63228
2.86599
3.3652
4.22098
15.9521
103.716
417.7
385.063
218.327
157.674
117.909
112.128
111.396
110.047
115.441
130.235
149.047
187.954
219.866
226.969
221.307
211.883
201.687
191.32
180.261
164.41
1.94389
2.10132
2.25854
2.42775
2.62515
2.85126
3.31278
4.23619
14.488
88.3403
470.777
1076.17
320.758
189.77
126.387
116.64
113.759
112.412
121.246
137.214
176.5
220.733
230.413
221.701
209.311
197.677
187.083
177.434
167.185
153.173
1.9439
2.10075
2.2573
2.42411
2.61302
2.83368
3.21632
4.02172
8.02626
43.7354
240.698
6411.41
1157.68
643.871
148.572
124.609
117.216
115.346
125.546
153.212
211.139
229.017
218.946
203.174
189.542
178.693
169.527
162.045
154.343
145.072
1.94417
2.10023
2.25467
2.41907
2.60137
2.81334
3.14101
3.75888
6.09827
38.7643
497.96
1270.07
159.558
131.867
121.394
119.27
135.351
190.519
222.992
214.571
196.518
180.26
169.419
161.918
155.904
152.168
149.101
144.987
1.94423
2.09929
2.25153
2.41179
2.58505
2.7847
3.07756
3.57923
4.99207
16.1433
67.5837
1419.89
774.728
445.412
169.776
140
128.314
129.288
162.627
209.883
208.89
189.774
172.843
161.292
157.45
156.01
154.758
153.112
151.191
147.717
1.94403
2.09812
2.24838
2.40299
2.56741
2.7547
3.02498
3.40809
4.26713
8.33848
46.0425
553.993
393.768
295.578
167.788
145.646
138.423
150.919
190.66
198.745
182.844
165.979
157.726
156.91
157.457
157.73
157.337
156.111
154.307
150.69
1.94356
2.09699
2.245
2.39382
2.54907
2.72844
2.95309
3.26076
3.88093
7.86485
52.5588
222.984
194.518
206.556
169.923
148.783
147.597
167.034
180.061
172.184
157.866
154.043
155.558
157.933
159.826
160.78
160.707
159.505
157.461
153.407
1.94314
2.09601
2.24172
2.38517
2.53531
2.71271
2.89317
3.13875
3.64978
5.03627
19.074
108.944
126.442
133.626
142.442
141.261
144.066
153.128
153.151
146.917
148.096
151.967
156.243
159.947
162.742
164.213
164.313
162.96
160.508
155.874
1.94301
2.09517
2.23852
2.37793
2.52513
2.68811
2.83783
3.05103
3.48275
4.30538
8.18139
42.7953
75.0961
86.0629
99.1642
110.075
117.051
123.09
129.075
137.389
145.139
151.26
156.81
161.777
165.621
167.676
167.908
166.28
163.303
158.088
1.94293
2.09434
2.23591
2.37199
2.51526
2.66422
2.80424
2.98171
3.29055
3.99568
5.59649
14.0923
34.6111
50.8292
66.6821
81.8657
95.5884
108.538
122.279
135.601
144.027
150.75
157.296
163.247
167.821
170.645
171.163
169.18
165.583
159.893
1.94291
2.09361
2.23394
2.36724
2.50641
2.64691
2.78232
2.93506
3.15454
3.7295
5.12541
8.5675
17.7175
33.7132
51.6667
69.8275
87.7115
106.979
123.316
134.752
142.304
150.083
158.052
165.043
170.269
173.365
173.786
171.35
167.111
161.047
1.94286
2.09308
2.23245
2.36358
2.50001
2.63598
2.76071
2.90116
3.11323
3.61073
4.79915
7.39399
14.771
32.677
52.8641
69.4391
87.0212
107.832
126.089
131.657
139.831
149.7
159.198
166.994
172.591
175.671
175.408
172.324
167.509
161.282
1.94274
2.09277
2.23182
2.36165
2.49585
2.63137
2.74661
2.86159
3.08188
3.56523
4.69851
6.96093
13.9796
32.7225
58.0279
75.4464
90.1099
105.61
119.936
127.086
138.152
149.898
160.258
168.384
174.017
176.625
175.461
171.733
166.591
160.384
1.77812
1.78017
1.78685
1.79988
1.8238
1.87077
1.96205
2.21111
3.06543
5.29678
9.44331
15.5579
23.5801
32.4667
44.6223
69.4618
95.8773
110.946
120.836
126.732
134.517
143.116
148.484
142.476
119.534
96.6514
93.7104
95.4648
92.8707
91.3296
1.77814
1.78018
1.78695
1.80043
1.82355
1.8681
1.96474
2.22642
3.17312
5.59717
11.0826
19.1265
27.4988
35.4308
46.9538
70.4997
96.6579
111.097
119.677
123.614
129.262
136.099
139.925
134.996
120.836
107.518
103.998
106.108
105.289
103.92
1.77817
1.78026
1.78706
1.80102
1.8252
1.86884
1.96757
2.23138
3.21797
6.6223
17.4146
29.2303
37.442
43.0185
52.2359
73.1185
97.0848
109.217
115.224
117.264
121.727
127.785
131.004
128.262
122.162
118.177
118.321
121.522
123.567
122.676
1.7782
1.78036
1.78727
1.80163
1.82755
1.87321
1.9773
2.28077
3.63923
10.7248
35.6244
52.7428
57.8474
58.343
62.379
78.0338
97.3156
105.883
108.841
109.76
114.623
121.799
127.025
130.344
134.524
138.303
139.704
140.207
140.978
141.272
1.77822
1.78045
1.7876
1.80256
1.82909
1.87947
2.00855
2.42627
4.79456
19.7015
69.8801
88.6739
86.2598
79.0323
75.2491
83.9574
97.4184
102.279
102.608
103.336
109.713
119.418
130.925
144.848
156.126
160.481
159.553
156.26
153.417
148.01
1.77825
1.78054
1.78791
1.80304
1.83026
1.88705
2.0551
2.63362
6.59613
33.4572
125.258
141.415
123.164
101.437
87.1478
88.972
97.1113
99.0411
97.6409
99.4185
108.616
124.825
149.222
169.341
175.943
173.908
168.377
161.371
154.668
143.924
1.77828
1.78061
1.78803
1.80317
1.8314
1.89308
2.09488
2.80171
8.6983
50.8024
218.409
221.697
162.223
118.309
95.0417
92.1408
96.297
96.3931
94.6948
99.4446
113.755
144.907
176.455
185.955
181.359
172.688
163.572
154.606
145.838
133.82
1.77829
1.78063
1.78801
1.80313
1.8312
1.89554
2.10125
2.89575
10.7057
73.6358
271.619
388.123
202.328
132.906
95.796
92.8806
94.9867
94.4616
94.4497
103.726
130.877
174.921
190.688
183.384
170.642
158.906
149.111
140.771
132.895
123.009
1.77828
1.78056
1.78784
1.80291
1.83004
1.89325
2.07079
2.89716
13.1569
126.457
524.299
731.982
439.645
164.471
98.8587
93.7936
94.0434
93.6446
96.7053
113.813
161.747
190.324
182.949
165.848
150.904
139.994
132.155
126.328
121.244
115.332
1.77827
1.78047
1.78754
1.80197
1.8279
1.88337
2.02385
2.65022
8.09677
64.8576
342.498
1415.76
842.024
1406.29
104.785
96.0524
94.3321
94.4176
102.158
135.864
182.5
181.936
161.799
143.324
131.047
123.651
119.283
116.726
114.894
113.122
1.77827
1.78038
1.78714
1.80085
1.82495
1.87225
1.97441
2.326
4.85555
31.5218
144.434
1017.59
110.627
99.8918
96.6849
98.2736
115.94
164.583
179.724
160.044
138.435
124.648
117.721
114.677
113.883
114.191
115.019
115.194
1.77826
1.78026
1.78667
1.79958
1.8217
1.86099
1.94661
2.13693
3.16404
11.9075
47.3986
2650.85
407.064
481.787
116.879
105.634
102.15
108.161
139.994
172.577
160.177
136.523
121.338
114.77
113.103
113.329
114.442
115.991
117.561
118.107
1.77823
1.78013
1.78611
1.79794
1.81802
1.85345
1.92521
2.05957
2.53369
5.86964
27.5241
439.386
345.608
287.166
120.464
111.32
110.83
126.65
159.169
158.237
136.776
120.034
113.908
112.677
113.385
114.837
116.656
118.507
119.953
120.168
1.77821
1.78
1.7856
1.79625
1.81461
1.84627
1.90612
2.01516
2.34852
4.77183
25.3431
85.3114
122.402
183.848
129.867
118.01
122.778
142.475
150.728
135.045
119.404
113.096
112.084
113.222
115.07
117.123
119.144
120.759
121.648
121.173
1.77819
1.77989
1.7852
1.79478
1.81108
1.83805
1.88594
1.9698
2.22449
3.43127
10.4154
44.4991
60.2157
103.967
117.049
119.726
128.559
136.109
127.358
116.095
111.1
110.438
112.008
114.517
117.206
119.662
121.649
122.823
123.018
121.679
1.77818
1.7798
1.7848
1.79362
1.80839
1.83116
1.86477
1.93039
2.13817
2.92908
5.78129
17.3752
32.7088
51.4318
76.7529
96.0197
108.361
110.467
106.809
105.956
106.84
109.056
112.298
115.988
119.525
122.415
124.356
125.1
124.614
122.374
1.77816
1.77971
1.78446
1.7928
1.80643
1.82532
1.85267
1.90382
2.07269
2.72745
4.71201
9.16973
17.3802
30.1841
48.5893
66.8903
81.3761
89.8101
96.3724
101.114
104.709
108.599
113.229
117.965
122.189
125.44
127.358
127.723
126.629
123.58
1.77813
1.77962
1.78421
1.79214
1.80485
1.8214
1.84644
1.89379
2.0227
2.61512
4.43314
7.82911
13.7797
24.1568
37.3101
53.3621
69.6194
83.1625
93.1802
99.1414
103.652
108.949
114.975
120.778
125.563
128.972
130.675
130.524
128.782
125.041
1.77811
1.77956
1.78404
1.79163
1.80376
1.81923
1.84191
1.88761
2.00389
2.48425
4.1284
7.31492
13.6286
24.6063
37.0469
52.5778
69.7775
85.6324
92.7797
97.6567
103.23
110.233
117.567
124.115
129.191
132.445
133.648
132.821
130.336
126.001
1.77801
1.77935
1.7837
1.79108
1.8029
1.81753
1.83766
1.87761
1.99068
2.40586
3.66646
6.55594
12.8733
27.2059
45.6939
61.8011
76.3943
87.5552
91.6062
96.7394
103.818
112.117
120.131
126.843
131.744
134.44
134.881
133.266
130.087
125.311
1.77449
1.76931
1.765
1.76331
1.76815
1.78727
1.88295
2.44595
4.17285
7.44911
11.8686
17.7923
25.7769
33.8082
47.6324
81.3169
109.974
122.998
139.118
150.201
149.968
149.286
144.261
127.086
106.377
96.6959
95.4942
91.8376
86.163
82.5724
1.77451
1.76937
1.76517
1.76329
1.76759
1.79045
1.89664
2.49718
4.3866
7.93873
13.0437
20.492
28.7815
36.4869
49.4973
81.0062
110.663
122.807
136.509
144.189
142.405
140.876
137.924
127.694
114.282
107.86
107.572
106.386
100.289
94.9037
1.77453
1.76941
1.76527
1.76327
1.76689
1.78787
1.87344
2.34651
4.10445
8.25789
16.2696
27.1898
36.14
42.49
53.7502
81.8847
110.067
120.396
130.556
133.375
129.749
127.723
125.683
121.426
117.57
116.967
119.183
121.597
119.088
115.093
1.77456
1.76945
1.76529
1.76368
1.76804
1.78678
1.86143
2.23801
3.97244
9.9235
27.8379
44.7221
52.0367
54.283
61.3198
84.0223
107.716
115.227
121.037
120.125
116.721
116.662
119.284
124.222
129.284
132.264
133.41
134.079
133.569
131.617
1.77458
1.76952
1.7655
1.76456
1.76967
1.79032
1.87249
2.26702
4.50536
15.1862
56.9571
80.1975
79.6148
72.0699
70.9303
86.3999
104.134
108.438
110.303
107.754
106.622
111.165
123.453
137.996
146.35
147.749
145.649
142.313
139.154
132.806
1.77461
1.7696
1.76577
1.765
1.76993
1.79492
1.89166
2.36747
5.49607
24.7563
117.444
140.941
116.151
91.0619
79.5026
87.8568
99.9678
101.706
100.931
98.4203
101.075
115.872
140.71
156.034
157.763
153.397
147.374
140.855
134.632
125.235
1.77463
1.76966
1.76587
1.7649
1.76987
1.79896
1.90371
2.47713
6.62151
38.3373
226.056
214.83
145.452
102.692
84.3287
87.84
95.6612
96.0019
94.0628
93.4725
103.372
134.726
160.404
163.432
155.82
146.622
138.265
130.775
123.895
115.49
1.77464
1.7697
1.76587
1.76475
1.76995
1.80146
1.90171
2.54626
7.97008
57.5042
241.819
342.729
174.228
113.63
84.7859
86.6566
91.5863
91.6186
90.2194
94.1755
119.488
157.472
165.614
155.117
142.055
131.499
123.668
117.853
113.276
108.443
1.77464
1.76968
1.7658
1.76472
1.77005
1.80072
1.88395
2.58222
10.7183
108.887
607.94
530.384
218.276
128.214
86.5638
85.9843
88.4863
88.8881
89.8594
103.274
144.83
164.607
154.153
137.243
123.937
115.415
110.445
107.937
107.059
106.55
1.77463
1.76963
1.7656
1.76441
1.76951
1.79431
1.86277
2.37046
9.31425
89.4234
927.589
1286.71
741.264
486.754
90.5573
86.8585
87.1421
88.3728
94.3171
122.767
157.851
154.093
135.05
118.787
109.06
104.445
103.165
104.213
106.866
109.92
1.77462
1.76958
1.7654
1.76379
1.76805
1.78507
1.83928
2.072
4.69106
33.9925
327.417
7241.35
1076.48
428.498
96.043
89.9054
88.4497
91.3684
106.562
142.795
153.228
136.125
117.425
106.038
101.103
100.314
102.22
106.103
111.127
115.846
1.7746
1.76952
1.76525
1.76309
1.76582
1.77837
1.81724
1.94637
2.90571
11.6727
61.1205
986.518
344.305
280.454
101.171
94.6866
92.8938
99.7278
124.277
147.602
138.477
119.437
106.209
100.508
99.432
101.12
104.87
110.193
115.913
120.804
1.77458
1.76945
1.76505
1.76231
1.76354
1.77531
1.8089
1.89467
2.45079
5.87501
15.7645
92.674
217.889
202.761
103.428
98.8474
100.16
113.443
136.415
138.104
122.636
108.362
101.472
99.5861
100.552
103.5
108.036
113.549
118.674
122.818
1.77458
1.7694
1.76482
1.76163
1.76146
1.77147
1.80502
1.88405
2.30309
4.52171
13.4757
38.3326
79.7695
132.623
108.212
103.656
109.726
125.049
133.123
123.864
110.824
102.694
99.8532
100.207
102.39
105.911
110.386
115.106
118.961
121.858
1.77457
1.76937
1.76466
1.76103
1.75941
1.76425
1.79203
1.8753
2.21548
3.7554
8.42946
20.7662
38.3485
72.9062
91.6487
103.878
115.776
124.198
121.728
111.726
103.4
99.6077
99.4106
101.267
104.262
107.928
111.849
115.36
117.788
119.158
1.77456
1.76933
1.76455
1.76066
1.75817
1.75883
1.77347
1.84322
2.17331
3.51811
6.88778
12.7274
22.7738
41.1329
64.022
87.5745
105.001
110.989
107.894
101.872
98.2021
97.6607
99.4467
102.518
106.125
109.802
113.064
115.441
116.619
116.501
1.77454
1.76928
1.76444
1.76045
1.75759
1.75664
1.76523
1.81801
2.1453
3.44094
6.47465
11.0403
17.6641
29.7308
45.7776
65.3305
83.5584
93.0949
94.8569
94.4372
94.8517
96.8706
100.236
104.275
108.352
111.97
114.735
116.306
116.59
115.304
1.77452
1.76924
1.76435
1.76024
1.7572
1.75557
1.76294
1.81095
2.11189
3.33369
6.17268
10.3972
16.3909
25.9408
37.4754
52.0561
67.8004
80.3087
86.8839
90.3679
93.4584
97.3486
102.006
106.849
111.295
114.879
117.303
118.344
118.005
115.871
1.7745
1.76919
1.76425
1.76004
1.75685
1.75482
1.76082
1.80499
2.04535
3.05448
5.57559
9.81662
15.8209
25.191
35.759
49.2626
63.9946
76.0768
83.2851
88.6398
93.6308
99.1008
104.855
110.316
114.97
118.446
120.513
121.042
120.081
117.211
1.7744
1.76901
1.76399
1.75975
1.75646
1.75418
1.75964
1.79822
1.97791
2.7856
4.85569
9.18894
14.9211
26.2169
41.0501
55.6809
68.7671
77.9929
83.241
88.7976
94.7317
101.176
107.599
113.353
117.965
121.137
122.687
122.498
120.754
117.177
1.77443
1.76904
1.76418
1.76131
1.76438
1.79028
1.98673
2.90686
5.393
9.80847
15.4492
21.9766
29.3624
36.6868
53.522
95.6
113.362
111.818
128.558
145.133
144.214
136.8
123.88
108.381
97.3066
91.9044
87.6192
82.1324
76.8928
73.8097
1.77445
1.76909
1.76431
1.76104
1.76415
1.79514
2.01138
3.01346
5.69951
10.2711
16.2067
23.452
31.2374
38.6555
54.1731
94.1496
114.768
111.846
126.532
141.609
140.92
136.541
129.81
119.978
111.856
108.768
105.726
100.171
92.5608
89.9421
1.77447
1.76911
1.76434
1.76091
1.76305
1.78896
1.9508
2.79077
5.36846
10.3282
17.8159
27.7832
36.2144
42.9454
56.8218
93.2475
114.693
111.294
123.325
134.028
130.425
125.964
121.116
117.197
115.81
117.117
118.327
116.898
111.437
108.99
1.77449
1.76912
1.76436
1.76142
1.7636
1.78323
1.89117
2.54366
4.9458
10.8043
23.5658
38.5423
46.5892
51.0257
61.7069
92.7009
112.035
109.073
117.39
121.563
116.586
113.359
114.413
119.161
123.603
126.281
127.392
127.062
124.34
120.487
1.77451
1.76918
1.76456
1.76234
1.765
1.78271
1.8774
2.47263
5.04055
13.2201
39.2743
60.1371
63.6535
62.2718
67.6105
91.7474
107.197
104.23
108.303
108.076
104.527
106.311
117.713
130.158
136.136
136.553
134.337
130.841
126.772
119.618
1.77453
1.76925
1.76478
1.76272
1.76509
1.78348
1.88094
2.48324
5.51372
18.2354
69.5416
94.4544
86.3213
74.1621
72.8482
89.9617
101.261
98.0112
98.8024
97.1947
97.2143
110.154
131.686
143.076
143.05
138.444
132.703
126.571
120.668
112.841
1.77455
1.76931
1.76484
1.76258
1.76474
1.78455
1.88422
2.49274
6.10011
25.5514
114.353
144.787
110.556
84.0346
76.3625
87.4489
95.2177
92.3059
91.5548
90.7612
98.1256
125.385
145.513
146.228
138.663
130.227
122.836
116.549
111.391
106.223
1.77456
1.76932
1.76482
1.76243
1.76467
1.78446
1.87688
2.48245
6.76944
35.62
167.221
206.235
129.338
90.3589
78.6492
84.8443
89.8197
87.9837
87.8628
90.4533
111.197
141.733
147.066
137.27
125.637
116.574
110.283
106.376
104.587
103.833
1.77456
1.76931
1.76476
1.7624
1.76455
1.78299
1.8604
2.45731
8.02301
57.737
279.03
365.245
164.054
102.556
80.8843
83.1973
85.6899
85.3878
87.7469
98.1903
130.181
145.614
136.675
122.185
110.788
103.892
100.752
100.677
103.362
107.324
1.77455
1.76926
1.76462
1.76217
1.76385
1.77984
1.84352
2.26716
6.98175
46.6033
356.772
454.95
180.473
110.071
85.6326
83.6417
83.7026
84.9566
91.5066
113.108
139.135
136.976
121.92
108.219
99.9262
96.6669
97.2809
101.201
108.054
115.558
1.77454
1.76921
1.76442
1.76151
1.76249
1.77469
1.82609
2.0721
4.13553
19.1837
110.72
448.002
203.391
118.416
91.8369
86.7321
84.7311
87.5339
100.72
126.555
135.593
124.123
109.391
99.3963
95.0506
95.2371
99.0737
106.241
115.606
124.245
1.77452
1.76918
1.76429
1.76066
1.76045
1.77007
1.80731
1.97863
3.13688
9.23041
27.7382
147.731
194.774
124.34
95.9847
91.1415
88.6741
94.2674
112.865
129.759
125.88
112.781
101.642
95.9152
94.783
97.3615
103.395
112.298
121.678
130.341
1.77451
1.76913
1.76416
1.76005
1.75866
1.76741
1.80008
1.9266
2.78573
6.56811
17.283
45.8997
97.2386
111.081
93.0348
92.918
94.1803
104.066
120.604
124.66
115.779
104.928
97.907
95.4553
96.5124
100.637
107.688
116.527
124.858
133.769
1.7745
1.76907
1.76398
1.75965
1.75713
1.76365
1.79919
1.90644
2.60952
5.32197
12.0136
25.8173
52.2656
90.4454
87.0669
92.8417
100.222
112.255
120.378
117.109
108.03
100.072
96.3516
96.2746
98.8594
103.79
110.721
118.601
125.75
133.818
1.77448
1.76902
1.76381
1.75923
1.75559
1.75742
1.78967
1.90402
2.50395
4.73365
9.73367
17.7912
30.8839
54.951
72.6154
90.1427
104.359
113.883
115.647
110.014
101.861
96.8429
95.821
97.5608
101.173
106.303
112.469
118.751
123.909
129.106
1.77447
1.76898
1.7637
1.75899
1.75472
1.75311
1.77107
1.8841
2.44999
4.46954
8.77943
14.9332
23.2333
37.6017
55.6686
79.0463
98.7487
107.746
107.504
101.731
96.4446
94.7343
96.0067
99.0884
103.261
108.1
112.991
117.133
119.884
121.884
1.77445
1.76894
1.76361
1.7588
1.75435
1.7518
1.76294
1.86208
2.42302
4.33031
8.27132
13.7146
20.5482
31.2123
44.767
64.2014
84.3162
94.9617
96.257
93.8798
92.8344
94.0182
96.9253
100.829
105.14
109.358
112.918
115.261
116.238
116.032
1.77443
1.76889
1.7635
1.75857
1.75405
1.75118
1.76134
1.85308
2.39549
4.19464
7.86524
13.0246
19.4099
28.5023
39.1211
53.5496
69.8947
82.192
87.3685
89.4333
91.6419
94.7766
98.7323
103.066
107.269
110.863
113.438
114.716
114.741
113.38
1.77442
1.76885
1.76342
1.75843
1.75385
1.75051
1.75989
1.84153
2.2977
3.84678
7.25915
12.4494
18.8205
27.7746
37.8753
50.288
63.3629
74.3998
82.4313
87.8831
92.3758
96.9125
101.641
106.235
110.268
113.389
115.378
116.104
115.643
113.609
1.77431
1.76866
1.76315
1.75815
1.75343
1.74995
1.75864
1.82452
2.17361
3.4088
6.36449
11.6113
17.9199
27.5718
40.2213
53.198
64.6127
73.2117
81.3826
88.0107
93.4743
98.8624
104.176
108.992
112.918
115.727
117.318
117.572
116.57
113.852
1.77445
1.76906
1.76414
1.76144
1.76721
1.81734
2.15967
3.51128
6.78385
12.1735
18.6971
25.7607
32.3961
39.3645
59.4448
102.78
100.029
91.0139
99.7742
110.606
114.355
108.355
99.534
92.016
86.6453
82.1439
77.5724
73.6725
71.7928
74.0283
1.77447
1.76912
1.76423
1.76111
1.76747
1.82434
2.20073
3.69115
7.18074
12.6303
19.0798
26.1664
33.2918
40.5845
58.8127
101.257
102.982
93.3651
102.668
115.455
121.55
120.359
117.193
112.426
108.292
104.159
98.2531
92.1964
87.2342
88.6045
1.77448
1.76914
1.76428
1.76083
1.76531
1.80977
2.1081
3.43575
6.85676
12.5406
19.8181
28.419
36.0276
43.2672
59.8735
99.8878
104.722
95.2773
104.976
117.787
122.285
121.147
117.964
115.709
115.783
116.072
113.853
109.739
104.401
102.893
1.7745
1.76915
1.76437
1.7612
1.76418
1.79357
1.99928
3.07021
6.27176
12.4314
22.1623
33.839
41.5453
48.0905
62.6325
98.4364
104.13
94.9724
103.575
113.531
113.965
111.019
111.664
115.734
119.287
121.335
121.351
119.284
115.199
110.136
1.77452
1.7692
1.76459
1.76197
1.7643
1.78621
1.949
2.89801
6.06466
13.2765
28.9288
43.8528
49.9867
54.448
66.061
96.1041
101.391
92.3879
98.4698
104.358
102.588
103.562
113.362
123.059
127.33
127.333
124.954
120.965
116.12
108.968
1.77454
1.76927
1.76477
1.76227
1.76401
1.78362
1.93206
2.83486
6.14595
15.2342
41.3089
57.4826
60.2925
61.076
69.1587
92.7033
97.1372
88.7292
91.9072
95.0105
95.3463
106.453
123.819
132.283
131.7
127.381
121.872
115.945
110.465
104.343
1.77456
1.76931
1.76479
1.76214
1.76353
1.78268
1.91917
2.75688
6.27217
18.0271
57.719
71.1366
70.8113
67.3109
71.6196
88.6215
92.2493
85.2331
86.5688
89.6522
96.1144
118.071
133.552
133.598
126.897
119.38
112.685
107.29
103.728
101.142
1.77457
1.76932
1.76476
1.76199
1.76297
1.7807
1.90096
2.63305
6.39021
21.5672
73.0522
89.8868
83.3163
73.9591
74.0358
84.8983
87.5721
82.7394
84.6628
90.1093
106.315
129.357
133.656
125.603
115.638
107.727
102.395
99.8026
100.347
102.336
1.77457
1.76931
1.76471
1.76188
1.76232
1.77781
1.87996
2.49526
6.51519
27.1219
74.8503
111.542
96.0605
81.4677
77.3022
82.5717
83.8057
81.5633
86.233
96.8029
119.707
131.604
125.262
113.488
103.675
97.6475
95.404
96.7917
102.245
108.369
1.77456
1.76927
1.76459
1.76155
1.76154
1.77493
1.85424
2.3272
5.457
22.6532
67.1565
129.75
103.39
87.3039
81.6712
82.4063
81.9318
81.9601
90.3598
107.503
125.743
125.416
114.297
102.922
95.3407
92.3278
93.548
98.8532
108.302
114.977
1.77455
1.76922
1.76437
1.76092
1.76046
1.77176
1.83213
2.18998
4.1724
12.6118
40.0253
106.963
95.546
86.7559
86.2488
84.7336
82.7741
84.5787
97.0448
115.747
123.342
116.455
105.264
96.3545
91.7243
91.5588
95.6489
103.42
112.616
116.823
1.77454
1.76918
1.76416
1.76017
1.75899
1.76798
1.814
2.09497
3.62674
8.87614
22.3379
56.55
74.6941
81.3215
86.7006
87.7117
85.9117
89.8267
104.831
117.689
117.01
108.454
99.4576
93.5663
91.6132
93.5194
99.1175
106.407
112.571
117.586
1.77452
1.76914
1.76404
1.75969
1.75772
1.7648
1.80223
2.02532
3.2752
7.23841
15.2406
30.8861
53.0368
73.7676
80.0669
87.1433
89.3321
96.4597
109.749
115.02
110.415
102.709
96.3613
93.2454
93.3738
96.4817
101.978
107.678
113.171
122.565
1.7745
1.76908
1.76393
1.75941
1.75653
1.76111
1.79673
1.98301
3.04292
6.36305
12.494
21.3114
35.9837
61.7597
72.0661
83.584
92.088
102.396
110.808
110.999
105.327
98.9051
95.0315
94.2831
96.0941
99.9521
105.314
111.187
118.354
132.509
1.77448
1.76901
1.76379
1.75909
1.75538
1.75716
1.78973
1.96274
2.89217
5.83198
11.2812
18.3169
27.9851
44.5816
61.753
79.0681
93.9401
104.72
109.04
106.477
100.54
95.9955
94.788
96.2951
99.7194
104.677
110.787
117.788
125.7
138.443
1.77447
1.76897
1.76368
1.75886
1.75454
1.75408
1.77749
1.95013
2.80696
5.48653
10.496
17.0568
25.1163
36.7844
51.8364
71.6769
90.1529
101.041
103.373
99.988
95.7801
94.3703
95.81
99.1643
103.882
109.626
115.844
121.847
126.976
133.054
1.77445
1.76892
1.76356
1.75865
1.75418
1.75265
1.77228
1.94353
2.77125
5.27192
9.90369
16.091
23.4757
33.1913
45.2813
62.515
80.5549
91.8302
94.7721
93.7254
93.0369
94.4604
97.6221
101.934
106.936
112.133
116.804
120.131
121.903
122.892
1.77443
1.76887
1.76345
1.75845
1.75392
1.75212
1.77138
1.93796
2.74108
5.0903
9.45996
15.4442
22.4949
31.2952
41.5916
55.5346
71.1903
82.9485
88.2929
90.5636
92.7588
95.8581
99.8083
104.258
108.73
112.667
115.485
116.777
116.684
115.483
1.7744
1.76881
1.76333
1.75827
1.75361
1.7513
1.76918
1.91342
2.60327
4.69686
8.88228
14.9497
22.1
30.8112
40.8848
52.9076
65.2918
76.6252
84.8603
90.1124
94.3034
98.4982
102.872
107.128
110.847
113.642
115.251
115.577
114.837
112.905
1.77431
1.76864
1.76311
1.75805
1.75318
1.75064
1.76666
1.87584
2.41793
4.13673
7.95526
14.0786
21.3766
30.3509
41.4776
53.0578
63.2648
72.7573
83.2941
90.2919
95.5178
100.52
105.344
109.59
112.913
115.128
116.188
116.09
115.012
112.568
1.77446
1.76907
1.76427
1.76273
1.77449
1.87052
2.43118
4.33487
8.4367
14.6728
21.8303
28.915
34.8128
41.6687
62.7055
98.5408
88.327
76.3697
76.4359
80.3216
84.1617
84.0673
81.5255
79.3756
76.8478
73.748
70.9963
69.9178
71.762
76.9764
1.77448
1.76913
1.7643
1.76224
1.77522
1.88378
2.50493
4.59401
8.89635
15.1141
21.8343
28.5348
35.0621
42.3144
61.3774
97.6269
92.7153
81.039
82.3814
89.2855
97.7267
101.948
104.093
103.694
100.858
95.9713
90.2655
86.1686
84.6672
87.3534
1.77449
1.76916
1.76431
1.76148
1.77075
1.85494
2.38951
4.3644
8.63374
14.9401
21.9204
29.1912
36.1821
43.7827
61.4644
96.7293
95.7658
85.0489
88.4088
98.2077
108.536
113.549
114.966
114.717
114.255
111.798
107.205
102.548
98.5791
96.7055
1.77451
1.76918
1.76437