/*--------------------------------*- C++ -*----------------------------------*\
| =========                 |                                                 |
| \\      /  F ield         | OpenFOAM: The Open Source CFD Toolbox           |
|  \\    /   O peration     | Version:  2512                                  |
|   \\  /    A nd           | Website:  www.openfoam.com                      |
|    \\/     M anipulation  |                                                 |
\*---------------------------------------------------------------------------*/
FoamFile
{
    version     2.0;
    format      ascii;
    arch        "LSB;label=32;scalar=64";
    class       volScalarField;
    location    "60";
    object      p;
}
// * * * * * * * * * * * * * * * * * * * * * * * * * * * * * * * * * * * * * //

dimensions      [0 2 -2 0 0 0 0];

internalField   nonuniform List<scalar> 
90398
(
-1070.44
-1060.96
-1056.98
-1082.99
-1244.29
-1563.39
-1728.16
-1518.16
-1024.43
-566.543
-661.149
-1321.98
-1819.51
-1790.12
-1520.54
-1214.43
-949.061
-739.465
-579.196
-456.226
-361.288
-289.592
-238.294
-203.141
-176.344
-150.005
-121.949
-90.8463
-46.0554
3.91069
-1070.37
-1057.4
-1049.57
-1075.64
-1249.09
-1579.75
-1745.76
-1545.68
-1088.95
-661.177
-763.694
-1422.81
-1954.73
-1944.14
-1663.85
-1338.73
-1054.32
-828.138
-653.546
-518.138
-412.238
-330.277
-269.222
-225.264
-191.605
-160.872
-130.431
-99.2951
-57.384
-7.17157
-1070.39
-1050.59
-1031.92
-1056.32
-1258.3
-1615.3
-1779.46
-1590.34
-1189.2
-810.061
-901.045
-1549.14
-2152.41
-2208.77
-1935.24
-1587.55
-1271.5
-1013.5
-809.648
-648.074
-519.066
-415.756
-334.588
-272.259
-223.548
-182.062
-143.829
-107.734
-65.0555
-13.5784
-1071.59
-1043.55
-1013.96
-1050.88
-1299.59
-1665.97
-1797.32
-1615.86
-1293.42
-978.581
-1020.86
-1629.38
-2313.49
-2503.55
-2288.72
-1942.07
-1597.61
-1299.83
-1054.33
-853.217
-687.99
-551.035
-437.894
-345.684
-271.265
-210.106
-157.522
-111.058
-61.5828
-8.04157
-1075.48
-1039.28
-1006.26
-1074.95
-1367.79
-1707.5
-1781.04
-1610.96
-1388.98
-1154.79
-1115.88
-1626.65
-2343.05
-2710.18
-2634.57
-2341.81
-1994
-1662.47
-1371.25
-1122.87
-912.925
-734.5
-582.107
-452.397
-343.313
-252.42
-176.305
-112.411
-50.4534
5.9169
-1083.75
-1039.7
-1007.33
-1111.98
-1418.2
-1702.01
-1720.24
-1592.31
-1491.58
-1343.03
-1203.9
-1561.72
-2210.96
-2731.94
-2860.76
-2694.55
-2390.83
-2049.01
-1720.69
-1425.65
-1168.83
-946.45
-753.136
-584.445
-438.043
-312.774
-206.798
-119.337
-41.6512
20.7963
-1097.23
-1045.73
-1009.92
-1140.15
-1436.8
-1648.82
-1616.42
-1563.28
-1603.36
-1515.74
-1259.83
-1508.86
-2001.19
-2559.18
-2860.12
-2889.86
-2696.24
-2387.79
-2047.11
-1718.22
-1420.78
-1158.38
-927.582
-723.54
-543.116
-385.194
-248.421
-134.787
-40.6724
33.4109
-1116.8
-1058.46
-1012.51
-1151.23
-1443.37
-1592.16
-1481.77
-1489.5
-1722.22
-1620.98
-1212.79
-1552.62
-1825.39
-2231.05
-2665.49
-2841.98
-2811.23
-2595.67
-2288.02
-1953.86
-1633.21
-1341.97
-1082.13
-850.25
-642.716
-457.727
-294.03
-155.914
-46.0905
40.5692
-1144.67
-1084.14
-1023.75
-1139.76
-1412.5
-1541.56
-1389.99
-1340.76
-1594.34
-1896.92
-1402.06
-1954.61
-2060.82
-2259.83
-2339.56
-2579.35
-2695.03
-2608.14
-2383.11
-2086.52
-1773.47
-1473.65
-1198.58
-949.094
-722.926
-518.137
-333.931
-175.803
-50.57
44.4787
-1182.17
-1127.85
-1057.56
-1133.46
-1391.06
-1557.25
-1400.05
-1234.89
-1256.8
-1493.45
-2316.79
-1814.96
-2113.74
-2328.18
-2026.47
-2199.73
-2399.57
-2438.96
-2320.6
-2093.72
-1818.62
-1534.93
-1263.09
-1009.42
-775.085
-559.856
-363.372
-189.752
-46.2082
51.643
-1228.06
-1186.74
-1117.13
-1135.98
-1346.29
-1559.98
-1523.31
-1417.08
-1324.3
-1597.47
-1169.04
-1559.36
-2273.47
-1772.65
-1814.61
-2026.99
-2161.07
-2148.83
-2005.06
-1784.17
-1531.52
-1276.38
-1031.78
-802.025
-587.254
-385.663
-197.683
-31.0703
65.8602
-1279.57
-1253.27
-1206.01
-1187.3
-1320.54
-1546.31
-1636.32
-1596.43
-1489.5
-1264.29
-1594.26
-864.428
-1754.04
-2035.41
-1613.22
-1527.31
-1686.79
-1863.97
-1935.57
-1870.53
-1707.65
-1493.16
-1263.03
-1036.24
-818.603
-608.703
-403.663
-204.024
-22.8133
73.1723
-1333.23
-1319.24
-1311.37
-1309.63
-1377.58
-1540.76
-1662.54
-1632.32
-1515.14
-1213.29
-1232.92
-1139.7
-1381.15
-1840.26
-1592.48
-1418.43
-1473.83
-1629.53
-1742.47
-1733.77
-1620.39
-1444.92
-1244.51
-1038.96
-833.372
-627.293
-421.973
-222.028
-40.4535
62.366
-1384.63
-1378.52
-1403.43
-1458.5
-1524.7
-1622.16
-1685.19
-1632.41
-1485.03
-1183.49
-877.647
-849.916
-1243.03
-1678.51
-1619.33
-1442.79
-1407.74
-1490.99
-1603.32
-1622.6
-1543.66
-1401.07
-1227.45
-1039.28
-841.956
-640.482
-441.396
-250.968
-74.7997
44.2239
-1429.33
-1429.39
-1466.89
-1564.89
-1672.56
-1752.98
-1744.8
-1613.23
-1423.74
-1174.28
-887.675
-808.198
-1115.66
-1515.77
-1527.58
-1405.95
-1371.54
-1426.26
-1519.41
-1544.84
-1483.4
-1360.22
-1202.74
-1026.15
-838.301
-646.227
-458.74
-281.665
-109.324
29.4802
-1464.73
-1470.97
-1510.37
-1609.43
-1733.19
-1809.99
-1744.18
-1536
-1320.1
-1128.05
-936.546
-873.353
-1036.77
-1333.7
-1291.56
-1177.58
-1225.42
-1337.93
-1441.5
-1472.52
-1420.64
-1308.93
-1163.12
-999.149
-824.535
-645.159
-471.586
-307.257
-133.117
25.8332
-1490.61
-1502.33
-1544.94
-1622.2
-1718.44
-1768.64
-1653.32
-1404.72
-1211.81
-1064.09
-883.654
-818.647
-932.8
-1110.4
-1059.68
-931.035
-987.311
-1174.66
-1333.97
-1391.9
-1357.26
-1260.23
-1127.63
-975.389
-810.216
-638.797
-474.837
-318.973
-140.428
32.8788
-1508.1
-1523.66
-1571.26
-1634.15
-1698.26
-1707.32
-1540.2
-1272.23
-1124.23
-1018.7
-814.707
-680.951
-728.669
-861.436
-938.766
-909.453
-927.302
-1079.44
-1261.27
-1340.81
-1319.41
-1232.38
-1108.48
-963.868
-805.07
-639.355
-482.421
-333.928
-154.308
30.4196
-1518.78
-1536.85
-1588.71
-1649.52
-1701.8
-1677.51
-1463.07
-1192.96
-1099.63
-1001.93
-741.891
-527.35
-511.802
-635.503
-768.871
-878.789
-995.993
-1144.69
-1295.11
-1354.2
-1326.01
-1239.38
-1119.1
-978.757
-823.111
-658.176
-500.723
-352.855
-169.578
28.8763
-1523.74
-1543.05
-1596.84
-1657.84
-1709.49
-1662.7
-1411.83
-1147.46
-1064.2
-971.828
-705.597
-483.601
-425.306
-537.599
-737.859
-903.085
-1065
-1216.23
-1332.89
-1369.47
-1330.79
-1239.21
-1116.25
-975.018
-819.326
-653.615
-494.842
-347.34
-163.282
41.3892
-1074.24
-1068.22
-1076.2
-1140.75
-1381.96
-1741.83
-1894.34
-1631.37
-1028.64
-587.337
-797.107
-1759.19
-2212.87
-2154.1
-1851.51
-1502.2
-1192.64
-942.828
-746.359
-592.38
-469.872
-372.056
-295.52
-237.367
-191.97
-152.075
-114.509
-80.3974
-41.3328
3.40042
-1075.23
-1064.64
-1073.83
-1152.31
-1401.51
-1759.19
-1903.73
-1648.29
-1094.48
-682.164
-904.096
-1866.18
-2358.87
-2317.06
-2008.4
-1640.7
-1311.07
-1043.37
-832.031
-665.914
-533.818
-427.956
-343.823
-277.931
-225.3
-179.942
-138.18
-99.9577
-59.1895
-14.1907
-1076.92
-1058.81
-1069.45
-1167.56
-1437.39
-1802.43
-1933.28
-1678.68
-1187.22
-813.498
-1019.16
-1988.12
-2562.87
-2580.38
-2288.23
-1903.3
-1543.8
-1243.58
-1002.02
-809.852
-655.71
-530.602
-428.485
-345.196
-277.416
-220.515
-170.553
-125.816
-79.8024
-30.2353
-1079.57
-1054.36
-1074.48
-1199.64
-1497.14
-1851.07
-1934.21
-1676.14
-1280.31
-959.357
-1107.96
-2054.23
-2738.56
-2865.78
-2637.7
-2263.06
-1880.52
-1541.83
-1257.92
-1026.03
-836.67
-680.353
-549.343
-439.159
-347.178
-269.923
-203.994
-147.584
-91.7777
-35.5031
-1084.31
-1053.61
-1088.84
-1248.71
-1578.9
-1890.95
-1888.61
-1634.45
-1366.96
-1104.82
-1154.17
-2009.04
-2797.23
-3086.28
-2974.23
-2659.35
-2280.19
-1911.28
-1581.75
-1301.35
-1067.07
-870.684
-703.245
-559.551
-436.171
-330.82
-241.007
-166.229
-96.0514
-30.3193
-1093.05
-1056.16
-1097.94
-1286.53
-1626.41
-1874.01
-1799.25
-1591.99
-1470.46
-1267.67
-1193
-1850.43
-2679.34
-3168.63
-3216.21
-3009.23
-2675.65
-2298.39
-1932.42
-1604.28
-1322.17
-1081.28
-874.858
-695.513
-538.323
-401.377
-283.16
-185.368
-98.6713
-20.3861
-1107.11
-1063.51
-1097.67
-1301.8
-1622.56
-1796.54
-1691.55
-1589.27
-1628.6
-1465.49
-1255.17
-1641.13
-2388.64
-3065.13
-3293.92
-3231.87
-2984.95
-2635.24
-2254.86
-1891.32
-1566.95
-1286.07
-1043.01
-829.798
-640.94
-474.079
-327.769
-206.097
-103.925
-11.9288
-1127.27
-1078.21
-1097.05
-1305.59
-1622.05
-1726.75
-1567.83
-1623.47
-1844.63
-1715.34
-1281.01
-1468.61
-1935.12
-2656.33
-3185.83
-3258.05
-3137.73
-2853.56
-2492.81
-2118.2
-1769.16
-1458.74
-1186.03
-945.244
-730.495
-538.833
-368.217
-224.515
-109.008
-5.27449
-1155.89
-1106.72
-1109.19
-1291.96
-1581.36
-1649.89
-1484.62
-1573.88
-1882.75
-1770.62
-1833.92
-1815.92
-1823.3
-2276.54
-2792.63
-3026.68
-3074.07
-2903.53
-2604.5
-2252.27
-1902.53
-1579.32
-1289.12
-1029.83
-796.656
-586.613
-397.453
-235.414
-107.594
2.933
-1194.15
-1151.33
-1150.75
-1302.83
-1594.54
-1709.74
-1482.84
-1389.95
-1475.43
-1801.85
-3240.21
-1226.17
-1790.96
-1692.73
-2274.66
-2578.96
-2778.71
-2755.77
-2564.11
-2274.06
-1953.03
-1637.73
-1344.53
-1077.49
-834.682
-614.083
-414.013
-238.98
-96.4946
16.663
-1240.47
-1208.38
-1214.42
-1322.34
-1580.96
-1772.42
-1662.88
-1579.49
-1549.16
-1965.83
-1524.54
-1854.1
-2066.44
-2338.06
-2447.73
-2379.81
-2179.43
-1914.32
-1630.29
-1352.83
-1092.11
-850.415
-628.201
-423.937
-237.212
-71.8173
38.2394
-1291.86
-1272.15
-1298.68
-1381.52
-1571.87
-1788.89
-1831.66
-1792.79
-1669.46
-1563.79
-2065.05
-1255.27
-976.904
-1792.09
-1638.8
-1655.81
-1892.92
-2078.69
-2116.21
-2008.18
-1811.54
-1574.35
-1328.02
-1087.26
-856.747
-638.582
-430.855
-229.61
-40.5477
60.5645
-1344.55
-1334.34
-1387.27
-1489
-1630.07
-1800.46
-1877.6
-1818.71
-1683.24
-1312.75
-1507.06
-1269.77
-1211.6
-1751.87
-1598.58
-1477.88
-1579.78
-1762.3
-1861.23
-1826.41
-1694.34
-1508.22
-1297.37
-1078.58
-859.069
-645.041
-436.778
-232.948
-43.3437
58.1792
-1393.88
-1388.25
-1454.66
-1590.74
-1733.79
-1859.6
-1895.58
-1800.67
-1610.22
-1231.7
-919.19
-838.331
-1141.56
-1554.42
-1602.11
-1474.73
-1459.49
-1569.53
-1682.03
-1690.83
-1604.38
-1454.87
-1269.04
-1064.49
-854.693
-648.726
-448.599
-256.429
-76.9868
40.6408
-1435.92
-1433.2
-1497.8
-1647.35
-1814.1
-1933.82
-1920.67
-1754.82
-1520.62
-1181.26
-833.769
-750.401
-1040.38
-1421.02
-1531.23
-1442.74
-1420.62
-1494.54
-1591.38
-1610.41
-1541.36
-1406.35
-1231.66
-1038.82
-843.761
-651.774
-464.978
-287.968
-115.416
23.352
-1468.51
-1471.31
-1529.32
-1660.24
-1827.22
-1950.33
-1896.78
-1656.03
-1392.96
-1131.99
-868.655
-795.554
-960.875
-1238.56
-1317.29
-1264.33
-1322.86
-1431.48
-1523.74
-1539.82
-1474.2
-1348.33
-1187.28
-1011.18
-831.247
-651.992
-479.404
-316.622
-145.337
15.5503
-1491.9
-1501.64
-1556.66
-1654.37
-1788.3
-1884.58
-1772.11
-1481.12
-1249.36
-1064.13
-857.462
-808.063
-916.894
-1043.87
-1057.53
-1032.2
-1132.13
-1300.19
-1422.54
-1451.01
-1395.75
-1283.75
-1140.18
-982.301
-817.586
-649.28
-487.753
-335.764
-162.179
19.6516
-1507.4
-1522.5
-1580.4
-1655.64
-1750.19
-1788.41
-1593.7
-1281.15
-1125.76
-1010.85
-809.62
-739.205
-775.563
-856.44
-916.609
-939.417
-1012.78
-1182.66
-1338.18
-1387.44
-1346.81
-1248.63
-1119.09
-974.229
-819.892
-659.225
-504.1
-357.96
-182.579
13.0745
-1516.61
-1535.41
-1598.4
-1672.04
-1756.41
-1743.58
-1473.64
-1185.47
-1127.59
-1002.66
-711.419
-529.383
-511.012
-633.192
-820.557
-986.027
-1129.41
-1266.61
-1376.7
-1406.59
-1362.04
-1265.79
-1139.96
-998.747
-846.326
-685.251
-528.3
-381.148
-203.516
2.18612
-1520.73
-1541.11
-1607.1
-1684.59
-1775.63
-1715.35
-1382.73
-1141.6
-1140.49
-981.308
-631.098
-432.652
-439.733
-608.625
-855.818
-1052.93
-1203.63
-1318.54
-1398.26
-1414.41
-1365.79
-1268.98
-1143.42
-1002.14
-848.936
-686.337
-527.274
-380.111
-204.213
8.08684
-1076.12
-1064.25
-1082.76
-1230.54
-1579.16
-1978.51
-2101.24
-1785.65
-1167.39
-781.917
-1180.52
-2168.93
-2522.68
-2443.79
-2124.36
-1746.83
-1404.59
-1121.89
-892.842
-709.54
-561.666
-442.086
-345.848
-268.694
-206.125
-151.818
-101.769
-59.8391
-25.5336
1.7708
-1077.64
-1060.36
-1090.94
-1255.78
-1599.73
-1986.66
-2102.37
-1796.45
-1228.63
-890.217
-1278.79
-2276.87
-2668.08
-2607.26
-2286.85
-1893.16
-1529.87
-1228.27
-984.883
-789.911
-632.86
-505.598
-402.361
-318.583
-249.553
-190.208
-136.141
-88.4545
-47.42
-15.4673
-1079.85
-1055.76
-1107.23
-1299.08
-1647.89
-2026.78
-2127.03
-1821.76
-1312.31
-1009.35
-1366.46
-2385.57
-2854.34
-2856.28
-2564.42
-2163.62
-1772.77
-1438.43
-1163.91
-942.599
-763.893
-618.332
-498.892
-400.108
-317.382
-246.823
-183.97
-128.188
-76.7817
-36.0152
-1082.64
-1055.96
-1135.54
-1354.52
-1717.65
-2075.29
-2125.7
-1814.99
-1395.41
-1113.28
-1414.84
-2421.8
-2997.07
-3111.07
-2897.71
-2524.92
-2121.03
-1750.02
-1431.71
-1169.06
-954.693
-778.891
-633.103
-510.789
-406.761
-317.612
-238.707
-170.347
-104.047
-50.4175
-1087.22
-1059.24
-1158.4
-1405.93
-1803.77
-2125.84
-2088.91
-1779.27
-1472.79
-1188.57
-1401.08
-2334.92
-3023.52
-3291.05
-3207.4
-2915.87
-2532.78
-2137.21
-1772.59
-1458.55
-1196.84
-980.266
-799.053
-644.466
-512.134
-397.609
-296.12
-209.713
-125.844
-54.5092
-1095.82
-1062.42
-1158.95
-1426.9
-1847.38
-2123.34
-2011.53
-1739.64
-1544.08
-1261.69
-1359.84
-2128.01
-2889.91
-3344.99
-3420.76
-3255.41
-2937.35
-2542.92
-2142.63
-1777.81
-1464.57
-1201.45
-979.166
-788.783
-624.313
-480.33
-352.436
-244.284
-143.585
-51.8269
-1110.15
-1070.54
-1149.49
-1431.87
-1843.31
-2054.19
-1912.18
-1724.33
-1642.03
-1372.5
-1305.91
-1824.19
-2601.98
-3258.75
-3493.08
-3469.66
-3252.85
-2893.76
-2481.25
-2078.83
-1720.6
-1414.34
-1152.57
-927.461
-730.862
-557.664
-403.347
-273.151
-157.959
-47.0477
-1131.24
-1086.97
-1146.61
-1440.48
-1839.76
-1968.84
-1802.81
-1766.93
-1749.63
-1398.49
-1352
-1501.34
-2126.51
-2901.33
-3424.41
-3509.65
-3412.84
-3121
-2727.79
-2312.94
-1928.03
-1588.94
-1296.54
-1043.1
-819.485
-621.289
-443.939
-293.363
-166.075
-40.1759
-1161.13
-1118.38
-1162.14
-1426.19
-1758.35
-1797.29
-1650.1
-1706
-1898.6
-1608.41
-1638.57
-1477.13
-1773.01
-2462.13
-3072.69
-3328.6
-3371.06
-3176.79
-2839.35
-2444.66
-2058
-1706.35
-1396.98
-1124.57
-882.092
-665.32
-470.05
-302.291
-164.81
-30.4646
-1201.16
-1164.72
-1213.01
-1443.33
-1758.7
-1799.26
-1558.4
-1523.84
-1568.95
-1596.15
-2404.46
-1783.8
-1558.59
-1761.05
-2546.03
-2943.9
-3124.75
-3049.48
-2800.59
-2459.36
-2099.82
-1757.43
-1446.49
-1167.57
-916.248
-689.144
-482.761
-302.925
-155.937
-19.2762
-1249.44
-1220.22
-1285.47
-1470.06
-1751.8
-1874.64
-1715.46
-1695.75
-1710.35
-1935.93
-2820.96
-969.035
-2047.73
-2469.09
-2738.81
-2776.68
-2630.62
-2366.9
-2056.5
-1742.91
-1447.79
-1176.44
-927.469
-699.091
-488.125
-297.884
-134.001
0.38041
-1302.36
-1280.24
-1370.73
-1532.75
-1755.81
-1924.45
-1903.07
-1900.32
-1880.6
-1997.74
-2200.31
-1292.63
-1597.25
-1425.73
-1708.46
-2031.01
-2315.34
-2431.14
-2379.28
-2197.98
-1950.5
-1680.03
-1415.12
-1163.17
-925.157
-700.698
-486.021
-281.235
-90.8258
31.2363
-1355.42
-1338.98
-1448.55
-1630.28
-1813.91
-1962.29
-1990.28
-1932.2
-1877.99
-1647.84
-1621.51
-1344.02
-1079.37
-1280.47
-1598.34
-1756.65
-1962.12
-2102.18
-2115.21
-2004.48
-1819.61
-1599.91
-1370.09
-1139.9
-912.275
-690.817
-473.832
-262.507
-63.0933
50.233
-1403.51
-1391.7
-1502.82
-1706.07
-1894.22
-2022.26
-2028.24
-1900
-1732.13
-1344.05
-941.038
-831.804
-987.931
-1306.33
-1586.04
-1643.89
-1744.65
-1855.19
-1898.19
-1838.48
-1702.71
-1522.36
-1319.35
-1105.72
-888.91
-675.281
-467.561
-269.173
-81.605
40.5175
-1443.01
-1435.38
-1536.8
-1735.96
-1938.34
-2072.58
-2039.68
-1829.44
-1586.9
-1199.74
-744.353
-628.096
-883.84
-1271.33
-1532.4
-1571.69
-1628.57
-1709.11
-1753.65
-1717.4
-1608.6
-1449.81
-1262.05
-1061.56
-861.727
-666.212
-476.518
-296.598
-119.723
23.7304
-1472.17
-1471.63
-1562.04
-1730.61
-1926.85
-2072.59
-2003.36
-1720.66
-1436.45
-1098.63
-705.046
-604.212
-828.12
-1163.24
-1395.23
-1452.25
-1528.64
-1608.76
-1650.26
-1620.45
-1523.82
-1379.71
-1208.21
-1025.87
-843.215
-664.136
-491.454
-327.476
-154.911
12.7458
-1492.05
-1499.68
-1582.15
-1712.48
-1884.86
-2017.09
-1889.74
-1564
-1300.25
-1017.05
-707.022
-657.903
-841.334
-1031.82
-1195.69
-1291.67
-1396.9
-1498.46
-1551.54
-1531.13
-1445.89
-1316.4
-1162.47
-998.649
-832.273
-665.521
-504.168
-351.691
-180.405
8.95921
-1504.4
-1519.49
-1601.21
-1708.23
-1865.87
-1957.13
-1728.42
-1381.66
-1185.61
-967
-729.806
-696.67
-778.409
-890.36
-1041.59
-1164.12
-1282.92
-1400.8
-1471.79
-1465.82
-1394.69
-1280.16
-1141.82
-992.839
-838.235
-679.325
-523.335
-376.069
-205.191
-0.845494
-1511.13
-1532.22
-1619.84
-1730.57
-1903.16
-1950.39
-1633.9
-1307.16
-1183.86
-937.259
-633.641
-525.486
-567.619
-761.728
-1015
-1193.95
-1316.89
-1410.68
-1465.21
-1457.62
-1392.16
-1285.1
-1153.43
-1009.03
-856.51
-697.299
-539.654
-392.255
-221.883
-6.4378
-1513.68
-1537.38
-1629.97
-1749.2
-1932.79
-1878.57
-1478.85
-1264.4
-1227.76
-878.47
-510.543
-435.649
-555.27
-777.937
-1027.45
-1212.5
-1338.71
-1423.61
-1467.98
-1456.84
-1391.67
-1285.88
-1155.24
-1011.17
-858.1
-697.464
-537.568
-389.925
-223.055
-0.595006
-1074.11
-1050.37
-1098.76
-1339.27
-1758.54
-2194.38
-2297.74
-1950.81
-1407.52
-1114.51
-1747.25
-2517.75
-2728.85
-2588.48
-2266.79
-1903.93
-1565.57
-1275.91
-1031.02
-823.169
-646.493
-499.012
-379.507
-284.253
-208.237
-145.744
-89.5016
-39.1759
-3.07774
-0.157346
-1075.42
-1049.23
-1117.45
-1365.48
-1775.07
-2196.98
-2296.22
-1960.43
-1469.8
-1233.39
-1833.02
-2636.14
-2880.48
-2756.78
-2433.61
-2056.05
-1695.11
-1384.48
-1125.48
-907.779
-723.814
-569.429
-442.244
-339.097
-255.712
-187.299
-126.602
-72.0616
-28.0993
-18.1631
-1076.94
-1050.04
-1150.94
-1416.45
-1830.47
-2242.13
-2325.21
-1986.83
-1542.35
-1335.67
-1885.12
-2735.22
-3058.37
-2997.58
-2704.19
-2328.41
-1945.08
-1602.39
-1311.31
-1067.78
-863.486
-691.951
-548.873
-430.449
-333.295
-252.875
-181.832
-119.652
-62.1602
-40.7765
-1078.31
-1055.94
-1184.08
-1470.29
-1912.19
-2306.4
-2336.59
-1993.4
-1606.23
-1389.05
-1863.72
-2731.75
-3171.91
-3232.13
-3023.11
-2690.55
-2305.27
-1928.88
-1592.85
-1306.55
-1066.52
-865.669
-697.326
-556.016
-437.819
-337.997
-250.145
-175.264
-98.7272
-58.6645
-1081.28
-1059.32
-1190.62
-1506.41
-2003.55
-2373.07
-2322.89
-1985.3
-1649.99
-1378.91
-1752.92
-2584.83
-3155.04
-3380.92
-3312.41
-3079.81
-2735.45
-2341.76
-1958.26
-1617.28
-1327.49
-1084.83
-881.021
-708.472
-561.737
-435.78
-324.793
-230.79
-133.272
-67.2604
-1088.8
-1060.17
-1174.11
-1521.1
-2055.91
-2384.72
-2268.39
-1954.47
-1645.41
-1346.42
-1605.72
-2328.46
-2989.25
-3404.65
-3503.57
-3413.81
-3158.37
-2779.02
-2360.67
-1964.87
-1619.43
-1327.58
-1081.4
-872.817
-692.628
-536.795
-398.829
-281.696
-163.874
-70.2348
-1102.55
-1067.41
-1162.29
-1539.24
-2066.18
-2322.22
-2163.01
-1886.24
-1616.25
-1363.26
-1457.49
-2006.53
-2705.87
-3308.68
-3562.97
-3625.41
-3487.84
-3156.25
-2729.41
-2294.23
-1900.33
-1561.56
-1274.36
-1029.5
-816.515
-630.971
-465.169
-324.149
-188.623
-69.3631
-1124.49
-1084.97
-1162.63
-1551.89
-2036.01
-2186.42
-2001.2
-1812.13
-1578.29
-1451.76
-1451.85
-1676.85
-2254.85
-3004.85
-3484.35
-3676.68
-3666.23
-3404.7
-2997.82
-2548.82
-2125.09
-1752.35
-1433.27
-1158.32
-918.478
-707.708
-517.66
-354.51
-204.657
-64.4
-1156.7
-1121.03
-1185.86
-1527.33
-1890.05
-1898.71
-1733.53
-1670.13
-1549.48
-1786.85
-2104.7
-1589.68
-1839.88
-2509.93
-3149.84
-3530.25
-3652.36
-3479.85
-3121.01
-2687.86
-2261.95
-1876.69
-1540.06
-1247.53
-990.229
-761.062
-552.75
-371.433
-210.715
-56.1232
-1200.29
-1172.87
-1248.23
-1535.8
-1833.35
-1786.51
-1537.76
-1499.79
-1678.34
-1870.21
-2894.09
-1738.9
-1642.51
-1986.54
-2632.02
-3190.33
-3442
-3369.59
-3086.16
-2700.36
-2300.72
-1924.96
-1589.22
-1293.26
-1029.01
-790.564
-571.356
-377.911
-210.503
-49.7502
-1252.21
-1230.97
-1333.83
-1565.42
-1819.57
-1849.79
-1674.67
-1641.47
-1779.36
-2069.33
-2700.89
-1873.27
-1740.9
-1299.86
-2079.06
-2746.41
-3094.39
-3116.6
-2921.35
-2605.95
-2251.34
-1905.31
-1587.67
-1300.87
-1040.3
-801.402
-578.226
-376.908
-202.537
-41.8809
-1307.82
-1288.03
-1429.37
-1645.72
-1869.39
-1980.91
-1927.03
-1900.19
-1954.23
-2167.61
-2286.31
-1333.86
-1548.69
-684.846
-1649.16
-2308.67
-2691.71
-2780.67
-2668.62
-2430.1
-2136.82
-1835.22
-1549.28
-1282.35
-1033.17
-798.631
-573.074
-361.963
-172.167
-17.8176
-1361.95
-1342.39
-1509.66
-1750.18
-1954.85
-2081.36
-2087.52
-2024.65
-1983.29
-1874.67
-1762.48
-1271.64
-1256.97
-857.502
-1517.64
-2006.42
-2326.09
-2439.58
-2388.11
-2218.66
-1988.93
-1738.54
-1489.38
-1246.45
-1010.13
-779.533
-552.145
-333.881
-129.884
13.0228
-1409.28
-1393.4
-1559.28
-1818.57
-2038.47
-2172.11
-2170.22
-2030.72
-1865.73
-1510.45
-936.138
-900.761
-1139.9
-1196.92
-1553.32
-1837.85
-2049.31
-2150.47
-2135.45
-2020.37
-1844.19
-1637.18
-1417.4
-1193.74
-969.211
-745.963
-525.665
-314.841
-114.075
25.6507
-1446.38
-1436.1
-1586.12
-1836.67
-2072.73
-2230.45
-2197.56
-1959.47
-1699.22
-1245.4
-628.839
-610.51
-924.808
-1237.43
-1549.59
-1723.89
-1864.09
-1942.77
-1942.19
-1859.79
-1717.87
-1538.92
-1338.91
-1129.87
-920.301
-714.346
-514.839
-326.426
-140.115
12.0499
-1472.16
-1469.41
-1603.71
-1818.56
-2054.61
-2242.81
-2173.34
-1851.51
-1522.41
-1033.68
-495.789
-504.757
-819.897
-1184.14
-1474.37
-1621.92
-1734.7
-1799.03
-1800.62
-1732.5
-1608.6
-1447.79
-1266.23
-1075.93
-885.704
-700.973
-524.26
-356.302
-178.389
-3.32546
-1488.16
-1493.61
-1615.52
-1788.54
-2018.48
-2216.67
-2082.61
-1707.52
-1369.08
-912.084
-492.329
-551.061
-834.388
-1119.33
-1361.86
-1514.22
-1620.09
-1681.65
-1686.31
-1627.57
-1517.25
-1372.79
-1210.01
-1039.57
-868.499
-699.87
-536.446
-380.38
-206.401
-9.85766
-1496.68
-1511.1
-1629.08
-1782.27
-2038.29
-2220.87
-1964.11
-1561.18
-1253.75
-866.091
-583.357
-647.601
-806.026
-1014.03
-1244.21
-1410.49
-1520.31
-1585.59
-1597.69
-1550.53
-1454.74
-1326.18
-1179.51
-1024.7
-866.258
-705.946
-547.393
-396.478
-226.189
-14.5061
-1500.22
-1523.51
-1647.95
-1807.92
-2120.04
-2282.18
-1938.6
-1506.31
-1220.21
-838.513
-568.688
-565.931
-703.285
-966.945
-1223.07
-1391.47
-1495.51
-1553.25
-1563.42
-1521.25
-1433.81
-1313.98
-1174.7
-1025.24
-869.87
-709.681
-549.377
-399.032
-232.09
-10.2486
-1500.47
-1527.77
-1656.85
-1814.81
-2118.61
-2126.28
-1761.29
-1514.25
-1258.73
-789.964
-516.673
-557.678
-737.846
-977.026
-1212.64
-1383.81
-1490.04
-1544.47
-1551.79
-1509.73
-1424.07
-1306.36
-1168.79
-1020.17
-864.729
-703.11
-540.494
-389.765
-227.452
1.23582
-1064.05
-1033.41
-1131.64
-1427.98
-1901.68
-2385.61
-2475.07
-2124.29
-1646.45
-1584.84
-2276.81
-2772.23
-2820.27
-2602.04
-2282.64
-1966.38
-1674.37
-1413.06
-1182.23
-970.739
-774.086
-595.55
-441.261
-314.452
-214.041
-135.312
-70.6553
-15.4743
26.3778
-0.144845
-1064.98
-1038.88
-1153.24
-1446.69
-1901.07
-2369.04
-2463.83
-2135.55
-1719.21
-1677.65
-2357.01
-2887.24
-2961.45
-2758.55
-2438.55
-2111.85
-1801.73
-1520.87
-1273.28
-1051.33
-850.388
-669.646
-511.519
-378.173
-269.359
-182.353
-111.002
-51.5157
-1.56849
-19.4017
-1065.42
-1047.69
-1187.01
-1483.93
-1939.84
-2400.63
-2488.81
-2157.89
-1781.71
-1728.31
-2374.71
-2968.47
-3120.18
-2975.57
-2683.42
-2366.09
-2045.94
-1738.85
-1460.53
-1213.61
-994.77
-800.289
-629.307
-482.176
-358.868
-257.957
-173.717
-105.514
-39.5073
-42.5372
-1065.42
-1056.4
-1203.93
-1515.72
-2014.64
-2469.27
-2513.71
-2176.64
-1816.77
-1709.03
-2277.36
-2925.68
-3202.8
-3180.96
-2974.27
-2708.53
-2402.23
-2071.52
-1751.07
-1461.5
-1207.34
-985.331
-791.53
-623.226
-478.859
-357.788
-254.419
-171.749
-84.0118
-61.6068
-1066.93
-1056.44
-1187.58
-1539.4
-2113.09
-2555.71
-2530.34
-2185.56
-1802.81
-1609.52
-2080.09
-2739.87
-3150.28
-3295.27
-3236.29
-3080.7
-2831.97
-2498.43
-2135.31
-1790.53
-1485.1
-1221.02
-993.123
-795.399
-623.408
-476.002
-346.981
-242.591
-129.691
-76.0492
-1073.02
-1055.46
-1169.3
-1582.09
-2203.98
-2592.1
-2492.83
-2130.22
-1710.13
-1509.09
-1895.48
-2482.19
-2962.51
-3277.83
-3398.7
-3402.22
-3259.59
-2955.67
-2562.93
-2162.32
-1798.09
-1482.97
-1213.35
-980.602
-776.892
-599.963
-442.173
-312.271
-173.933
-86.9996
-1085.7
-1061.51
-1170.16
-1635.49
-2236.16
-2506.16
-2328.26
-1961.07
-1575.25
-1484.93
-1803.71
-2210.9
-2667.84
-3122.25
-3425.24
-3607.15
-3600.61
-3355.49
-2956.71
-2514.51
-2098.51
-1734.72
-1423.47
-1155.31
-920.779
-714.746
-529.084
-373.41
-212.547
-92.4033
-1108.01
-1080.33
-1180.85
-1641.64
-2135.96
-2241.53
-2015.16
-1714.54
-1449.45
-1563.56
-1895.4
-1993.27
-2294.08
-2818.94
-3305.58
-3660.94
-3798.02
-3625.1
-3244.04
-2785.27
-2337.05
-1938.37
-1594.93
-1297.74
-1037.72
-807.74
-598.686
-418.902
-240.617
-91.6128
-1142.16
-1119.18
-1211.39
-1598.75
-1919.53
-1848.66
-1634.67
-1488.73
-1424.14
-1816.74
-2211.83
-1950.95
-1953.85
-2350.09
-3003.93
-3536.42
-3816.44
-3723.97
-3380.88
-2932.92
-2478.85
-2066.15
-1706.82
-1393.42
-1117.15
-871.24
-645.84
-447.322
-256.63
-85.2558
-1189.65
-1173.86
-1279.86
-1595.11
-1830.53
-1706.93
-1463.09
-1400.5
-1545.44
-2081.75
-2646.05
-2126.33
-1794.27
-1682.14
-2520.88
-3226.32
-3643.32
-3635.65
-3352.8
-2943.35
-2512.34
-2110.44
-1753.63
-1438.15
-1157.85
-905.785
-671.553
-461.38
-263.76
-78.8566
-1245.62
-1236.86
-1384.09
-1665.29
-1891.89
-1862.53
-1696.82
-1661.63
-1792.98
-2265.77
-2638.94
-2145.09
-1740.77
-1148.1
-1992.62
-2800.58
-3327.47
-3400.52
-3188.59
-2840
-2453.9
-2082.36
-1744.27
-1440.12
-1166.53
-916.039
-680.156
-464.495
-265.233
-75.9898
-1304.1
-1295.68
-1495.39
-1781.06
-2015.48
-2095.08
-2045.84
-2027.88
-2092.17
-2275.88
-2319.81
-1805.28
-1648.41
-997.759
-1573.7
-2380.14
-2946.78
-3073.15
-2929.68
-2650.46
-2324.11
-1997.77
-1692.74
-1412.26
-1152.41
-908.546
-674.033
-454.921
-254.109
-66.4242
-1359.97
-1345.86
-1581.1
-1895.17
-2136.07
-2269.29
-2294.07
-2247.58
-2194.93
-2073.28
-1609.8
-1381.99
-1626.3
-1233.21
-1452.42
-2115.26
-2590.41
-2721.21
-2631.12
-2417.93
-2153.99
-1880.1
-1614.54
-1361.82
-1119.39
-884.26
-651.963
-431.152
-227.21
-44.4503
-1407.31
-1391.13
-1627.42
-1957.21
-2225.13
-2394.49
-2421.3
-2292.51
-2111.02
-1768.38
-1090.8
-1060.72
-1548.02
-1439.78
-1561.8
-1988.69
-2297.52
-2400.14
-2346.12
-2188.89
-1980.73
-1754.46
-1524.46
-1295.55
-1067.89
-842.334
-618.168
-404.487
-201.188
-23.8607
-1442.62
-1429.67
-1643.9
-1957.47
-2245.04
-2460.24
-2462.45
-2216.43
-1921.18
-1397.49
-622.054
-705.596
-1275.65
-1436.11
-1626.9
-1883.79
-2074.46
-2147.7
-2112.54
-1993.78
-1825.89
-1633.16
-1428.51
-1217.97
-1005.1
-794.281
-587.478
-390.854
-193.686
-14.494
-1465.24
-1459.2
-1647.65
-1916
-2210.88
-2481.27
-2445.32
-2091.19
-1694.26
-1025.26
-387.098
-558.088
-1051.48
-1344.69
-1590.19
-1783.17
-1917.64
-1968.51
-1937.59
-1838.42
-1693.9
-1522.37
-1336.55
-1143.97
-949.618
-758.495
-573.73
-397.198
-210.334
-20.0443
-1477.3
-1479.95
-1647.9
-1867.08
-2175.43
-2492.15
-2377.92
-1930.38
-1468.33
-848.157
-388.979
-585.42
-997.094
-1289.82
-1526.34
-1696.45
-1801.47
-1836.19
-1803.44
-1714.09
-1584.72
-1430.06
-1261.84
-1087.52
-912.218
-738.836
-570.216
-408.351
-229.887
-23.9163
-1481.61
-1494.94
-1654.59
-1853.65
-2242.64
-2585.26
-2306.79
-1787.27
-1332.94
-811.628
-530.154
-690.823
-955.923
-1217.29
-1451.61
-1615.21
-1706.98
-1734.03
-1702.74
-1622.38
-1506.29
-1366.56
-1213.2
-1052.97
-890.16
-726.515
-564.156
-408.762
-237.132
-18.6308
-1481.01
-1505.76
-1664.73
-1852.39
-2336.42
-2676.56
-2291.41
-1713.23
-1278.13
-820.969
-600.351
-689.835
-918.239
-1190.56
-1422.15
-1576.55
-1659.48
-1681.56
-1651.38
-1576.8
-1468.52
-1336.87
-1190.71
-1036.13
-876.844
-714.262
-550.739
-396.367
-230.012
-2.93399
-1478.69
-1508.45
-1656.78
-1800.3
-2220.07
-2398.46
-2122.55
-1747.14
-1296.99
-814.957
-632.141
-735.474
-946.639
-1187.07
-1405.13
-1558.13
-1639.59
-1660.12
-1630.47
-1557.94
-1451.97
-1322.44
-1178.06
-1024.52
-864.956
-700.587
-534.448
-379.011
-217.66
16.2049
-1042.78
-1020.35
-1163.46
-1484.23
-2031.05
-2562.8
-2617.87
-2254.1
-1876.06
-2092.32
-2663.23
-2897.47
-2780.84
-2502.24
-2197.62
-1934.94
-1706.44
-1495.36
-1296.2
-1100.97
-908.239
-719.117
-538.47
-377.801
-245.325
-141.756
-60.9819
1.20754
53.5376
-2.33233
-1043.45
-1030
-1176.87
-1490.81
-1999.32
-2514.35
-2600.8
-2285.35
-1950.71
-2152.16
-2728.25
-2990.5
-2896.58
-2632.33
-2331.5
-2065.47
-1826.42
-1600.26
-1384.64
-1178.81
-981.204
-790.589
-610.433
-447.848
-309.32
-197.31
-107.256
-39.3302
21.6607
-21.2751
-1043.48
-1041.4
-1194.35
-1501.98
-1991.69
-2502.02
-2607.39
-2312.07
-1994.8
-2143.69
-2718.98
-3051.19
-3030.26
-2813.69
-2539.57
-2289.5
-2052.23
-1811.47
-1572.19
-1342.58
-1127.04
-924.539
-735.423
-562.665
-411.04
-284.284
-178.714
-100.318
-20.98
-43.3297
-1043.15
-1047.89
-1190.9
-1509.08
-2032.28
-2542
-2632.63
-2332.13
-1989.83
-2042.87
-2577.16
-2996.98
-3096.97
-2989.29
-2795.02
-2600.87
-2390.74
-2142.11
-1870.62
-1600.66
-1348.6
-1118.16
-908.141
-717.136
-546.324
-399.093
-271.826
-175.909
-71.4568
-65.5772
-1043.66
-1045.83
-1169.05
-1541.66
-2143.8
-2639.6
-2666.49
-2321.05
-1904.87
-1868.73
-2355.39
-2826.28
-3041.14
-3082.26
-3027.13
-2946.71
-2805
-2569.27
-2267.52
-1947.06
-1643.06
-1368.86
-1124.55
-905.758
-709.443
-536.528
-382.139
-261.238
-126.284
-87.4413
-1047.81
-1046.23
-1165.77
-1626.93
-2272.72
-2682.77
-2600.71
-2184.39
-1728.86
-1701.44
-2147.61
-2585.88
-2862.86
-3049.4
-3162.32
-3245.38
-3219.43
-3028.67
-2708.31
-2337.64
-1975.07
-1647.95
-1360.64
-1107.47
-881.55
-680.63
-497.429
-348.288
-182.374
-106.449
-1058.77
-1052.23
-1180.35
-1694.37
-2274.4
-2498.17
-2298.99
-1868.8
-1496.24
-1558.53
-1978.4
-2309.38
-2596.04
-2891.55
-3161.54
-3429.32
-3552.42
-3431.84
-3112.64
-2703.54
-2289.99
-1913.63
-1584.2
-1296.17
-1040.69
-812.642
-603.193
-427.047
-234.757
-118.979
-1080.59
-1069.59
-1194.43
-1673.31
-2080.65
-2075.65
-1811.86
-1481.82
-1283.08
-1503.67
-1969.71
-2136.15
-2346.82
-2649.6
-3023.01
-3464.28
-3747.23
-3708.38
-3407.27
-2980.3
-2534.17
-2123.4
-1761.86
-1447.39
-1168.32
-918.455
-687.15
-486.752
-275.526
-123.086
-1115.28
-1105.36
-1228.39
-1633.15
-1874.58
-1703.32
-1448.03
-1281.31
-1264.07
-1662.11
-2213.24
-2190.37
-2202.85
-2330.29
-2757.96
-3343.35
-3777.73
-3823.51
-3553.98
-3129.66
-2673.62
-2248.75
-1873.25
-1544.58
-1252.26
-988.782
-743.316
-525.282
-301.586
-119.143
-1164.3
-1159.86
-1310.7
-1664.28
-1872.22
-1705.84
-1472.62
-1412.23
-1540.91
-2045.61
-2518
-2371.34
-2234.68
-2075.33
-2422.76
-3080.68