/*--------------------------------*- C++ -*----------------------------------*\
| =========                 |                                                 |
| \\      /  F ield         | OpenFOAM: The Open Source CFD Toolbox           |
|  \\    /   O peration     | Version:  2512                                  |
|   \\  /    A nd           | Website:  www.openfoam.com                      |
|    \\/     M anipulation  |                                                 |
\*---------------------------------------------------------------------------*/
FoamFile
{
    version     2.0;
    format      ascii;
    arch        "LSB;label=32;scalar=64";
    class       volScalarField;
    location    "60";
    object      p;
}
// * * * * * * * * * * * * * * * * * * * * * * * * * * * * * * * * * * * * * //

dimensions      [0 2 -2 0 0 0 0];

internalField   nonuniform List<scalar> 
84826
(
316.45
316.564
317.1
317.944
318.986
320.034
320.886
321.399
319.817
314.666
305.364
289.523
279.446
283.222
295.574
287.329
137.005
-200.284
-520.126
-645.503
-575.795
-393.7
-189.876
-27.8626
73.0548
126.069
148.739
146.458
111.176
54.0088
316.543
316.667
317.197
318.087
319.269
320.554
321.881
323.232
322.681
317.981
307.633
285.264
268.845
269.598
280.285
271.998
127.838
-199.839
-512.95
-635.223
-564.673
-383.876
-183.265
-24.6802
73.5468
124.647
146.084
143.636
109.869
51.1123
316.727
316.9
317.518
318.607
320.054
321.703
323.639
326.148
328.341
327.011
317.712
281.522
252.513
247.96
255.839
246.195
108.919
-202.913
-499.983
-612.186
-537.479
-358.302
-164.015
-12.8501
78.9286
124.773
142.273
138.846
105.536
49.4003
316.992
317.202
317.96
319.258
320.835
323.022
325.996
329.618
334.673
338.261
333.759
272.862
226.884
220.192
227.116
213.256
82.063
-206.231
-476.212
-571.108
-489.701
-314.103
-131.512
4.8676
83.7371
121.047
134.485
132.116
99.1606
50.2907
317.315
317.537
318.438
320.051
322.126
325.311
330.091
335.613
342.566
348.804
351.677
246.164
185.102
187.192
199.362
179.532
53.2855
-205.098
-438.687
-511.191
-423.197
-257.289
-95.5615
17.638
80.7417
112.809
127.052
127.092
95.2578
57.8303
317.68
317.946
318.968
320.844
323.583
327.733
334.837
344.379
356.18
365.9
375.92
198.159
138.29
165.145
185.659
153.927
30.5668
-193.924
-387.292
-436.437
-346.461
-197.928
-64.9151
22.572
74.8919
107.075
122.885
122.899
89.5875
65.0905
318.068
318.415
319.563
321.445
324.485
329.559
339.391
354.057
376.614
396.535
406.331
153.141
105.118
170.915
197.483
144.606
20.3167
-170.679
-326.342
-356.082
-270.173
-145.21
-43.2117
25.8068
71.6217
99.6629
109.438
104.783
73.0721
62.6861
318.46
318.852
320.145
322.059
325.127
330.861
342.425
360.138
390.119
414.102
420.57
289.874
134.294
198.876
226.373
151.406
26.6218
-136.713
-262.332
-277.822
-201.312
-103.416
-26.625
24.6032
53.2317
64.8433
64.912
61.3068
39.9256
45.5624
318.841
319.227
320.547
322.74
326.057
331.589
342.662
359.98
384.898
384.129
341.816
195.709
127.268
249.514
263.102
164.252
43.2583
-98.145
-198.844
-203.224
-140.36
-68.414
-25.1215
-13.0485
-12.9644
-10.9528
-6.41532
3.94629
-0.0288049
25.6262
319.191
319.57
320.817
323.227
326.98
331.942
340.585
354.804
372.47
390.412
406.987
169.62
185.059
283.42
321.648
192.759
65.376
-59.679
-133.25
-128.116
-83.6036
-63.2965
-86.3486
-110.142
-111.62
-95.3048
-72.5435
-42.2765
-29.8699
16.4005
319.493
319.875
321.125
323.443
327.311
332.092
338.629
349.577
366.925
422.453
470.847
-1145.93
245.163
372.173
242.619
98.9749
-10.9229
-56.6434
-53.9021
-70.4787
-141.984
-204.168
-215.245
-188.648
-145.618
-101.553
-54.2083
-31.8017
30.8289
319.756
320.131
321.393
323.486
327.079
331.995
337.928
345.809
356.795
380.266
399.726
376.739
176.897
307.949
376.877
276.675
133.51
48.3311
13.1662
-37.2788
-157.389
-267.341
-298.174
-263.567
-199.063
-128.077
-66.4492
-10.889
9.00981
70.0945
319.99
320.337
321.527
323.491
326.696
331.463
336.849
343.534
348.389
361.855
394.716
430.8
287.794
300.991
326.863
258.553
143.352
77.044
13.7074
-120.876
-272.525
-332.237
-294.316
-207.494
-110.715
-23.8101
41.2077
89.1523
88.2461
122.301
320.19
320.497
321.605
323.503
326.356
330.38
335.061
341.696
345.182
355.586
350.298
401.774
300.259
327.591
313.397
231.261
143.313
72.1452
-41.8352
-198.222
-285.886
-265.084
-168.202
-46.6085
64.9179
150.114
201.87
226.267
188.944
178.56
320.356
320.633
321.684
323.504
325.961
329.147
333.412
339.288
342.675
347.4
341.235
368.853
309.52
335.326
314.527
237.574
163.12
73.487
-53.648
-157.775
-168.82
-89.5025
40.157
177.239
290.241
363.654
392.114
382.69
300.071
232.913
320.494
320.755
321.766
323.447
325.48
328.256
332.581
336.769
338.155
341.375
340.296
359.606
322.979
310.627
295.64
257.035
204.573
119.502
22.9084
-25.9379
12.4912
128.44
282.41
429.402
537.484
592.491
590.647
540.249
407.993
278.112
320.61
320.868
321.839
323.315
325.04
327.699
332.121
335.235
335.145
335.825
338.48
352.868
336.481
310.479
293.492
278.412
246.812
183.396
120.056
112.462
197.379
355.639
535.204
687.096
781.879
810.34
772.288
677.968
498.002
308.229
320.704
320.967
321.884
323.189
324.771
327.24
331.249
334.2
334.892
334.447
334.678
341.732
339.556
321.65
304.168
294.171
273.505
227.503
189.093
223.422
364.818
571.066
772.962
921.673
995.041
990.983
914.444
778.727
558.869
320.605
320.775
321.041
321.91
323.173
324.728
326.887
330.215
333.137
334.223
333.57
333.365
335.481
335.232
327.14
315.826
308.656
292.013
254.809
236.917
311.053
503.167
746.295
958.687
1096.04
1145.25
1110.7
1001.99
835.097
588.22
318.304
320.813
321.081
321.929
323.231
324.821
326.733
329.646
332.676
334.314
333.733
333.482
333.392
328.023
322.622
320.705
320.707
306.403
273.44
271.381
370.655
588.347
845.953
1058.21
1184.85
1217.95
1165
1038.61
855.76
595.759
311.242
316.346
316.453
316.928
317.751
318.655
319.358
320.389
320.838
318.668
313.525
304.538
288.034
277.032
278.044
282.645
262.227
75.7846
-304.386
-629.248
-736.014
-643.137
-432.651
-203.584
-27.0551
78.0674
132.279
157.703
158.125
126.215
63.2524
316.438
316.556
317.058
317.945
318.909
319.82
321.287
322.465
321.202
316.551
306.852
284.753
268.666
267.724
271.153
249.992
70.5232
-300.815
-621.293
-727.546
-635.031
-426.029
-199.693
-25.4146
78.9648
131.461
153.423
152.097
122.726
61.0158
316.624
316.792
317.391
318.415
319.577
321.01
322.998
325.165
326.65
325.723
316.406
280.575
253.346
249.138
251.949
230.027
57.9289
-297.717
-605.318
-706.353
-610.591
-401.56
-178.643
-8.73398
90.1217
135.314
150.995
148.958
122.298
63.7048
316.892
317.109
317.775
318.903
320.492
322.747
325.293
328.266
332.986
337.517
327.977
265.839
225.269
221.584
226.356
203.274
39.4569
-291.863
-576.963
-665.92
-561.248
-350.803
-136.057
18.6175
101.505
135.745
145.933
144.411
118.788
68.4121
317.215
317.446
318.223
319.699
321.99
325.06
328.795
333.442
341.076
349.079
330.469
223.409
174.487
183.201
196.583
172.293
19.0002
-280.022
-533.903
-602.817
-485.98
-280.628
-87.448
40.0129
103.317
130.397
140.559
141.198
113.236
75.743
317.579
317.833
318.767
320.632
323.423
327.065
333.152
341.615
355.178
362.95
319.758
155.423
111.26
148.494
173.582
141.363
-0.482449
-260.816
-475.494
-516.785
-391.42
-201.716
-41.3378
51.9298
97.2616
122.326
133.982
134.239
102.316
77.4237
317.97
318.283
319.348
321.309
324.274
328.668
337.725
351.386
374.084
376.232
304.024
65.5454
37.2765
125.893
168.448
119.633
-14.1091
-232.752
-402.695
-415.817
-289.522
-125.666
-10.335
49.4386
81.5671
98.7203
101.218
95.409
66.0042
54.7364
318.365
318.744
319.918
321.834
324.828
330.001
340.837
358.434
385.94
387.899
370.908
67.682
-10.5649
127.248
186.307
116.471
-12.5436
-193.307
-322.482
-313.84
-196.344
-74.0347
-6.90555
17.0516
20.3439
16.76
11.0487
9.97738
-3.10423
6.39698
318.739
319.143
320.382
322.458
325.62
330.75
341.206
358.939
384.744
390.194
349.59
123.307
-92.4485
128.874
213.487
125.404
2.49323
-147.488
-244.361
-219.911
-123.919
-59.9353
-66.0923
-99.6127
-122.227
-124.52
-114.557
-92.5693
-77.4499
-35.9187
319.087
319.475
320.712
322.969
326.522
331.054
339.401
353.903
372.085
373.158
325.111
543.045
-21.7267
322.069
261.595
154.099
27.6137
-103.398
-170.442
-136.571
-95.5773
-147.855
-238.512
-286.266
-284.851
-253.982
-212.5
-161.872
-119.499
-48.1597
319.399
319.771
321.001
323.24
326.846
331.229
337.873
347.947
363.289
380.943
400.651
135.579
317.635
203.827
62.7086
-55.0021
-91.888
-91.6345
-191.599
-353.105
-434.049
-426.682
-373.681
-304.321
-235.474
-166.392
-113.239
-33.4085
319.671
320.027
321.247
323.396
326.544
331.278
337.331
343.456
353.083
365.058
351.507
527.902
170.062
198.276
330.148
240.248
101.375
7.88326
-40.5808
-171.418
-394.428
-524.184
-519.726
-445.087
-351.488
-261.364
-183.973
-114.756
-71.3815
-4.12514
319.908
320.242
321.413
323.412
326.143
330.98
336.466
341.285
345.355
355.801
381.503
368.317
169.015
159.906
296.477
225.44
119.015
37.6119
-93.0056
-335.166
-515.081
-538.461
-463.77
-353.978
-245.132
-152.996
-82.6421
-27.7216
-8.93738
33.1155
320.11
320.426
321.532
323.328
325.923
330.016
334.601
340.22
343.438
351.439
345.064
348.584
277.261
348.747
305.681
197.632
110.374
6.70396
-185.625
-383.208
-457.003
-412.734
-310.121
-192.29
-85.2327
-1.57832
53.9083
85.9546
70.6444
75.7888
320.281
320.586
321.604
323.304
325.763
328.676
332.322
338.294
343.124
343.611
337.954
355.029
311.582
342.154
302.001
214.529
127.321
2.39316
-161.83
-273.392
-285.848
-217.586
-104.785
16.4284
118.506
187.415
219.56
220.168
162.882
120.012
320.427
320.705
321.666
323.356
325.469
327.671
330.888
335.193
339.572
341.41
339.635
354.348
327.187
313.994
286.055
242.185
179.307
75.5186
-35.627
-96.9951
-80.7991
4.71074
128.97
252.96
346.792
397.066
400.318
362.568
258.308
160.548
320.546
320.801
321.773
323.346
325.024
327.132
330.561
333.111
335.02
337.726
340.608
350.12
333.381
306.657
283.044
266.61
234.433
165.908
94.2103
66.0737
111.892
224.972
367.316
494.945
577.569
603.894
573.935
495.119
344.421
192.11
320.64
320.9
321.859
323.238
324.702
326.807
330.181
332.599
333.877
334.039
334.517
339.861
331.937
309.33
289.208
284.149
268.691
223.643
177.916
182.097
272.148
426.393
590.076
717.093
782.404
780.727
716.218
599.074
409.254
211.307
320.714
320.981
321.878
323.186
324.72
326.601
329.258
331.85
333.756
333.299
330.238
330.857
328.843
316.727
303.96
303.694
289.253
246.891
216.383
256.312
396.883
590.783
768.978
888.583
933.481
904.751
811.205
664.964
448.047
219.146
320.756
321.021
321.869
323.236
324.908
326.563
328.606
331.348
334.461
333.819
330.611
326.834
321.987
315.624
314.948
321.38
303.759
257.235
237.883
305.437
478.156
691.835
873.047
983.541
1012.84
966.897
856.82
695.599
464.698
221.236
316.143
316.238
316.702
317.422
317.915
318.368
319.501
319.288
315.986
310.148
301.008
285.527
277.643
281.594
292.614
278.964
50.5675
-404.769
-742.79
-821.763
-705.548
-480.619
-236.408
-48.5231
67.6113
133.572
165.601
166.248
136.033
69.5069
316.235
316.347
316.85
317.598
318.095
318.855
320.377
320.594
317.723
311.976
302.415
283.301
273.141
275.215
282.033
265.242
46.6606
-401.055
-738.511
-820.121
-705.296
-482.475
-241.917
-53.0827
65.7683
130.894
160.748
161.655
133.502
68.7777
316.424
316.589
317.126
317.91
318.734
320.235
322.068
322.876
322.22
319.296
309.079
278.475
260.225
259.845
264.032
243.671
34.4802
-395.327
-721.861
-803.969
-691.348
-470.221
-229.4
-38.072
77.8016
134.082
158.324
161.979
137.348
75.4472
316.695
316.891
317.403
318.324
319.925
322.131
323.823
325.193
327.618
328.836
315.568
263.276
233.825
232.768
236.992
213.83
14.8392
-385.579
-690.3
-767.674
-651.548
-426.216
-185.538
-4.50244
93.6204
135.893
152.488
157.027
133.108
82.0586
317.016
317.217
317.832
319.171
321.533
324.087
326.199
329.218
334.703
338.612
314.296
227.625
187.462
192.281
200.939
176.235
-8.19434
-369.423
-645.399
-712.699
-588.057
-360.213
-133.051
21.687
97.2043
128.037
139.276
142.35
113.964
78.4857
317.375
317.599
318.43
320.159
322.807
325.568
329.647
335.945
345.225
348.318
303.688
168.372
120.379
144.403
165.13
135.169
-30.7657
-346.214
-588.666
-639.281
-503.363
-279.236
-80.7865
31.0312
75.6748
94.3185
102.049
104.571
78.5747
60.1006
317.767
318.038
319.027
320.901
323.547
326.907
333.704
343.89
357.075
356.278
281.655
59.3394
6.01789
75.8708
137.323
101.682
-47.803
-314.432
-518.729
-546.215
-398.332
-193.963
-57.5775
-8.21842
4.70701
12.5606
17.9928
24.2313
14.339
17.8239
318.166
318.5
319.567
321.449
324.118
328.206
336.622
349.842
364.501
371.471
330.875
3.9204
-96.6858
35.2984
132.465
85.5326
-51.0336
-271.761
-437.549
-438.608
-293.87
-152.992
-111.924
-122.277
-128.913
-121.751
-106.787
-83.9385
-66.0847
-34.1216
318.545
318.904
320.054
322.062
324.823
328.983
337.408
351.807
371.152
406.856
366.866
16.0804
-290.177
-41.6617
143.885
84.3806
-40.5656
-222.11
-352.573
-334.419
-232.452
-210.079
-264.817
-298.995
-293.628
-263.047
-222.595
-174.186
-126.293
-67.0711
318.898
319.237
320.419
322.622
325.577
329.337
336.686
348.855
367.253
394.627
272.172
183.68
-408.431
4.70535
176.603
106.977
-16.1379
-173.11
-274.319
-259.725
-271.418
-384.252
-464.076
-464.132
-417.214
-353.161
-286.688
-217.231
-149.331
-74.8962
319.222
319.549
320.689
322.896
325.876
329.831
336.135
344.052
354.888
372.763
257.21
130.473
223.703
150.385
15.7435
-128.368
-206.106
-259.117
-430.911
-583.208
-605.41
-545.911
-459.99
-372.113
-290.367
-212.062
-140.927
-66.9711
319.506
319.826
320.965
322.97
325.616
330.234
336.168
339.943
345.833
358.846
357.892
700.031
153.749
-57.7363
240.779
182.745
47.5341
-75.1257
-171.943
-371.124
-605.075
-684.794
-632.598
-531.095
-424.635
-328.306
-245.189
-171.214
-111.818
-49.2903
319.755
320.059
321.196
322.942
325.275
330.025
335.614
338.392
339.877
347.702
363.043
293.738
262.838
274.235
252.596
193.361
86.5976
-23.2516
-210.608
-488.812
-652.691
-650.645
-557.675
-440.671
-330.246
-237.026
-163.108
-104.116
-67.4171
-23.9336
319.967
320.27
321.344
322.909
325.174
328.939
333.819
338.449
339.521
341.301
333.333
312.818
333.481
405.78
304.378
212.93
123.595
-15.5213
-257.406
-476.234
-554.477
-510.66
-407.521
-292.319
-189.38
-108.483
-51.1428
-14.3096
-7.89173
8.15754
320.147
320.45
321.434
323.008
325.176
327.445
331.108
337.65
341.875
337.574
329.389
337.623
340.253
378.941
323.255
243.083
154.354
0.968504
-198.598
-339.419
-372.437
-315.958
-213.723
-103.451
-10.2851
54.3478
89.1273
97.0398
66.1139
44.9623
320.302
320.574
321.519
323.185
325.059
326.446
328.967
334.755
341.79
338.959
332.494
343.753
339.6
338.601
308.008
263.96
194.305
72.7373
-65.659
-155.027
-162.372
-98.6554
4.52149
111.308
194.874
242.313
250.924
224.339
150.476
82.7334
320.425
320.671
321.655
323.257
324.743
326.18
328.423
331.683
337.406
339.181
337.022
341.675
333.137
317.547
296.728
278.997
240.144
160.15
70.0553
19.5371
35.4934
114.137
226.33
333.809
408.767
437.048
416.975
353.057
234.655
116.19
320.524
320.775
321.756
323.168
324.502
326.146
328.468
330.675
334.653
336.495
336.095
338.26
329.974
311.076
294.699
289.336
272.266
222.556
166.198
146.604
195.075
304.03
434.146
543.96
606.833
612.652
561.992
461.903
304.243
140.641
320.603
320.863
321.764
323.101
324.597
326.118
327.763
329.927
333.574
335.372
333.392
334.8
331.303
316.374
304.513
304.382
290.713
248.343
209.217
220.334
311.74
456.639
603.243
711.166
759.302
742.372
665.42
536.647
350.243
154.824
320.649
320.905
321.747
323.153
324.84
326.172
327.251
329.456
333.602
333.685
330.775
329.872
328.668
320.872
318.205
323.651
303.542
253.439
223.994
263.156
386.969
552.725
705.361
808.121
844.143
811.676
719.092
574.755
373.27
161.997
315.859
315.946
316.326
316.621
316.556
316.977
317.943
316.735
312.09
305.226
296.713
285.535
282.841
293.818
328.971
339.615
62.4492
-475.636
-826.585
-886.27
-750.139
-516.929
-274.789
-82.4913
49.3778
131.901
170.5
167.811
134.916
73.684
315.95
316.055
316.446
316.761
316.82
317.589
318.668
317.305
312.468
305.366
296.69
282.483
278.98
285.663
311.729
320.953
58.5986
-476.645
-831.099
-894.911
-761.675
-532.179
-292.599
-95.248
42.5743
126.01
165.151
164.785
132.034
72.8643
316.138
316.278
316.659
317.089
317.672
319.065
320.012
318.737
315.328
309.807
300.583
277.79
267.159
267.935
284.935
288.865
41.5818
-475.941
-823.683
-893.344
-766.036
-539.615
-294.377
-88.9994
46.8582
123.429
160.492
164.909
131.227
75.8586
316.406
316.549
316.916
317.624
319.014
320.789
321.23
320.705
320.12
316.431
305.032
265.442
243.133
238.395
248.722
244.604
12.364
-468.873
-796.249
-866.699
-740.675
-509.689
-259.4
-61.5569
55.7514
116.622
145.661
153.288
118.883
74.3848
316.722
316.872
317.363
318.506
320.572
322.319
322.743
324.259
326.751
324.214
308.852
236.882
198.781
193.601
202.63
191.253
-22.1989
-453.06
-752.191
-819.852
-693.043
-460.853
-219.147
-44.0302
49.9988
94.7477
114.034
120.637
89.3952
61.374
317.079
317.269
317.971
319.443
321.666
323.378
325.328
330.016
335.395
336.021
313.27
183.158
126.033
132.825
153.625
135.914
-54.4336
-429.551
-698.58
-761.901
-632.82
-402.52
-183.748
-53.2316
3.40708
30.4134
44.6756
53.8879
39.2547
30.0626
317.47
317.706
318.579
320.22
322.317
324.423
328.821
336.633
344.799
354.336
302.26
74.4183
1.27877
39.7251
108.839
90.0222
-78.2279
-396.426
-634.563
-689.527
-552.748
-337.385
-186.594
-131.232
-111.287
-92.0506
-72.1474
-50.2999
-36.3473
-20.6192
317.873
318.147
319.128
320.891
322.923
325.504
331.596
341.818
352.803
377.436
353.606
-25.8172
-118.998
-37.0496
85.7249
61.9714
-86.1372
-350.175
-558.071
-600.01
-466.179
-322.457
-285.684
-289.042
-275.168
-243.347
-203.919
-159.224
-112.271
-68.9742
318.261
318.551
319.622
321.525
323.588
326.404
332.976
344.517
360.074
407.794
353.372
-206.399
-344.697
-160.076
83.4903
53.1692
-77.8548
-296.914
-477.79
-506.899
-422.101
-419.591
-468.534
-469.818
-427.849
-367.388
-302.212
-233.829
-158.827
-95.7649
318.624
318.909
320.018
322.035
324.173
327.229
333.474
342.695
356.494
394.268
296.013
-622.713
-343.128
39.9955
106.975
72.2166
-53.6287
-245.723
-403.229
-437.633
-486.607
-602.767
-644.166
-599.951
-519.613
-432.66
-347.54
-263.533
-173.608
-102.765
318.961
319.239
320.315
322.266
324.501
328.231
334.061
338.83
345.485
363.123
331.871
-1580.67
-149.043
-117.818
143.855
112.933
-22.0767
-198.399
-331.798
-436.597
-630.371
-754.856
-737.06
-645.693
-538.967
-437.046
-342.515
-254.558
-165.955
-99.094
319.261
319.55
320.606
322.234
324.475
328.949
334.574
336.319
339.152
352.338
360.509
341.365
173.152
-98.1099
147.516
138.526
8.61046
-137.284
-280.035
-517.314
-748.225
-804.605
-729.825
-612.161
-495.287
-390.907
-298.945
-218.443
-144.365
-88.0043
319.523
319.827
320.866
322.19
324.316
328.661
334.026
335.825
335.126
340.546
348.268
312.674
308.31
208.817
178.354
154.329
62.4081
-54.3809
-270.379
-568.887
-740.189
-737.679
-638.325
-516.93
-404.357
-308.418
-228.881
-164.579
-112.597
-69.9805
319.754
320.054
321.046
322.352
324.287
327.432
332.258
336.438
335.01
333.695
331.459
330.638
347.557
373.572
268.497
202.152
135.079
1.74737
-259.363
-507.765
-614.675
-586.518
-488.57
-377.872
-278.709
-199.129
-137.928
-94.973
-69.3312
-44.8987
319.951
320.229
321.189
322.647
324.336
326.029
329.7
336.164
337.563
332.161
327.621
339.459
348.095
360.277
308.04
246.822
183.47
41.813
-176.487
-355.972
-427.578
-396.474
-309.202
-210.783
-125.923
-63.8851
-23.9507
-6.5043
-11.2496
-12.5634
320.116
320.364
321.326
322.883
324.343
325.301
327.547
333.709
338.875
334.558
328.568
338.193
339.641
330.586
296.425
261.599
210.886
101.515
-52.7182
-181.339
-228.114
-194.184
-113.679
-23.6662
50.2192
96.7273
114.711
103.249
63.3796
24.8503
320.253
320.482
321.461
322.953
324.251
325.403
326.901
330.424
336.007
335.918
331.677
335.294
330.164
313.234
288.588
273.141
242.481
168.533
64.2931
-19.7665
-41.8694
1.59588
84.7831
173.164
240.672
273.244
269.103
226.664
147.545
61.8824
320.364
320.596
321.538
322.888
324.178
325.651
327.179
329.201
333.606
334.481
331.699
332.292
324.603
305.385
288.448
284.453
267.732
218.104
151.548
103.688
109.836
175.165
272.093
364.501
426.537
444.139
416.207
341.992
224.679
91.9363
320.45
320.69
321.552
322.846
324.284
325.675
326.859
328.448
332.674
334.953
332.942
333.1
327.329
308.595
294.834
296.013
283.694
244.431
197.647
178.797
220.337
315.497
429.084
524.809
579.192
580.945
530.463
429.108
280.912
111.657
320.498
320.74
321.554
322.893
324.479
325.752
326.569
328.209
331.489
333.161
332.935
336.024
335.807
321.854
310.114
312.641
293.712
248.557
212.225
220.816
291.266
405.631
527.471
622.561
669.893
660.055
595.279
477.613
311.758
122.183
315.506
315.558
315.721
315.64
315.475
315.997
316.427
314.07
308.291
301.146
295.077
289.503
291.947
314.113
383.017
420.194
100.397
-466.793
-816.32
-873.88
-743.84
-527.915
-302.088
-109.034
34.7664
126.097
167.056
159.445
121.481
75.8401
315.596
315.658
315.824
315.807
315.832
316.608
316.773
313.822
307.766
300.671
294.305
285.813
287.886
302.297
359.222
398.9
94.7509
-477.103
-832.352
-895.158
-768.944
-556.738
-328.492
-125.222
26.3007
119.522
161.219
156.143
116.085
72.2407
315.779
315.866
316.042
316.218
316.714
317.785
317.451
314.294
308.995
302.587
295.597
280.407
275.771
279.98
322.107
359.468
72.6917
-492.383
-845.692
-915.232
-793.939
-581.745
-342.224
-128.762
21.8633
111.44
152.396
151.787
107.028
67.7932
316.04
316.127
316.34
316.82
317.903
319.012
318.154
316.005
312.479
305.089
295.611
268.058
252.64
246.607
274.767
302.259
36.0061
-498.675
-839.114
-911.772
-789.773
-569.001
-322.457
-117.176
15.8692
91.914
127.117
132.213
89.3017
58.9428
316.353
316.457
316.807
317.671
319.202
320.107
319.292
319.499
318.148
308.348
292.801
239.923
211.124
199.687
218.62
232.215
-8.87801
-490.82
-806.375
-880.794
-761.766
-539.752
-300.048
-115.63
-6.04065
52.5589
78.4503
86.519
59.3767
40.3508
316.713
316.86
317.392
318.557
320.096
320.928
321.435
324.543
325.244
314.805
286.404
191.088
146.1
139.446
159.679
159.968
-53.3973
-472.561
-760.256
-839.215
-727.534
-509.41
-288.484
-146.073
-73.4789
-32.8078
-9.97183
4.87454
5.31165
1.46707
317.107
317.296
317.992
319.355
320.706
321.872
324.477
329.786
331.954
324.587
266.531
113.288
49.366
59.0663
106.195
97.9325
-87.9898
-443.675
-706.391
-790.135
-678.698
-471.82
-315.922
-246.046
-206.928
-171.001
-137.342
-104.186
-69.958
-50.7211
317.513
317.733
318.556
320.057
321.322
322.938
327.198
333.974
337.298
334.696
224.395
-3.07748
-84.1647
-38.194
69.6136
57.6384
-103.239
-400.214
-640.375
-725.41
-616.904
-478.139
-430.335
-409.877
-371.962
-320.296
-263.363
-204.083
-135.276
-93.6077
317.91
318.154
319.062
320.634
321.99
324.104
328.999
336.314
341.364
350.715
220.967
-27.7728
-219.054
-126.516
63.0752
46.3869
-96.4075
-348.366
-567.964
-646.112
-581.859
-577.026
-600.927
-573.992
-508.753
-429.835
-347.869
-265.995
-171.351
-115.903
318.285
318.538
319.496
321.074
322.606
325.382
330.091
334.902
338.846
343.282
229.692
-17.6106
-281.024
-138.324
97.7496
68.135
-71.5678
-298.88
-495.484
-574.147
-633.184
-731.174
-745.458
-679.102
-581.395
-480.2
-381.125
-286.932
-182.32
-122.919
318.635
318.886
319.83
321.309
323.108
326.641
331.159
332.647
333.551
340.044
328.27
214.78
-170.31
-126.826
138.523
111.007
-41.5688
-248.102
-411.283
-542.493
-730.121
-838.356
-806.373
-703.051
-585.576
-473.975
-369.462
-274.954
-177.694
-122.75
318.956
319.228
320.098
321.338
323.376
327.314
331.902
332.363
331.066
334.659
329.826
289.124
88.0778
-48.2848
133.517
131.056
-12.8809
-171.223
-323.659
-560.806
-788.132
-848.364
-774.242
-654.877
-534.383
-425.093
-326.377
-242.103
-163.059
-115.675
319.243
319.54
320.346
321.416
323.409
326.856
331.282
333.236
330.723
328.442
310.878
292.629
262.551
206.099
159.472
136.64
41.6051
-64.5497
-259.012
-549.988
-737.973
-757.099
-670.052
-554.581
-443.718
-347.295
-263.11
-195.356
-139.068
-101.814
319.492
319.777
320.611
321.759
323.424
325.632
329.399
333.799
332.597
327.959
318.369
315.567
315.257
315.529
236.865
180.148
124.607
26.7379
-200.114
-458.193
-598.986
-602.444
-524.49
-424.244
-330.216
-251.13
-184.759
-137.806
-106.749
-82.18
319.704
319.953
320.86
322.181
323.526
324.667
327.194
332.898
334.634
330.23
321.732
327.557
329.869
327.012
283.019
234.326
193.764
91.834
-108.959
-312.126
-423.582
-425.614
-361.022
-278.046
-201.016
-139.333
-93.7456
-70.533
-64.1076
-55.3473
319.885
320.107
321.046
322.425
323.664
324.54
325.837
330.546
334.906
333.253
325.781
331.493
330.908
315.131
282.126
259.293
231.982
146.408
-7.27346
-163.053
-248.005
-246.037
-189.896
-119.3
-56.1209
-10.8354
14.4716
13.5548
-4.86538
-20.7984
320.039
320.248
321.164
322.483
323.753
324.957
325.734
327.976
332.525
334.046
328.977
332
327.594
307.648
281.395
271.217
254.986
192.567
82.64
-27.8395
-85.4624
-74.9794
-19.4043
47.7372
103.742
136.581
143.33
118.491
71.8362
17.0565
320.165
320.373
321.228
322.458
323.775
325.322
326.349
327.336
330.523
332.57
329.349
330.635
324.257
303.131
285.766
282.944
270.755
226.093
153.341
80.2772
49.1034
75.8502
140.644
211.655
265.621
288.896
278.642
228.892
151.542
50.5835
320.259
320.473
321.266
322.453
323.828
325.348
326.455
326.973
330.363
333.263
331.13
331.115
325.171
303.648
289.49
292.405
284.279
250.18
197.02
150.471
147.822
197.836
277.068
353.869
405.705
419.609
393.542
321.353
215.813
74.4676
320.31
320.533
321.299
322.493
323.931
325.43
326.45
326.892
329.072
332.406
332.991
334.983
332.1
313.913
300.812
305.348
294.227
259.532
216.25
191.784
211.585
276.98
364.146
442.851
491.853
499.248
464.043
378.16
254.179
87.6138
315.093
315.088
315.085
314.847
314.576
314.4
313.524
309.866
303.246
296.253
293.255
293.311
301.851
334.916
431.342
474.433
160.644
-358.665
-692.97
-766.456
-669.976
-492.96
-293.048
-109.283
30.2071
117.231
155.412
144.748
104.665
79.9518
315.182
315.186
315.181
315.026
314.933
314.9
313.561
309.308
302.59
295.742
291.606
288.622
296.103
319.408
404.335
452.645
151.511
-374.954
-719.671
-799.676
-707.792
-531.851
-323.411
-125.597
22.8553
111.612
149.547
141.118
97.2604
72.5904
315.363
315.397
315.4
315.41
315.68
315.814
313.95
309.408
302.984
296.306
290.807
282.042
282.577
292.757
361.916
413.122
122.507
-408.464
-758.74
-846.6
-758.999
-576.556
-350.04
-138.515
12.7067
99.6987
135.881
131.638
83.857
62.1218
315.622
315.664
315.698
315.928
316.639
316.852
314.742
311.041
305.132
296.045
288.156
270.855
260.557
256.717
308.502
353.846
77.4719
-440.258
-783.25
-873.635
-780.967
-583.908
-349.11
-144.556
-6.40131
71.2913
103.268
105.743
66.2342
47.8346
315.936
315.995
316.148
316.688
317.699
317.881
316.064
314.264
309.066
295.494
281.517
248.084
225.271
210.728
246.965
278.815
25.6657
-454.709
-777.057
-866.249
-771.89
-572.374
-343.846
-159.541
-44.0648
19.014
45.3618
53.1327
36.5891
22.4065
316.298
316.387
316.72
317.54
318.468
318.654
317.912
318.313
314.002
296.638
271.906
212.598
175.641
158.007
184.163
198.344
-25.2649
-451.207
-750.036
-845.559
-760.098
-563.64
-351.697
-206.517
-125.223
-77.309
-49.9315
-32.3773
-18.6707
-21.3086
316.692
316.815
317.33
318.339
319.073
319.56
320.301
321.984
318.162
298.555
254.61
163.654
112.119
100.681
128.931
125.536
-68.2973
-433.855
-712.698
-818.903
-737.617
-549.481
-396.005
-315.927
-264.125
-218.25
-175.646
-135.304
-85.8105
-70.1583
317.103
317.262
317.9
318.991
319.737
320.798
322.69
324.591
320.324
299.36
229.54
108.654
44.4921
47.8791
92.9822
75.3545
-95.3445
-403.882
-663.011
-777.373
-699.098
-569.555
-510.042
-473.212
-421.974
-359.211
-290.912
-222.006
-137.792
-106.097
317.511
317.7
318.4
319.502
320.489
322.263
324.616
326.116
322.129
305.927
221.455
102.137
-0.0263385
32.8485
92.2758
61.2295
-95.6805
-365.267
-601.547
-711.862
-668.374
-653.028
-659.098
-619.517
-544.116
-456.059
-363.25
-272.568
-165.794
-124.113
317.902
318.108
318.835
319.938
321.255
323.706
326.025
325.858
322.1
315.458
259.507
167.316
-9.90402
50.9552
132.021
83.7095
-75.0658
-325.161
-530.387
-632.789
-686.509
-766.021
-774.723
-704.412
-602.646
-495.803
-388.449
-287.081
-175.596
-130.631
318.271
318.48
319.179
320.267
321.942
324.889
327.397
325.902
321.166
319.714
295.409
218.415
38.9104
69.4451
174.222
128.464
-47.5371
-275.332
-436.543
-564.452
-728.164
-831.783
-809.763
-712.678
-597.373
-484.196
-374.384
-274.879
-175.924
-132.504
318.615
318.83
319.46
320.517
322.364
325.347
328.455
327.843
321.796
316.98
298.741
252.956
153.801
130.002
175.632
148.253
-18.8503
-191.538
-322.671
-521.062
-733.452
-811.316
-760.145
-654.319
-541.19
-434.385
-333.395
-245.951
-167.155
-128.193
318.927
319.143
319.758
320.818
322.458
324.738
328.153
330.429
325.36
316.141
300.476
285.217
252.157
234.386
190.463
149.465
31.2431
-75.4467
-219.492
-464.887
-660.166
-710.467
-651.302
-551.945
-450.211
-357.757
-271.501
-202.025
-148.811
-118.184
319.193
319.407
320.125
321.255
322.5
323.642
326.339
331.328
330.57
320.907
307.464
305.99
300.246
297.599
240.971
182.417
112.894
34.9373
-131.208
-364.644
-526.939
-565.061
-514.173
-429.321
-343.136
-265.607
-196.133
-149.375
-123.78
-103.606
319.421
319.626
320.454
321.665
322.765
323.263
324.282
329.509
333.298
327.294
314.705
318.565
318.698
310.435
276.947
236.269
195.33
119.257
-43.4747
-242.25
-377.66
-410.7
-369.842
-299.963
-227.607
-165.371
-116.166
-94.343
-92.9376
-83.1945
319.621
319.81
320.656
321.879
323.091
323.868
323.778
326.706
332.171
331.392
321.509
325.114
324.251
309.133
283.222
267.64
245.342
174.554
34.8855
-126.167
-232.563
-255.843
-221.057
-164.185
-105.769
-60.0253
-31.0664
-31.2977
-47.9817
-53.1593
319.795
319.971
320.777
321.95
323.245
324.518
324.674
325.169
329.411
331.684
325.543
327.715
324.726
307.84
287.185
280.873
266.52
209.557
102.506
-17.3363
-94.7414
-106.759
-72.305
-21.7674
26.1595
58.5542
70.6459
51.6089
18.1708
-16.1342
319.936
320.109
320.868
321.977
323.273
324.83
325.59
325.519
327.903
330.461
326.547
327.582
323.28
306.075
293.686
293.894
282.772
240.207
164.044
77.0167
23.3909
25.1128
66.5284
119.597
164.508
187.726
185.633
147.678
93.5221
17.5387
320.038
320.22
320.946
322.008
323.285
324.88
325.901
325.649
328.273
331.13
328.046
327.859
323.781
305.688
297.051
304.996
300.71
268.515
208.214
141.977
111.218
131.78
185.246
243.952
288.035
304.267
290.038