/*--------------------------------*- C++ -*----------------------------------*\
| =========                 |                                                 |
| \\      /  F ield         | OpenFOAM: The Open Source CFD Toolbox           |
|  \\    /   O peration     | Version:  2512                                  |
|   \\  /    A nd           | Website:  www.openfoam.com                      |
|    \\/     M anipulation  |                                                 |
\*---------------------------------------------------------------------------*/
FoamFile
{
    version     2.0;
    format      ascii;
    arch        "LSB;label=32;scalar=64";
    class       surfaceScalarField;
    location    "60";
    object      phi;
}
// * * * * * * * * * * * * * * * * * * * * * * * * * * * * * * * * * * * * * //

dimensions      [0 3 -1 0 0 0 0];

oriented        oriented;

internalField   nonuniform List<scalar> 
278528
(
1.60604
0.00319551
-0.0091718
1.49585
-0.00702551
0.120141
1.59081
-0.151264
0.0632988
2.409
-0.202798
-0.607167
3.71078
-0.0257229
-1.2678
4.72396
0.208869
-1.21369
4.91103
0.335772
-0.512858
4.19063
0.349028
0.383164
2.97609
0.467705
0.763792
1.15087
0.712374
1.13599
-1.52294
1.0472
1.64821
-3.18973
1.26283
0.417149
-3.68039
1.37835
-0.881596
-3.6541
1.36764
-1.39163
-3.43966
1.30231
-1.5168
-3.21051
1.22381
-1.45452
-3.03014
1.146
-1.32867
-2.90686
1.0594
-1.18524
-2.81434
0.968178
-1.06335
-2.72763
0.867365
-0.956833
-2.62573
0.751122
-0.855887
-2.49736
0.618092
-0.749387
-2.33846
0.470094
-0.631854
-2.1496
0.310981
-0.50249
-1.93418
0.147415
-0.365001
-1.69401
-0.012163
-0.22936
-1.43785
-0.154212
-0.102017
-1.2123
-0.254773
0.0305394
-1.06779
-0.311593
0.16893
-0.374797
0.271311
1.58917
0.0120529
0.00115633
1.47148
-0.0172112
0.130185
1.63176
-0.282377
-0.0229969
2.48174
-0.354686
-0.689981
3.7149
-0.00938502
-1.24067
4.646
0.442839
-1.15619
4.80236
0.682391
-0.492711
4.12502
0.668158
0.369907
3.03785
0.826597
0.743021
1.46224
1.26153
1.04611
-1.11478
1.77527
1.8668
-2.90552
2.25456
0.811053
-3.48116
2.57274
-0.612674
-3.46672
2.62229
-1.26671
-3.247
2.56431
-1.48161
-3.01043
2.45125
-1.46539
-2.83007
2.31937
-1.35586
-2.71244
2.15187
-1.21248
-2.63381
1.97464
-1.08757
-2.56592
1.77938
-0.982478
-2.48542
1.56138
-0.893415
-2.38007
1.31874
-0.808717
-2.24785
1.05497
-0.719764
-2.09359
0.775769
-0.621526
-1.92664
0.489955
-0.51151
-1.75554
0.207188
-0.391726
-1.58311
-0.0626891
-0.264063
-1.41572
-0.292692
-0.128429
-1.27741
-0.459639
0.0112298
-0.577398
0.12054
1.55368
0.0283635
0.0280763
1.42411
-0.0257834
0.139635
1.72757
-0.333324
-0.247246
2.71283
-0.324851
-1.00735
3.89609
0.192981
-1.37721
4.68532
0.75654
-1.09417
4.72047
0.972237
-0.315507
4.01624
0.850445
0.531712
3.04962
1.00371
0.801085
1.73146
1.63002
0.96485
-0.704174
2.2118
2.01371
-2.61511
2.90918
1.26716
-3.31082
3.49388
-0.219224
-3.33115
3.68338
-1.03819
-3.12101
3.72001
-1.3656
-2.88089
3.63751
-1.42758
-2.69639
3.49178
-1.35876
-2.57817
3.26252
-1.23094
-2.50203
3.00892
-1.11256
-2.43788
2.72534
-1.01228
-2.36053
2.41452
-0.932691
-2.25474
2.07576
-0.865022
-2.11684
1.714
-0.799087
-1.95028
1.33611
-0.728858
-1.7647
0.951544
-0.64875
-1.5758
0.572245
-0.554876
-1.39879
0.211502
-0.451088
-1.24311
-0.110476
-0.336708
-1.12188
-0.36892
-0.210405
-0.536479
-0.105083
1.51158
0.0496489
0.0640748
1.38613
-0.00660241
0.107171
1.84911
-0.272714
-0.518639
2.94723
-0.148853
-1.26656
4.06777
0.461438
-1.38077
4.67514
0.993492
-0.835562
4.52531
1.04295
0.0872519
3.78621
0.771318
0.826028
2.94666
0.941915
0.91017
1.83696
1.83694
0.914956
-0.388841
2.41584
2.0354
-2.33713
3.17174
1.69652
-3.14915
4.01707
0.29543
-3.23277
4.45822
-0.6883
-3.05516
4.68097
-1.13796
-2.82346
4.6997
-1.29477
-2.63757
4.59014
-1.28585
-2.5128
4.32843
-1.19251
-2.42797
4.01555
-1.09331
-2.35396
3.65451
-1.005
-2.26603
3.25908
-0.934269
-2.14902
2.83384
-0.876811
-1.99946
2.38744
-0.824607
-1.82027
1.92812
-0.772582
-1.61958
1.46585
-0.716041
-1.4084
1.0126
-0.652006
-1.19903
0.584664
-0.582096
-1.00602
0.205333
-0.507326
-0.840875
-0.109955
-0.422383
-0.310908
-0.332143
1.47316
0.0771114
0.0956435
1.36377
0.056724
0.0467535
1.97516
-0.138753
-0.740489
3.14574
0.0375362
-1.34967
4.17763
0.584754
-1.14702
4.53506
0.948225
-0.304289
4.15431
0.757139
0.673277
3.41526
0.35508
1.16105
2.72094
0.609894
1.0331
1.7806
1.88595
0.901194
-0.116408
2.37088
1.95353
-1.99824
2.99887
2.06396
-2.91798
4.02508
0.917015
-3.13968
4.85612
-0.173407
-3.02049
5.34734
-0.784591
-2.81867
5.54079
-1.04343
-2.64171
5.52071
-1.10885
-2.51196
5.26467
-1.06762
-2.41397
4.91825
-1.00239
-2.32323
4.49823
-0.936066
-2.2177
4.03242
-0.880325
-2.0845
3.53382
-0.834495
-1.92009
3.01752
-0.795607
-1.72653
2.49345
-0.759769
-1.50986
1.97271
-0.724088
-1.27894
1.46827
-0.686651
-1.03982
0.995668
-0.649396
-0.804174
0.582025
-0.61069
-0.576832
0.242622
-0.577989
0.0078385
-0.523678
1.43957
0.112424
0.121348
1.35485
0.162685
-0.0204902
2.07759
0.0318859
-0.888626
3.27532
0.143603
-1.29724
4.12668
0.485464
-0.744678
4.15393
0.584328
0.343211
3.59886
0.13876
1.17786
3.02645
-0.438231
1.36836
2.46299
0.0923472
1.08821
1.63474
1.83744
0.887257
0.213156
1.99513
1.81196
-1.49967
2.46106
2.26223
-2.58998
3.58834
1.53341
-3.00452
4.75607
0.518269
-2.9954
5.59668
-0.257062
-2.85142
6.04728
-0.650588
-2.6994
6.17508
-0.807491
-2.5724
5.97558
-0.839445
-2.46182
5.63205
-0.825998
-2.35081
5.18167
-0.795947
-2.22305
4.66866
-0.765292
-2.06906
4.11833
-0.739533
-1.88573
3.55182
-0.718426
-1.67464
2.98213
-0.700271
-1.43994
2.42165
-0.683832
-1.18909
1.88493
-0.667271
-0.924409
1.38755
-0.655682
-0.646506
0.958703
-0.652958
-0.352496
0.624251
-0.6737
0.322405
-0.672756
1.41502
0.153236
0.140941
1.35516
0.308984
-0.0854115
2.13932
0.244693
-0.992821
3.31187
0.198329
-1.22182
3.94932
0.250926
-0.39673
3.67272
0.105315
0.75989
2.93005
-0.486601
1.36924
2.30343
-1.28832
1.4801
1.81592
-0.695258
1.28472
1.48673
0.254882
0.75883
0.226959
0.475411
0.461192
1.02509
0.174792
1.5082
0.157266
0.283251
0.34442
-0.597767
0.384344
2.16867
0.437413
0.535562
0.567242
-1.96227
0.568765
1.97848
0.675812
0.777527
0.956893
-2.72272
0.810655
1.26246
0.924515
1.19926
1.32147
-2.94518
5.31854
0.502477
-2.93555
6.10772
-0.0698012
-2.80031
6.40032
-0.361397
-2.68683
6.35781
-0.497232
-2.56721
6.07062
-0.559886
-2.43505
5.63301
-0.585046
-2.28214
5.10751
-0.593044
-2.10415
4.53454
-0.59514
-1.89949
3.94319
-0.596651
-1.66934
3.34997
-0.598304
-1.41637
2.769
-0.60029
-1.14586
2.21589
-0.601056
-0.856463
1.70854
-0.609446
-0.5389
1.27496
-0.632161
-0.16152
0.95049
-0.701787
0.619464
-0.779168
1.40146
0.195274
0.154404
1.35383
0.49494
-0.137059
2.14753
0.525108
-1.07079
3.26411
0.314848
-1.22913
3.78997
0.0525134
-0.323603
3.37387
-0.234586
0.757265
2.26316
-0.627366
1.25095
0.927699
-1.65016
1.69889
0.148933
-0.712457
1.57352
-0.155853
0.158233
-0.0782292
-0.538493
-0.283766
0.127093
0.20993
-0.0158684
0.211836
0.395561
-0.148997
0.183912
-0.251048
-0.479605
0.483105
0.118958
0.267942
-0.290725
0.0877161
0.430695
0.345312
0.131279
-0.262512
0.586367
0.356754
-2.73159
4.39774
1.336
0.426387
0.339561
0.788309
0.764325
-2.91349
5.58589
0.704311
-2.91813
6.14778
0.256353
-2.8373
6.30089
-0.0255081
-2.71562
6.14743
-0.200329
-2.56676
5.78775
-0.305322
-2.38997
5.29558
-0.366258
-2.18836
4.73755
-0.405646
-1.96354
4.15205
-0.434297
-1.71677
3.55945
-0.456502
-1.44877
2.97625
-0.475157
-1.16134
2.41884
-0.4899
-0.848739
1.90777
-0.510824
-0.492874
1.47011
-0.549416
-0.0365889
1.14639
-0.650403
0.836891
-0.798527
1.40103
0.232908
0.160695
1.34693
0.704711
-0.154105
2.07977
0.899423
-1.10461
3.12506
0.605623
-1.33366
3.68802
0.0754091
-0.584286
3.34658
-0.23445
0.340701
1.81455
-0.102119
1.0041
-0.271685
-0.701848
1.79898
-0.397919
-0.101584
-0.159853
-0.449302
-0.696258
0.161783
-0.282086
-0.617937
0.220666
0.247838
0.430778
-0.182748
0.587211
0.187806
0.734938
-0.357699
-0.301434
-0.312951
-0.353565
0.069372
0.0806972
0.30068
-0.0864726
-0.245866
-0.0949245
-0.204524
0.023162
0.068015
0.0385885
0.0549734
-0.311771
0.493461
-0.296143
0.0757235
-0.116089
-0.0205154
-0.0403192
0.0547389
0.0566634
0.0663507
0.0400907
-0.349838
0.0623699
-0.406574
0.0604633
0.11332
0.0955123
0.0468252
0.0902987
0.0932001
0.0992266
0.0978166
-2.36652
3.16417
2.03451
0.21564
0.118424
0.650326
0.583438
-2.76631
4.50139
1.48471
-2.93176
5.34981
0.962624
-2.95631
5.76546
0.558273
-2.88356
5.81288
0.259705
-2.73457
5.58597
0.0507738
-2.5385
5.18345
-0.085648
-2.3192
4.68961
-0.172597
-2.08163
4.14643
-0.232735
-1.82531
3.57843
-0.275646
-1.54915
3.0095
-0.309372
-1.2501
2.45654
-0.3363
-0.917301
1.94049
-0.364627
-0.52235
1.48648
-0.409802
0.0132253
1.13345
-0.521044
0.899179
-0.723937
1.41531
0.259085
0.159479
1.33985
0.897575
-0.115475
1.99125
1.31708
-1.06706
2.99116
1.0766
-1.46952
3.61467
0.443998
-0.991622
3.3932
0.0777937
-0.0920586
2.01059
0.606079
0.672416
-0.427477
1.15865
1.38796
-0.261523
-0.346362
-0.199677
-0.777081
0.0297814
-0.138758
0.460168
0.221451
0.224461
-0.20255
-0.131046
-0.112808
0.3845
0.0620252
-0.0552645
-0.0608443
-0.105993
-0.0509619
-0.0785217
-0.0942388
0.265281
-0.0325114
0.0467943
-0.226497
-0.0147889
-0.0109093
-0.0178502
-0.00831753
-0.0308013
0.217234
0.00492682
-0.20252
-0.000474493
0.00578856
0.00171447
0.00428107
-0.0643556
0.0300738
-0.0824184
0.0414269
0.0746132
-1.83574
1.58087
2.29697
0.07503
0.122808
0.480089
0.445973
-2.43243
3.01199
2.08653
-2.79168
4.10067
1.60738
-2.96285
4.7948
1.13993
-2.97862
5.07539
0.750918
-2.8827
5.02912
0.458606
-2.7191
4.76468
0.253143
-2.51134
4.36655
0.113725
-2.27074
3.88888
0.0158794
-2.00804
3.36802
-0.0528803
-1.72678
2.83195
-0.103867
-1.4179
2.29537
-0.147495
-1.06256
1.77637
-0.19051
-0.627309
1.2918
-0.239333
-0.0283726
0.862986
-0.326936
0.719369
-0.564435
1.44249
0.269497
0.14968
1.34578
1.02132
-0.024688
1.89882
1.7024
-0.936631
2.8246
1.68346
-1.53156
3.52047
1.11838
-1.36973
3.60108
0.636887
-0.640299
3.11412
0.863679
0.228835
0.252119
1.43031
1.21363
0.53611
0.271187
0.572452
-0.273911
-0.0922979
0.353368
0.270268
-0.208536
0.132125
-0.137994
0.215334
-0.000199345
0.123519
-0.0774815
0.151544
-0.0573036
-0.0143943
-0.0594223
-0.00531499
-0.0610268
0.0772695
-0.135317
0.0927755
-0.0569817
0.0225727
-0.0159666
0.10171
-0.104488
-0.00584994
0.0237728
-1.1144
-0.300511
2.17693
0.0879697
0.0686585
0.356467
0.309722
-1.83163
1.3205
2.40929
-2.40493
2.60059
2.07208
-2.76121
3.53494
1.61393
-2.92158
4.0478
1.18529
-2.91445
4.17797
0.841301
-2.80614
4.06091
0.593005
-2.63679
3.77543
0.419781
-2.43354
3.38705
0.297118
-2.2092
2.93906
0.203701
-1.95723
2.45844
0.121048
-1.66124
1.96333
0.0359829
-1.31254
1.47482
-0.046736
-0.920649
1.01526
-0.1143
-0.521103
0.639319
-0.174922
0.568352
-0.37803
1.48021
0.264454
0.128812
1.37795
1.03446
0.0919244
1.82484
1.95945
-0.702237
2.66486
2.284
-1.43937
3.39619
1.98371
-1.59553
3.74669
1.48122
-1.19423
3.73534
1.32047
-0.444567
0.711278
1.39584
0.544805
0.792829
0.808635
0.914288
-0.282347
0.503815
0.235474
0.259347
-0.0293204
-0.00731538
0.461008
-0.0297452
-0.0217333
-0.0532809
0.0287068
-0.0381961
-0.0405199
0.011441
-0.265666
-0.0469851
0.107366
-0.163246
0.0461879
0.0578597
-0.0216376
0.00547534
0.017378
-0.0720917
0.0721847
0.0547076
-0.0741184
0.0646328
-0.00315989
-0.0408414
0.110993
-0.0202795
-0.0626016
0.0511044
-0.078999
-0.0827671
-1.60916
1.50185
-0.0921758
-0.155762
0.122678
0.0198895
-0.933142
-0.19483
2.36672
-1.80011
1.1932
2.27277
-2.38896
2.21815
1.90303
-2.70117
2.86626
1.49068
-2.81652
3.1518
1.13837
-2.80358
3.16939
0.875642
-2.72458
3.00996
0.684027
-2.62247
2.74587
0.537198
-2.49403
2.4057
0.403604
-2.33688
2.03747
0.262992
-2.14209
1.65855
0.10961
-1.93842
1.30621
-0.0349834
-1.78508
1.00862
-0.146328
-1.69459
0.79742
-0.248253
0.75123
-0.380275
1.52712
0.24624
0.0961236
1.4459
0.933203
0.18561
1.78966
2.01037
-0.392957
2.52918
2.6961
-1.15019
3.29021
2.76501
-1.54055
3.77726
2.45669
-1.46076
3.99116
2.12109
-1.01262
3.79205
1.84878
-0.249432
0.553054
1.34402
0.824982
-0.235303
-0.152234
-0.31753
-0.230626
0.631212
0.635789
0.746664
-0.0214598
0.190123
0.117251
0.278431
-0.184497
-0.390925
0.109876
0.267138
0.202278
-0.563449
0.304503
-0.0834022
0.496962
-0.151065
0.0225211
-0.175834
0.0400473
0.0907032
0.0212339
0.21716
-0.210124
0.280706
-0.103742
-0.182435
1.08941
-2.33041
0.707952
-0.309061
-0.353315
-0.161321
-0.246141
0.377059
-1.19706
1.71726
-0.893346
0.332236
2.12955
-1.80168
1.16643
1.957
-2.37223
1.81551
1.61787
-2.69961
2.18003
1.29561
-2.88189
2.31341
1.03493
-2.9856
2.29042
0.820414
-3.03338
2.16723
0.624157
-3.03339
1.98291
0.421163
-2.96838
1.76637
0.204945
-2.85172
1.54421
-0.00299657
-2.72802
1.35429
-0.172055
-2.61705
1.18853
-0.290762
-2.49677
1.04731
-0.36998
0.968943
-0.396123
1.57455
0.217907
0.0594362
1.53374
0.760577
0.216707
1.82284
1.79815
-0.0752915
2.46519
2.76698
-0.711745
3.19364
3.22849
-1.18962
3.75405
3.21606
-1.3172
4.05507
2.93737
-1.11459
4.04876
2.49644
-0.63734
3.25201
1.97871
0.167659
1.3342
1.4246
1.08897
-0.179652
-0.0906372
-0.25112
-0.0617525
-0.272939
0.56483
1.14926
-0.0161441
-0.365016
0.249411
0.0393051
0.181952
0.92576
-0.00537941
-0.326579
-0.541165
-0.107265
-0.383633
1.36629
1.14976
-0.6156
-0.243906
-0.422963
-0.577327
-0.460862
1.64898
-0.904868
-0.571859
0.0219158
0.303375
0.315553
0.566196
1.47104
-2.68634
0.540645
0.962115
-2.02915
1.34425
-0.10364
-0.310296
1.70729
-1.39919
0.666045
1.79322
-2.32593
1.18432
1.5545
-2.94438
1.53218
1.26267
-3.35131
1.72549
0.991343
-3.6026
1.80107
0.737568
-3.72092
1.7941
0.488967
-3.71597
1.7336
0.242484
-3.61191
1.64182
0.0191377
-3.46318
1.54333
-0.148694
-3.2968
1.44039
-0.252858
-3.12029
1.31401
-0.30199
-2.93522
1.17715
-0.314892
1.07835
-0.299211
1.60967
0.1832
0.0307957
1.62815
0.569477
0.175651
1.8811
1.38388
0.162404
2.42929
2.43598
-0.215892
3.09986
3.18782
-0.627296
3.65268
3.47447
-0.80807
3.96582
3.36693
-0.739421
4.04664
2.89081
-0.471554
3.64543
2.317
0.066963
2.53198
1.9418
0.602182
1.30474
1.32486
0.478493
1.16998
0.913535
0.163234
2.02017
0.819411
-0.505231
2.08609
-0.750768
-0.206951
1.06969
-2.58539
0.92343
-0.098373
-2.4348
1.57816
-1.03303
-0.960193
1.58414
-2.17067
0.276461
1.52477
-3.13049
0.833568
1.30762
-3.78225
1.15871
1.02188
-4.17031
1.36476
0.745391
-4.34905
1.486
0.490715
-4.36389
1.54401
0.26234
-4.25394
1.55402
0.0676165
-4.07427
1.52861
-0.0679332
-3.87001
1.47555
-0.137422
-3.655
1.38775
-0.162798
-3.44638
1.26298
-0.157638
-3.24757
1.12189
-0.143528
1.02056
-0.131586
1.62959
0.145218
0.0137218
1.69888
0.408119
0.0943783
1.92632
0.909006
0.247447
2.39028
1.77358
0.198693
2.97066
2.60365
0.00583996
3.44533
3.08442
-0.0813805
3.71563
3.11847
-0.018197
3.75759
2.71314
0.139148
3.52721
2.12803
0.422564
3.03877
1.89245
0.542711
2.47191
1.81931
0.0810289
2.22628
1.41678
-0.245866
2.6092
0.887438
-0.436879
2.54692
-0.589934
-0.0864849
0.961307
-1.8481
0.856411
-1.29047
-1.85493
1.67637
-2.72746
-1.05211
1.52898
-3.56701
-0.15487
1.26893
-4.22059
0.479079
1.0053
-4.63431
0.82607
0.743177
-4.82506
1.03499
0.517168
-4.84129
1.16439
0.334675
-4.73055
1.2343
0.196239
-4.53474
1.25234
0.103684
-4.28991
1.22379
0.058372
-4.02282
1.15628
0.0511358
-3.75379
1.05467
0.0635925
-3.50074
0.922957
0.0869863
-3.2679
0.783719
0.105405
0.697608
0.103458
1.63836
0.106778
0.00429651
1.74798
0.281607
0.017863
1.93446
0.535329
0.184946
2.28547
1.03673
0.3847
2.71572
1.67834
0.497809
3.02594
2.14678
0.631705
3.16353
2.21202
0.772618
3.13583
1.89128
0.852296
2.94703
1.41023
0.90908
2.78224
1.34354
0.717085
2.78159
1.76431
0.0627973
2.82364
1.66737
-0.282897
3.0302
0.888306
-0.198114
3.10055
-0.61987
-0.030224
2.19868
-1.31827
0.380908
-0.209336
-0.737393
1.29599
-2.52265
-0.261305
1.52305
-3.65259
-0.248623
1.22143
-4.21021
0.12728
0.906457
-4.457
0.397926
0.671437
-4.4883
0.549397
0.513141
-4.37053
0.62966
0.413335
-4.15571
0.657012
0.359266
-3.88556
0.638812
0.340793
-3.59273
0.582757
0.346284
-3.29916
0.500878
0.360627
-3.02101
0.402631
0.373395
-2.77514
0.292273
0.384852
-2.54976
0.181239
0.377186
0.0921381
0.325823
1.64204
0.0695979
-0.00148037
1.78205
0.174994
-0.0343904
1.9382
0.305145
0.0702631
2.15636
0.501127
0.315058
2.36818
0.807412
0.65973
2.42301
1.05177
1.04361
2.37206
1.00745
1.25935
2.25992
0.755738
1.25056
2.02861
0.471458
1.17152
1.93486
0.578665
0.862129
2.27963
1.2491
0.17659
2.67386
1.37175
-0.091912
3.02521
0.53419
0.0111115
3.00812
-0.845872
0.251928
2.61067
-1.38548
0.473568
1.85946
-0.718572
0.739051
0.270748
0.136871
1.19205
-1.62781
0.375901
1.27153
-2.68489
0.193295
0.987606
-3.16456
0.117064
0.756631
-3.35295
0.106546
0.62708
-3.39124
0.1088
0.555123
-3.35258
0.103055
0.511717
-3.27668
0.0802457
0.479777
-3.18189
0.0392507
0.446575
-3.06685
-0.0156868
0.400204
-2.92758
-0.07937
0.342205
-2.77463
-0.14837
0.287696
-2.5917
-0.226807
0.225166
-0.316136
0.126117
1.64307
0.0326545
-0.00548506
1.80261
0.0798429
-0.0677663
1.96259
0.143589
-0.00743207
2.10172
0.195603
0.156796
2.08442
0.268595
0.553438
1.79752
0.264119
1.07763
1.48116
0.0689326
1.26099
1.20979
-0.140637
1.17396
0.750483
-0.226785
1.16226
0.50917
0.087112
0.740226
1.19581
0.61745
-0.0434671
1.92019
0.957482
-0.296326
2.34393
0.235277
-0.108963
1.60858
-0.758139
0.663423
-0.44651
-0.546535
1.23252
-2.37146
-0.0215326
1.2388
-3.43551
0.130064
1.07483
-4.07672
0.15027
0.86705
-4.46244
0.00237849
0.5747
-4.6202
-0.0882047
0.359857
-4.61724
-0.124673
0.224429
-4.50499
-0.138278
0.130858
-4.31378
-0.147407
0.0555396
-4.07135
-0.157021
-0.00832592
-3.8005
-0.168893
-0.0651655
-3.50942
-0.18392
-0.124492
-3.20263
-0.200195
-0.186851
-2.89619
-0.217224
-0.2379
-2.59127
-0.243605
-0.288335
-0.272472
-0.382103
1.64303
-0.0103636
1.8056
-0.0861788
1.96748
-0.0242102
2.09596
0.0625207
1.96125
0.402123
1.39624
0.831419
0.757625
0.711005
-0.0379599
0.658732
-0.944887
0.683544
-0.941463
0.089498
-0.0344413
-0.280526
1.04155
-0.107783
0.658681
0.629819
-1.52638
1.43586
-3.27812
1.21136
-4.18982
0.893905
-4.64505
0.586878
-4.78833
0.293507
-4.81152
0.0245373
-4.74717
-0.154203
-4.61428
-0.259552
-4.42516
-0.329474
-4.19366
-0.38084
-3.9321
-0.420242
-3.6501
-0.452167
-3.35042
-0.484459
-3.03166
-0.519409
-2.70595
-0.543127
-2.3805
-0.569147
-0.666501
1.57588
0.0137048
-0.000565467
1.60438
-0.0130163
0.104458
2.21662
-0.113358
-0.434767
3.5262
-0.0769013
-1.83823
4.77878
0.0962944
-2.6143
5.34237
0.247392
-2.02101
5.15145
0.307166
-0.623575
4.3964
0.318191
0.827565
2.99537
0.475777
1.69867
0.212855
0.968256
2.96145
-2.06388
1.39418
2.53793
-2.73223
1.18916
-0.0993154
-2.86976
1.14482
-1.88634
-2.71397
1.11746
-2.66361
-2.45381
1.09764
-2.87399
-2.22133
1.07425
-2.76125
-2.08727
1.05356
-2.51663
-2.04399
1.02251
-2.25157
-2.07829
0.980713
-2.01047
-2.15457
0.927836
-1.80921
-2.23448
0.861624
-1.63853
-2.28769
0.780018
-1.47721
-2.29878
0.683816
-1.3056
-2.26649
0.575388
-1.11119
-2.19692
0.457913
-0.893411
-2.11273
0.329293
-0.643589
-2.02504
0.192589
-0.382689
-1.93615
0.0471346
-0.105363
-1.85271
-0.0852215
0.171133
-0.176363
0.386063
1.57121
0.028219
0.0130349
1.62687
-0.0277535
0.0887183
2.24773
-0.203393
-0.553212
3.45389
-0.129608
-1.84184
4.60364
0.19837
-2.4899
5.1631
0.49617
-1.96047
5.0471
0.62068
-0.684393
4.40317
0.614929
0.72442
3.24287
0.816074
1.57161
0.700681
1.69515
2.87041
-1.63155
2.49941
3.09984
-2.39186
2.1889
0.57592
-2.52047
2.10873
-1.44544
-2.36345
2.121
-2.42598
-2.08879
2.1445
-2.8027
-1.83932
2.14765
-2.78841
-1.69304
2.1318
-2.58085
-1.64474
2.07483
-2.31375
-1.68676
1.993
-2.05861
-1.78125
1.88748
-1.84852
-1.8877
1.75567
-1.68197
-1.97154
1.59448
-1.54036
-2.01119
1.40548
-1.4028
-1.99955
1.19593
-1.25468
-1.9391
0.960284
-1.07518
-1.85093
0.716396
-0.867625
-1.75018
0.464143
-0.636608
-1.66274
0.209989
-0.378461
-1.60319
-0.026079
-0.106917
-0.198781
0.122642
1.55532
0.0461401
0.0517647
1.68006
-0.0393056
0.0255873
2.41175
-0.230449
-0.951391
3.56108
-0.0963799
-2.18824
4.57188
0.333748
-2.52063
5.05491
0.714228
-1.79114
4.96284
0.844269
-0.441611
4.40968
0.761873
0.944101
3.43723
0.970877
1.62577
1.08815
2.23732
2.77879
-1.29201
3.30428
3.59402
-2.1425
2.93703
1.37335
-2.26531
2.81763
-0.802972
-2.11247
2.92448
-1.99348
-1.82918
3.05766
-2.56175
-1.56412
3.1519
-2.69716
-1.4042
3.18633
-2.57373
-1.34762
3.12759
-2.34093
-1.38605
3.01375
-2.09562
-1.48142
2.85524
-1.88548
-1.59217
2.65614
-1.72329
-1.68221
2.41556
-1.59695
-1.72903
2.14475
-1.49239
-1.71162
1.82529
-1.37641
-1.65345
1.49209
-1.23935
-1.55697
1.14628
-1.08167
-1.44212
0.796842
-0.898706
-1.33672
0.455973
-0.68772
-1.26114
0.141911
-0.453374
-0.0869943
-0.221771
1.544
0.0636201
0.099159
1.74912
-0.0224583
-0.115624
2.56851
-0.17863
-1.38913
3.65983
-0.0148681
-2.43745
4.55582
0.420461
-2.36039
4.97348
0.77975
-1.31481
4.87338
0.840085
0.196139
4.36436
0.610556
1.49129
3.46451
0.919152
1.86753
1.20448
2.69713
2.72104
-1.12051
3.75414
3.91523
-1.96366
3.31875
2.16158
-2.08037
3.2651
-0.0330494
-1.94183
3.48761
-1.38883
-1.66564
3.77814
-2.13446
-1.39668
4.02146
-2.4336
-1.22747
4.15604
-2.42528
-1.15835
4.12642
-2.26107
-1.18215
3.99621
-2.05267
-1.26235
3.78938
-1.8597
-1.35835
3.52541
-1.7083
-1.43446
3.20964
-1.59553
-1.45816
2.86075
-1.51759
-1.43781
2.45424
-1.42246
-1.36583
2.03592
-1.3323
-1.25415
1.60703
-1.22465
-1.12098
1.18062
-1.09894
-0.996105
0.774326
-0.950058
-0.903603
0.406849
-0.779168
0.131813
-0.559254
1.53396
0.0846752
0.137205
1.81187
0.039425
-0.293522
2.68521
-0.0732898
-1.71803
3.72949
0.0394874
-2.44613
4.52453
0.361674
-1.88036
4.86303
0.597144
-0.456607
4.6886
0.489332
1.20163
4.15721
0.0819065
2.22459
3.20299
0.727633
2.18446
1.00058
3.11805
2.68909
-1.08755
3.76504
4.03589
-1.90955
3.33685
2.87143
-1.98426
3.44084
0.81838
-1.83452
3.81589
-0.650303
-1.58411
4.26996
-1.52649
-1.33075
4.68947
-1.96506
-1.16241
4.96312
-2.08475
-1.0817
4.99373
-2.01622
-1.08338
4.86927
-1.8744
-1.13532
4.6285
-1.72391
-1.20086
4.30968
-1.59971
-1.25677
3.94521
-1.51475
-1.24443
3.50013
-1.44784
-1.19927
3.03937
-1.39045
-1.10433
2.55583
-1.33917
-0.970065
2.06472
-1.27863
-0.812236
1.58239
-1.20871
-0.65632
1.13258
-1.12425
-0.526684
0.736265
-1.03634
0.419791
-0.852374
1.52614
0.114089
0.162871
1.85783
0.144863
-0.457581
2.75159
0.0598778
-1.91413
3.74841
0.0363252
-2.28894
4.4847
0.13583
-1.25271
4.64463
0.17538
0.607108
4.32928
-0.196944
2.18094
3.77545
-0.697796
2.70532
2.61791
0.662829
2.31684
0.572286
3.44952
2.60808
-1.11904
3.2978
3.97288
-1.87411
2.90619
3.44853
-1.98376
3.35057
1.73264
-1.81644
3.95801
0.208171
-1.5856
4.54664
-0.764393
-1.36424
5.11442
-1.29705
-1.20721
5.53363
-1.53544
-1.11973
5.65074
-1.58447
-1.09598
5.55648
-1.53757
-1.11058
5.30367
-1.45713
-1.14964
4.97144
-1.38857
-1.13044
4.51823
-1.33224
-1.099
4.04311
-1.29321
-1.02081
3.53539
-1.27471
-0.896689
3.00731
-1.25952
-0.734307
2.47541
-1.24022
-0.54554
1.95759
-1.21926
-0.350943
1.47947
-1.19375
-0.168567
1.07297
-1.19205
0.722745
-1.07518
1.52315
0.152007
0.177784
1.88536
0.293982
-0.596257
2.75633
0.235995
-2.03846
3.69111
0.0408441
-2.1596
4.3091
-0.106149
-0.771574
4.24547
-0.299422
1.29849
3.55939
-0.812414
2.67107
2.86247
-1.32778
2.80921
1.80124
0.809261
2.2063
0.458403
0.797372
2.25753
0.777626
0.904387
0.817599
-0.685052
0.592569
3.52801
0.615362
0.629174
0.586606
-1.65932
0.644654
3.63191
0.685022
0.532729
0.554168
-2.00118
0.804145
2.52206
0.937854
0.643165
0.761683
-1.95039
1.04479
1.16219
1.13466
0.857488
0.969841
-1.7067
4.63814
0.167276
-1.51679
5.3132
-0.458633
-1.36332
5.8167
-0.79837
-1.27017
6.03438
-0.974595
-1.21841
5.99431
-1.05011
-1.21127
5.78241
-1.07155
-1.15644
5.38934
-1.06631
-1.11392
4.93616
-1.05601
-1.03821
4.43396
-1.06349
-0.922795
3.90062
-1.07908
-0.767245
3.34909
-1.0976
-0.575186
2.79546
-1.11295
-0.353147
2.25826
-1.13168
-0.115867
1.76289
-1.15212
0.13195
1.34897
-1.22483
0.979407
-1.20295
1.52286
0.197821
0.184646
1.8828
0.483748
-0.685949
2.70338
0.491406
-2.14548
3.55319
0.160311
-2.1975
4.06591
-0.181469
-0.760925
3.71789
-0.421295
1.22617
2.25232
-0.716414
2.61886
1.20961
-1.40856
2.82498
0.248366
0.00890998
1.75768
0.139921
0.187633
0.131693
0.365327
0.217701
0.546637
-0.196226
0.234551
0.705388
0.304873
-0.421351
0.205131
0.321914
0.67677
-0.187612
-0.489504
-0.0138423
-0.267439
0.658372
0.758263
-0.606501
0.491643
-0.607869
0.804046
0.722513
-0.49831
0.671323
-0.670643
1.04243
0.499295
-2.0212
4.34683
1.25075
0.637379
0.671859
0.528472
0.55997
-1.78087
5.22943
0.547622
-1.62613
5.83514
0.0827291
-1.55279
6.16867
-0.233787
-1.4714
6.15507
-0.443218
-1.36593
5.9465
-0.575581
-1.28724
5.59759
-0.653824
-1.19277
5.14846
-0.712857
-1.07252
4.64364
-0.764525
-0.920977
4.10615
-0.813694
-0.735983
3.5497
-0.86072
-0.517098
2.98981
-0.902898
-0.264102
2.44443
-0.949509
0.0149255
1.93768
-1.00245
0.329916
1.51399
-1.12964
1.1548
-1.20615
1.52528
0.245773
0.187433
1.85161
0.698991
-0.694657
2.58856
0.843895
-2.19294
3.3327
0.49127
-2.40826
3.75593
0.0360083
-1.22542
3.21532
-0.0257699
0.483739
1.28993
0.136513
2.07429
0.00846535
-0.53629
2.35284
-0.139087
0.114479
-0.116771
-0.340025
-0.00939966
0.00580229
0.364984
-0.274683
0.784521
0.391636
-0.296762
-0.733382
0.13152
0.616316
-0.719861
0.448821
-0.239181
-0.193041
-0.0940257
-0.15749
-0.116437
0.138093
0.0861448
0.0779205
0.152105
-0.0517578
0.0732287
-0.178678
-0.0983511
0.166671
0.0889033
0.184976
-0.120737
-0.200494
-0.199736
0.194307
0.141271
0.219694
-0.146312
-0.266555
0.260819
0.147528
-0.215385
-2.40948
3.70753
2.39351
0.711676
0.705164
0.626448
0.64655
-2.23851
4.85316
1.68983
-2.07553
5.57228
1.06195
-1.90324
5.96467
0.58918
-1.76497
6.04258
0.233007
-1.63629
5.88461
-0.0169187
-1.50829
5.57297
-0.189818
-1.36636
5.147
-0.313666
-1.20564
4.65911
-0.409306
-1.0226
4.13688
-0.489584
-0.813907
3.59148
-0.559835
-0.575292
3.03704
-0.621947
-0.299119
2.49079
-0.686695
0.016697
1.97433
-0.761504
0.397045
1.53361
-0.920234
1.2171
-1.08153
1.53085
0.28589
0.189463
1.82407
0.895714
-0.604247
2.48381
1.24922
-2.13117
3.14204
1.01712
-2.65321
3.46198
0.591789
-1.86767
3.15571
0.581204
-0.394394
1.47252
1.20091
1.28955
-0.414081
1.52967
2.15355
-0.2595
-0.418842
-0.264739
-0.730995
0.300605
0.0656953
0.0555532
-0.101633
0.128143
-0.184792
0.252488
-0.279405
0.159053
-0.075059
-0.00243744
-0.0403703
0.0831706
-0.0881264
0.0399876
0.00776649
-0.0111286
0.0083201
0.0178846
-0.0179268
0.0141544
-0.00235524
-0.0033446
-0.0025856
-0.00307059
0.000221781
-0.00536794
0.023276
-0.0233043
0.00136713
0.00080327
0.00116017
0.000918199
0.000921312
0.016615
-9.83602e-05
-0.00789045
0.00472542
0.00107287
-0.0143623
-2.70709
2.79668
3.24042
0.694566
0.664953
0.667622
0.64775
-2.66748
4.11276
2.78704
-2.55644
5.00018
2.0677
-2.40148
5.5112
1.43741
-2.21985
5.67807
0.932647
-2.02924
5.58941
0.562056
-1.83448
5.32849
0.301829
-1.63691
4.94523
0.117096
-1.43827
4.49413
-0.0183527
-1.23124
4.00119
-0.124519
-1.00564
3.47553
-0.213627
-0.755062
2.93293
-0.293863
-0.467458
2.38987
-0.376826
-0.125708
1.86199
-0.46805
0.314878
1.39858
-0.631835
1.14688
-0.856413
1.54091
0.308691
0.187807
1.80463
1.02986
-0.421218
2.42819
1.6202
-1.9303
3.03307
1.65175
-2.77064
3.3323
1.34891
-2.42601
3.27168
1.27412
-1.273
2.73166
1.69796
0.270875
0.274431
2.08174
1.76608
0.545546
0.27293
0.535999
-0.332205
0.0909001
0.372091
0.615993
-0.469281
0.0007507
-0.0476008
-0.025362
0.0424555
-0.0562224
0.0869871
-0.00235828
0.00357291
-0.00101547
0.00242665
-0.00291343
0.000293712
-2.72861
1.59168
3.6025
0.633731
0.605857
0.638593
0.63112
-2.95445
3.09735
3.65037
-2.98508
4.13232
2.96966
-2.88957
4.79033
2.23798
-2.71804
5.07822
1.61217
-2.49914
5.07317
1.13721
-2.2655
4.88673
0.799795
-2.02904
4.56673
0.560731
-1.79228
4.16562
0.388082
-1.55063
3.70874
0.253985
-1.3031
3.21149
0.13728
-1.05073
2.6911
0.0253697
-0.777856
2.16076
-0.0903178
-0.454614
1.62694
-0.20202
-0.0354627
1.14272
-0.337575
0.949818
-0.586948
1.55799
0.306505
0.175674
1.79997
1.0717
-0.190396
2.40841
1.86153
-1.55119
3.05834
2.18264
-2.61964
3.42454
2.11877
-2.73098
3.49851
2.06811
-2.06179
3.41952
2.1847
-0.85192
0.7733
2.24373
0.54307
0.86821
0.762089
0.858139
-0.34409
-0.467026
0.660038
0.361697
0.564472
0.0715442
-0.202896
1.11757
-0.936409
0.0711433
0.0807014
0.102527
-0.000141036
0.0289573
0.0306518
0.00614773
-0.363326
0.0345741
-0.102004
-0.000669496
-0.00105769
0.117472
-0.155067
0.0303944
0.0403275
0.0363166
-0.00757451
0.00672749
0.00804538
-0.00858871
-0.0052661
0.00669549
-0.0079821
0.00599009
0.00731131
-0.00421774
-0.0111466
0.00997618
-0.0205594
0.0093613
0.0146936
-0.0341512
0.0565716
-0.00525126
-0.0211803
-0.0133931
-0.014125
0.00974506
0.00895414
0.00951108
-2.41271
0.0829374
3.37176
0.50331
0.426241
0.583132
0.541024
-2.92647
1.88604
4.09203
-3.22269
3.09366
3.60663
-3.31277
3.89547
2.88646
-3.19746
4.26611
2.1858
-3.00323
4.36668
1.64892
-2.72911
4.23641
1.25023
-2.51224
4.05086
0.98164
-2.25031
3.68294
0.75688
-1.98359
3.27115
0.57373
-1.73221
2.82085
0.401716
-1.51757
2.35118
0.234586
-1.3402
1.8768
0.0716087
-1.21132
1.41535
-0.0631539
-1.17589
1.03231
-0.172621
0.868049
-0.409801
1.57977
0.278253
0.147962
1.80609
1.01427
0.018355
2.42731
1.87569
-1.02756
3.108
2.46716
-2.11475
3.57578
2.68406
-2.57263
3.83549
2.73416
-2.3854
3.89527
2.72165
-1.60804
3.87167
2.54486
-0.52511
0.744044
2.00717
0.802075
-0.393052
-0.28529
-0.444339
-0.302834
0.83244
0.839531
0.902608
0.0238765
-0.520154
0.403143
0.174655
0.667831
0.776942
-0.463052
-0.218283
-0.668303
0.571921
0.00308092
-0.0228334
0.187392
0.27836
-0.357228
0.0363986
-0.0708643
-0.0149008
-0.0212851
-0.0128994
-0.166118
-0.0099005
0.453017
-0.360096
0.681355
-0.061005
-0.235214
-0.112277
-0.188489
0.00152017
0.294989
0.220138
-0.131112
-0.322549
-0.104886
-0.0325044
0.0581993
0.0198587
-1.48801
-1.2775
2.76039
0.174746
0.0593613
0.339522
0.227851
-2.46421
0.684228
3.89586
-3.20516
2.13385
3.82938
-3.53032
2.94336
3.2327
-3.58363
3.38432
2.55116
-3.50151
3.56962
2.00862
-3.31858
3.52263
1.56391
-3.04426
3.34539
1.24991
-2.74815
3.05262
0.957055
-2.50524
2.73615
0.712246
-2.34369
2.38423
0.479234
-2.25867
2.00394
0.258715
-2.25909
1.64702
0.0580241
-2.34308
1.31322
-0.104363
-2.47281
1.02978
-0.237345