/*--------------------------------*- C++ -*----------------------------------*\
| =========                 |                                                 |
| \\      /  F ield         | OpenFOAM: The Open Source CFD Toolbox           |
|  \\    /   O peration     | Version:  2512                                  |
|   \\  /    A nd           | Website:  www.openfoam.com                      |
|    \\/     M anipulation  |                                                 |
\*---------------------------------------------------------------------------*/
FoamFile
{
    version     2.0;
    format      ascii;
    arch        "LSB;label=32;scalar=64";
    class       surfaceScalarField;
    location    "60";
    object      phi;
}
// * * * * * * * * * * * * * * * * * * * * * * * * * * * * * * * * * * * * * //

dimensions      [0 3 -1 0 0 0 0];

oriented        oriented;

internalField   nonuniform List<scalar> 
260615
(
1.59924
-0.000236785
0.000504775
1.59816
-0.00146497
0.00207162
1.59664
-0.00323704
0.00436197
1.59447
-0.00511861
0.00700661
1.59272
-0.00825878
0.00978325
1.5914
-0.0160131
0.0170137
1.58789
-0.0268191
0.0295731
1.58806
-0.0392839
0.0375827
1.60011
-0.0613244
0.0475078
1.6258
-0.109166
0.0828059
1.67229
-0.168204
0.120126
1.66524
-0.109627
0.113051
1.63078
0.0197352
0.00966128
1.63042
0.161479
-0.16497
1.79472
0.254089
-0.418248
2.36266
0.326858
-0.892161
3.24814
0.368408
-1.25259
3.92598
0.354884
-1.03343
4.14037
0.315915
-0.53286
3.91155
0.263354
-0.0388792
3.35911
0.193635
0.354013
2.66033
0.117487
0.577496
1.99491
0.0546547
0.609267
1.47048
0.016085
0.510008
1.08923
0.00629933
0.379874
0.830123
0.0264671
0.24048
0.770865
0.0261838
0.043546
0.919328
-0.0532785
-0.0832694
1.18699
-0.185078
-0.0717687
-0.286705
-0.0637825
1.59917
-0.000463609
0.000533962
1.59801
-0.00282603
0.002026
1.59647
-0.00618794
0.00407614
1.59404
-0.0102269
0.00722433
1.59099
-0.0162001
0.0107215
1.58789
-0.0286896
0.0154576
1.58424
-0.0496751
0.0258229
1.58095
-0.0791574
0.0418774
1.5839
-0.125141
0.0596607
1.60626
-0.20949
0.0775478
1.69222
-0.363413
0.107696
1.72929
-0.304025
0.153756
1.69232
-0.0902641
0.141362
1.64526
0.196656
0.00719952
1.7584
0.401116
-0.260463
2.29447
0.561222
-0.768101
3.17275
0.679467
-1.18809
3.85749
0.691844
-1.02223
4.08949
0.624413
-0.542701
3.87897
0.511572
-0.0415853
3.34234
0.355836
0.369956
2.66397
0.180756
0.611396
2.0318
0.0262424
0.658879
1.55691
-0.0815751
0.573784
1.23834
-0.125666
0.454396
1.04406
-0.101288
0.327782
0.996009
-0.0812526
0.162999
1.11648
-0.191233
0.0269405
1.34157
-0.375113
-0.0260718
-0.471275
-0.0711875
1.59911
-0.000670606
0.000557321
1.59761
-0.00396797
0.00213172
1.59548
-0.00845918
0.00395806
1.59243
-0.0144799
0.00695523
1.5876
-0.0235171
0.0118262
1.58019
-0.0394214
0.0177718
1.57123
-0.0676304
0.0262784
1.56221
-0.113814
0.0426835
1.55518
-0.192298
0.073492
1.56955
-0.313243
0.0884329
1.70498
-0.624174
0.123976
1.78629
-0.573681
0.185256
1.77067
-0.285865
0.205827
1.71188
0.122547
0.128308
1.78146
0.441878
-0.110624
2.2686
0.708247
-0.632035
3.11013
0.925156
-1.0861
3.78205
0.978478
-0.95902
4.01426
0.889376
-0.498995
3.80343
0.707415
0.0117334
3.26734
0.449827
0.438118
2.59896
0.159763
0.685598
1.99014
-0.0942847
0.727218
1.54862
-0.257637
0.617985
1.28118
-0.307608
0.451882
1.14256
-0.265794
0.306838
1.10137
-0.226601
0.191634
1.19009
-0.353456
0.080566
1.39724
-0.56571
-0.00945798
-0.69558
-0.0441825
1.59906
-0.000839214
0.000558726
1.59719
-0.00485354
0.00220915
1.59438
-0.0101916
0.0040726
1.59031
-0.0178814
0.00706508
1.58379
-0.0297131
0.0123325
1.57297
-0.0484542
0.0194167
1.55745
-0.0811972
0.0284377
1.5341
-0.135785
0.0445718
1.51502
-0.250566
0.0759338
1.51813
-0.410808
0.0937821
1.69945
-1.04914
0.242617
1.77952
-0.99202
0.335679
1.77206
-0.590164
0.307152
1.75073
-0.0726328
0.211876
1.82789
0.357022
0.00749561
2.27171
0.751328
-0.484816
3.05704
1.08466
-0.943789
3.69813
1.19004
-0.853112
3.91563
1.08458
-0.414268
3.68759
0.82145
0.111188
3.13831
0.44812
0.547107
2.47436
0.0481362
0.771656
1.89346
-0.271647
0.755678
1.49561
-0.42443
0.564138
1.28121
-0.429754
0.337592
1.20014
-0.405447
0.22244
1.20417
-0.451183
0.22323
1.29275
-0.667519
0.230054
1.47662
-0.93323
0.188752
-1.15498
0.144484
1.59898
-0.000969462
0.000573271
1.5968
-0.00544412
0.00221124
1.59331
-0.011347
0.0041304
1.58761
-0.0198568
0.00722505
1.57783
-0.0326979
0.0123235
1.56155
-0.0527841
0.0200776
1.5379
-0.0884901
0.0302779
1.49358
-0.148363
0.0555468
1.46082
-0.290413
0.0717714
1.36404
-0.48289
0.168054
1.51996
-1.63064
0.423053
1.59233
-1.46802
0.40111
1.5741
-0.843803
0.267004
1.63422
-0.288785
0.151325
1.80989
0.183133
-0.00165796
2.26663
0.684662
-0.387989
2.99957
1.13611
-0.783377
3.59752
1.29922
-0.707621
3.78472
1.17943
-0.283605
3.52103
0.827356
0.254959
2.94694
0.341183
0.677142
2.30008
-0.145539
0.836308
1.78362
-0.459578
0.701302
1.46211
-0.537969
0.433663
1.30263
-0.566201
0.295625
1.26993
-0.713443
0.340749
1.32927
-0.964218
0.454509
1.44673
-1.30657
0.524048
1.62293
-1.62381
0.51756
-1.93223
0.447113
1.59887
-0.00102683
0.000590503
1.59639
-0.00575991
0.0022044
1.59211
-0.011755
0.00414084
1.58462
-0.0200887
0.00722527
1.5715
-0.0326133
0.0125324
1.5493
-0.0524661
0.021278
1.51331
-0.0859601
0.0324061
1.44425
-0.147979
0.0675976
1.37125
-0.277175
0.0586825
1.00765
-0.493693
0.370801
1.15053
-2.10608
0.330487
1.29495
-1.57493
-0.0405237
1.35677
-0.695881
-0.214729
1.48772
-0.19798
-0.225546
1.75606
0.149562
-0.234364
2.2488
0.621184
-0.427132
2.94088
1.11757
-0.672633
3.48188
1.31102
-0.553442
3.61054
1.1598
-0.110792
3.28505
0.715958
0.433945
2.68605
0.129562
0.806427
2.09271
-0.371069
0.814581
1.6674
-0.578222
0.540656
1.419
-0.709744
0.418328
1.33114
-1.04089
0.561497
1.37435
-1.50667
0.749249
1.49515
-1.94197
0.856868
1.62947
-2.30854
0.869019
1.78793
-2.59849
0.818416
-2.90382
0.680773
1.59871
-0.000964166
0.000601067
1.59594
-0.00579487
0.00218309
1.59109
-0.0117051
0.00422584
1.58237
-0.0192848
0.00739696
1.56636
-0.0300693
0.0129143
1.53977
-0.0475851
0.0209303
1.48868
-0.0702503
0.0342395
1.39809
-0.123018
0.0644565
1.22542
-0.178545
0.0707854
0.529366
-0.309546
0.509428
0.762742
-0.265308
-0.390599
-0.482272
-0.522345
-0.679675
1.14743
-0.366211
-0.90177
-0.219682
-0.350357
-0.121481
1.26777
-0.0562223
-0.865022
-0.0175953
0.0425284
0.077676
1.42085
0.0213861
-0.644063
0.0280155
0.111741
0.129325
1.71314
0.349498
-0.491522
2.20887
0.659469
-0.532073
2.86892
1.08614
-0.627934
3.33811
1.26711
-0.426074
3.38026
1.0512
0.0642929
2.98391
0.503365
0.605793
2.39759
-0.137426
0.849347
1.88561
-0.499486
0.636576
1.54253
-0.777155
0.539251
1.40149
-1.38156
0.811309
1.43093
-2.15843
1.08712
1.54314
-2.81213
1.19252
1.68033
-3.25324
1.17396
1.80614
-3.5202
1.08702
1.95839
-3.71346
0.964588
-3.86239
0.7328
1.59863
-0.000842152
0.000599413
1.59556
-0.00551286
0.00214098
1.59027
-0.0112189
0.00420338
1.5808
-0.0179218
0.00755774
1.56274
-0.0258457
0.0132243
1.53335
-0.0387601
0.0196742
1.47244
-0.0463967
0.0358572
1.37927
-0.0820842
0.0500306
1.14135
-0.0399974
0.0974368
0.0989354
0.132289
0.167792
0.264313
0.0129383
0.151089
0.0013038
-0.0556376
-0.111229
-0.123395
0.257577
-0.137562
-0.359715
-0.301348
0.313548
0.0837781
-0.15126
-0.302335
0.30353
0.106425
-0.0870141
1.70784
0.638616
-0.654861
-0.332329
-0.317318
-0.35045
-0.34102
2.20577
0.787329
-0.624106
2.79682
1.106
-0.610416
3.17746
1.21315
-0.328079
3.12115
0.892308
0.213329
2.68736
0.234856
0.699568
2.14464
-0.281356
0.683927
1.70358
-0.693589
0.632984
1.48699
-1.60421
1.04234
1.48599
-2.76827
1.3871
1.58816
-3.70378
1.44279
1.7163
-4.28676
1.34628
1.85269
-4.59495
1.20567
1.98246
-4.7036
1.05507
2.14976
-4.75487
0.876051
-4.6142
0.569395
1.59864
-0.000732935
0.0005791
1.59542
-0.00506169
0.00209454
1.58965
-0.0102178
0.00415229
1.5797
-0.0159224
0.00737214
1.56112
-0.0208697
0.0129417
1.53083
-0.0282932
0.0188778
1.47232
-0.0247443
0.0352772
1.36076
-0.0247929
0.0526782
1.25549
-0.0308774
0.0929146
0.415255
-0.0335456
-0.0484635
0.359738
0.364419
0.326769
0.427978
-0.035126
0.0627163
-0.0400495
0.185087
-0.227148
-0.109754
0.0838507
0.0568035
0.0685606
0.080566
-0.0449421
-0.0313157
-0.0672928
0.00774719
-0.183328
0.202679
-0.211524
0.0773886
0.0609682
0.07941
0.0534761
-0.0117088
-0.0294771
-0.0238633
-0.0130847
-0.223434
0.255582
-0.178708
0.0494066
0.0744129
0.0745329
0.0492716
-0.026026
-0.0247915
-0.0249163
-0.0248392
1.72789
1.04902
-0.804423
-0.311104
-0.325191
-0.344229
-0.352072
2.21387
1.01655
-0.713801
2.73099
1.19881
-0.610186
3.00746
1.18269
-0.24705
2.88334
0.694622
0.321161
2.43928
0.0637291
0.614854
1.92385
-0.41931
0.653275
1.603
-1.57127
1.19866
1.53652
-3.15137
1.61384
1.60627
-4.41425
1.57652
1.72942
-5.18313
1.3565
1.87615
-5.56448
1.13148
2.03541
-5.68806
0.934868
2.18763
-5.62114
0.767257
2.37135
-5.4993
0.562907
-5.02988
0.244871
1.59861
-0.000629514
0.000584841
1.59538
-0.00456255
0.00203807
1.58931
-0.00886169
0.00408126
1.57913
-0.0134606
0.00712142
1.5617
-0.0161331
0.0119934
1.53239
-0.018467
0.018425
1.481
-0.00870921
0.0338644
1.39752
0.00726538
0.049397
1.23783
-0.00326715
0.129648
0.267178
0.164505
0.3236
0.198324
0.20465
0.0423896
-0.272266
0.0157464
0.157126
0.0872082
0.0935821
0.0888469
0.0961384
-0.0261335
-0.152887
0.146198
0.0339341
0.00290025
-0.00364525
-0.00248048
0.00294805
-0.0854368
-0.00334286
0.0821293
-0.00819956
-0.00508713
-0.00499068
-0.0152413
0.0089239
0.0106564
0.010918
0.00944
-0.0712002
-0.0634248
0.0720721
-0.00915091
0.0719493
1.88578
1.49149
-0.735441
-0.383083
-0.408735
-0.412185
-0.387058
2.27962
1.3731
-0.74963
2.69601
1.40115
-0.619031
2.8799
1.18187
-0.181986
2.68819
0.57549
0.312621
2.19746
0.0327577
0.525036
1.7655
-1.19943
1.2148
1.60221
-3.15605
1.74995
1.6121
-4.77922
1.61925
1.71229
-5.763
1.24963
1.86956
-6.25531
0.915932
2.05188
-6.4119
0.666343
2.24082
-6.35089
0.475612
2.41393
-6.12395
0.332167
2.60843
-5.83296
0.141578
-5.09504
-0.119943
1.59854
-0.000515482
0.000621684
1.59529
-0.00398017
0.00195459
1.58935
-0.00741026
0.00383707
1.57926
-0.0108772
0.00690375
1.5639
-0.0124454
0.0109315
1.53787
-0.0115073
0.017968
1.49672
0.00166774
0.0292143
1.41198
0.031918
0.0583104
1.17101
0.119659
0.115829
0.0749114
0.490951
0.495889
0.177754
-0.105988
0.198542
0.289418
-0.203362
0.0889131
-0.0643579
0.0148612
-0.034037
-0.0176966
0.0378022
-0.0739231
0.0396747
-0.0965167
0.0224895
0.024817
0.0203301
0.0249481
-0.0917738
-0.085148
0.0519204
0.0376786
0.0865916
1.78274
1.21351
-0.355851
-0.348192
-0.25869
-0.312969
-0.227507
2.32109
1.45273
-0.617315
2.71897
1.52979
-0.525228
2.81813
1.20288
-0.117697
2.48492
0.647051
0.267794
1.97677
-0.485942
1.033
1.68508
-2.68099
1.77754
1.60251
-4.69509
1.62454
1.65084
-5.92969
1.10417
1.79793
-6.56173
0.653255
1.99974
-6.79335
0.337753
2.21715
-6.75901
0.131437
2.43377
-6.55242
-0.0128767
2.62587
-6.20709
-0.106203
2.83858
-5.79751
-0.245706
-4.91472
-0.415
1.5985
-0.000395496
0.000630152
1.5953
-0.00335537
0.00183791
1.58979
-0.00612851
0.00356864
1.58032
-0.00851297
0.00647612
1.56675
-0.00924028
0.00960271
1.54389
-0.0063095
0.0165544
1.50829
0.00859134
0.0271635
1.44267
0.0424601
0.0534884
1.33145
0.127963
0.100921
0.354353
0.250061
0.210259
0.330476
0.343547
0.33181
0.0387843
0.0273231
0.166686
0.0306448
0.0069805
0.0252816
0.0578902
0.0360299
0.0160195
-0.0851385
0.0348638
-0.000572557
-0.015216
-0.0218486
0.0295603
-0.00105743
0.0335601
-0.0122941
-0.00699217
-0.00530569
0.00175589
-0.0116493
0.00906715
0.00244992
-0.00212946
1.43562
0.50093
0.22234
-0.204377
-0.341175
-0.166122
-0.231345
2.03679
1.06626
-0.213072
2.49826
1.31889
-0.248183
2.53884
1.16187
0.00663632
2.16648
0.37943
0.649292
1.80703
-1.76224
1.64277
1.62074
-4.09381
1.60419
1.58725
-5.63763
0.979579
1.70505
-6.45804
0.412865
1.89978
-6.78825
0.0335973
2.13593
-6.83524
-0.192536
2.37929
-6.68254
-0.317839
2.61717
-6.39132
-0.396595
2.82935
-5.98156
-0.434944
3.0779
-5.52105
-0.522672
-4.59415
-0.628725
1.59854
-0.000302343
0.000592234
1.59547
-0.00279431
0.00174091
1.59037
-0.0050693
0.00336044
1.58182
-0.00645146
0.00584987
1.56995
-0.00646599
0.00833488
1.55079
-0.00283996
0.0145907
1.5202
0.0114868
0.0262655
1.47875
0.0415104
0.0409004
1.41892
0.105329
0.0810282
0.335466
0.216132
0.100583
0.354364
0.325893
0.334824
-0.0744169
0.292851
0.0855125
0.0316337
-0.175908
-0.270633
0.260463
0.226013
-0.0372991
0.102501
-0.285141
0.354171
0.104791
-0.275425
0.151511
-0.410597
0.44367
-0.0744745
-0.109822
1.49519
0.219441
0.143147
-0.408991
-0.45967
-0.225606
-0.260622
1.77811
0.743409
0.0419646
2.0728
1.0179
0.0110051
2.09932
0.792087
0.352632
1.92035
-0.711269
1.27871
1.70603
-3.04796
1.50722
1.58068
-4.85177
0.888748
1.6103
-5.89006
0.226351
1.75747
-6.40207
-0.200943
1.99222
-6.57896
-0.442351
2.26804
-6.54088
-0.568502
2.53598
-6.32258
-0.625949
2.79773
-5.99464
-0.656129
3.03578
-5.56036
-0.656682
3.32117
-5.08623
-0.718126
-4.164
-0.806667
1.59862
-0.000253556
0.0005336
1.5957
-0.00233118
0.0016724
1.5909
-0.00412072
0.00314416
1.58348
-0.00486174
0.00516846
1.57309
-0.00431253
0.00747311
1.55719
-0.00140534
0.0134082
1.53326
0.0124679
0.0215989
1.49799
0.0437259
0.0317164
1.47463
0.0645576
0.0626681
1.4238
0.225338
0.0402805
1.40078
0.119751
0.363587
-0.0915853
-0.113423
-0.129131
-0.126008
1.76688
1.10667
0.0631282
-0.234199
-0.255077
-0.470977
-0.574819
1.9643
1.71501
-0.666936
-0.31082
-0.291826
-0.419491
-0.222845
1.87405
1.20428
-0.997378
-0.119685
-0.0431671
0.00941317
0.036978
1.8056
0.797691
-0.509404
1.91721
0.834323
-0.200219
2.04249
0.847965
0.0507352
2.02483
0.142713
0.675563
1.84101
-1.73668
1.21714
1.61584
-3.60413
0.788233
1.54175
-4.86779
0.095095
1.63331
-5.60465
-0.373959
1.83591
-5.97932
-0.623616
2.10188
-6.08752
-0.756056
2.38595
-5.99873
-0.824802
2.67971
-5.76477
-0.849857
2.9699
-5.42657
-0.856244
3.23119
-4.98403
-0.835426
3.54686
-4.51842
-0.881776
-3.63854
-0.963939
1.59868
-0.000244465
0.000497894
1.5959
-0.00194351
0.00159306
1.59144
-0.00327352
0.00287686
1.58504
-0.00368605
0.00454156
1.5759
-0.00295805
0.00701566
1.56211
-0.000762192
0.0121534
1.54499
0.0120769
0.0162656
1.52265
0.0408164
0.0239765
1.50818
0.0310566
0.0466776
1.49605
0.175528
0.0605842
1.40014
0.0978767
0.1165
1.6873
0.476106
0.34302
1.97655
1.34006
0.0844066
2.1276
1.55262
-0.500628
2.22128
1.37471
-0.670622
2.31785
1.21135
-0.471306
2.28912
0.875422
0.00669928
2.07709
-0.267354
0.629004
1.7382
-2.02417
0.633082
1.51478
-3.41065
0.0355454
1.49804
-4.37096
-0.476244
1.6424
-4.99768
-0.749192
1.88769
-5.32254
-0.901001
2.18713
-5.3962
-0.989934
2.50618
-5.28337
-1.03341
2.81944
-5.03798
-1.03871
3.11798
-4.69837
-1.02513
3.40097
-4.2788
-0.986471
3.74399
-3.84178
-1.01832
-3.03617
-1.09401
1.59873
-0.000264535
0.000482423
1.59608
-0.0015978
0.00149206
1.59203
-0.00257216
0.00260817
1.58643
-0.00285992
0.00407917
1.57803
-0.00208529
0.00675547
1.56591
-0.000327127
0.0107135
1.55454
0.0100541
0.0122492
1.54218
0.0322086
0.0197482
1.52131
0.0121019
0.038516
1.51538
0.123091
0.0572227
1.40871
0.17082
0.0331992
1.56301
0.112215
0.209364
1.88386
0.70891
0.308963
2.19561
1.32339
-0.0837784
2.42818
1.58142
-0.439266
2.52107
1.49209
-0.371498
2.36597
0.987859
0.047615
1.97151
-0.227748
0.360464
1.55844
-1.68223
0.0759236
1.37091
-2.77579
-0.443362
1.4196
-3.62492
-0.792205
1.62395
-4.21135
-0.989693
1.91693
-4.5051
-1.11033
2.25249
-4.55218
-1.17952
2.59778
-4.42202
-1.20622
2.93038
-4.17477
-1.19497
3.24806
-3.85173
-1.16314
3.54489
-3.46698
-1.10731
3.90221
-3.07594
-1.12219
-2.38145
-1.187
1.59876
-0.000283262
0.00047053
1.59626
-0.00126756
0.00138721
1.59258
-0.00202728
0.00241771
1.58755
-0.00218865
0.00367126
1.57967
-0.0013333
0.00632901
1.56921
-7.93258e-05
0.00927638
1.56052
0.00742373
0.0102266
1.55201
0.0235037
0.0160304
1.53149
0.00157405
0.0298846
1.53002
0.0759828
0.0477154
1.4742
0.191477
0.0349683
1.47993
0.034754
0.0720364
1.7687
0.211148
0.20794
2.13798
0.899257
0.0533818
2.40122
1.47017
-0.15192
2.47038
1.49019
-0.0648318
2.25364
0.996088
0.212931
1.75892
0.0231398
0.248038
1.31789
-1.11546
-0.123096
1.18715
-2.0259
-0.617206
1.31393
-2.78767
-0.963391
1.58777
-3.31482
-1.17105
1.93188
-3.55842
-1.29202
2.30114
-3.57424
-1.34811
2.66782
-3.43635
-1.3526
3.01478
-3.20395
-1.3174
3.34183
-2.91557
-1.26236
3.64768
-2.58533
-1.18645
4.01459
-2.26078
-1.18136
-1.70634
-1.22979
1.5988
-0.000277321
0.000459048
1.59644
-0.000939236
0.00130963
1.593
-0.00153662
0.00227182
1.58836
-0.00155605
0.0033319
1.58112
-0.000709772
0.00585602
1.57199
-0.000271965
0.00839044
1.5649
0.00455244
0.00889161
1.55725
0.0169983
0.0130161
1.53742
0.000980126
0.0193672
1.53683
0.0371684
0.0388579
1.53566
0.146279
0.0471857
1.51421
0.0425431
0.0142354
1.67853
-0.0189511
0.0643209
1.99621
0.483159
0.0972466
2.25989
1.13011
0.0772589
2.35063
1.24108
0.1611
2.14378
0.850258
0.356167
1.59339
0.184035
0.391405
1.08573
-0.6291
0.0221294
0.991066
-1.34302
-0.587789
1.19987
-1.9378
-1.0594
1.54546
-2.33182
-1.33065
1.93805
-2.49132
-1.46218
2.33532
-2.47455
-1.49892
2.71555
-2.34656
-1.47103
3.06778
-2.15493
-1.4014
3.39585
-1.92882
-1.31442
3.70295
-1.68041
-1.21141
4.06975
-1.44431
-1.18295
-1.05559
-1.21221
1.59885
-0.000268349
0.000445985
1.59657
-0.000605261
0.00126239
1.59318
-0.000953177
0.00215521
1.58882
-0.000928533
0.0030712
1.5822
-0.000418799
0.00551551
1.57346
-0.00044932
0.00791813
1.56767
0.0011989
0.00799714
1.56386
0.00857624
0.0110498
1.54571
0.000974567
0.0172621
1.53527
0.0111893
0.0362819
1.56641
0.0733433
0.0419235
1.59127
0.0502549
-0.0330019
1.63914
-0.0279437
-0.0410054
1.79883
0.16345
0.157934
2.05314
0.591413
0.284451
2.2533
0.74069
0.302067
2.15233
0.537907
0.415178
1.57359
0.182987
0.581174
0.960578
-0.293561
0.278558
0.85234
-0.727318
-0.506786
1.11632
-1.04951
-1.15295
1.51179
-1.24064
-1.48895
1.93491
-1.30161
-1.61579
2.34611
-1.27145
-1.61684
2.72936
-1.18692
-1.54456
3.07837
-1.07238
-1.43242
3.39918
-0.943193
-1.30677
3.70149
-0.807384
-1.17545
4.05968
-0.68045
-1.12239
-0.478484
-1.1327
1.59888
0.000444246
1.59663
0.00125147
1.59318
0.00211729
1.58892
0.00291524
1.58281
0.00519849
1.57384
0.00791091
1.56727
0.00707186
1.56742
0.00775535
1.55222
0.015682
1.5238
0.0393474
1.55675
0.0404691
1.66499
-0.0584487
1.69026
-0.0549012
1.59139
0.261048
1.69363
0.489518
2.00506
0.430618
2.06805
0.47599
1.55792
0.693294
0.952531
0.31163
0.825543
-0.600405
1.09231
-1.3171
1.49649
-1.64654
1.92346
-1.73054
2.33138
-1.68096
2.70612
-1.56266
3.04316
-1.4099
3.35012
-1.2503
3.64252
-1.09985
3.98457
-1.02259
-1.01475
1.59938
-0.000271745
0.000948014
1.59854
-0.00160906
0.00409007
1.59727
-0.00306634
0.00834864
1.59598
-0.00501546
0.0130444
1.59554
-0.00960667
0.0196314
1.59353
-0.0166366
0.0354081
1.58901
-0.0216399
0.055107
1.59323
-0.0361224
0.0681412
1.60937
-0.0740125
0.103839
1.61184
-0.108692
0.18819
1.61981
-0.112419
0.22313
1.64783
-0.0652305
0.147355
1.74937
-0.0393019
-0.0558986
1.92461
-0.00997742
-0.333022
2.20688
0.0826103
-0.78405
2.71315
0.236065
-1.63394
3.32697
0.345555
-2.21115
3.67891
0.366795
-1.75163
3.62857
0.338368
-0.821417
3.29684
0.286089
0.00463147
2.80946
0.229267
0.60937
2.21047
0.165027
1.00923
1.57192
0.10147
1.14543
0.9809
0.0508001
1.05144
0.544087
0.00980095
0.81066
0.404087
-0.0823556
0.469032
0.547619
-0.26993
0.178378
0.803885
-0.474659
0.145857
1.11344
-0.572197
0.201649
-0.463975
0.0664707
1.59931
-0.000514368
0.00097728
1.59834
-0.00302606
0.00394314
1.59703
-0.00617545
0.00811471
1.59514
-0.010037
0.0138286
1.59302
-0.0172123
0.0201912
1.59096
-0.0308264
0.0314022
1.58838
-0.0473964
0.0535592
1.58407
-0.0729417
0.0818647
1.59171
-0.135801
0.112668
1.61496
-0.234852
0.179537
1.67344
-0.336522
0.271788
1.70532
-0.248159
0.302062
1.74778
-0.115576
0.17129
1.85957
-2.1331e-05
-0.117818
2.1119
0.165144
-0.596082
2.62932
0.438986
-1.48741
3.27449
0.671235
-2.15794
3.65548
0.729221
-1.76513
3.64241
0.660241
-0.852064
3.34891
0.542251
-0.00635676
2.903
0.407676
0.634604
2.3566
0.244844
1.07548
1.7873
0.0687274
1.25965
1.27984
-0.0860188
1.21876
0.919197
-0.192812
1.02037
0.792389
-0.32471
0.70117
0.887701
-0.568155
0.371728
1.05889
-0.844322
0.233545
1.16141
-0.907519
0.215949
-0.797299
0.116404
1.59924
-0.000732948
0.00102596
1.59793
-0.0041079
0.00404014
1.59618
-0.00874434
0.00786482
1.59358
-0.0147355
0.0139108
1.58936
-0.0237103
0.0222424
1.58381
-0.0410382
0.0332098
1.57719
-0.06881
0.0537672
1.56519
-0.110019
0.0909112
1.55693
-0.193161
0.138068
1.57751
-0.362024
0.194038
1.69931
-0.657024
0.321193
1.77205
-0.545681
0.407509
1.80652
-0.264335
0.316199
1.88116
0.0131584
0.0369254
2.10087
0.268934
-0.434659
2.602
0.641698
-1.33469
3.24112
0.978296
-2.03123
3.62884
1.06205
-1.67902
3.6401
0.944037
-0.794344
3.3794
0.750874
0.0621974
2.96399
0.515802
0.742957
2.44853
0.22209
1.22141
1.90916
-0.093922
1.42774
1.44712
-0.357403
1.35155
1.14138
-0.541741
1.10813
1.02894
-0.728369
0.825498
1.08799
-0.986318
0.554576
1.22172
-1.27436
0.382724
1.26537
-1.29038
0.336648
-1.23382
0.2911
1.59917
-0.000924131
0.0010514
1.59757
-0.0049847
0.00418217
1.5952
-0.0106458
0.00790375
1.59154
-0.0183089
0.0139133
1.58566
-0.0294648
0.0236152
1.57633
-0.0489633
0.0363048
1.5624
-0.0827262
0.0557293
1.53739
-0.137791
0.0964544
1.5153
-0.247495
0.151242
1.52451
-0.517376
0.238424
1.69698
-1.06759
0.478877
1.79414
-0.852535
0.542907
1.83254
-0.390852
0.39105
1.90962
0.0528981
0.0916087
2.1174
0.407682
-0.33937
2.59696
0.865893
-1.18728
3.2168
1.27155
-1.85579
3.60194
1.35651
-1.53208
3.63519
1.17783
-0.681346
3.40444
0.896135
0.195558
3.00556
0.531578
0.928175
2.4901
0.0867954
1.42007
1.94698
-0.35567
1.55891
1.51774
-0.696953
1.33262
1.2497
-0.980381
1.045
1.13753
-1.28992
0.89755
1.15922
-1.61966
0.837236
1.30201
-1.94098
0.757764
1.47921
-1.96563
0.691291
-1.95121
0.634146
1.59909
-0.00106899
0.00107972
1.59722
-0.0056419
0.00420867
1.59404
-0.0118345
0.0080259
1.58865
-0.0200664
0.0139451
1.57981
-0.0328565
0.0241561
1.56551
-0.0534724
0.0384382
1.54138
-0.0897989
0.0607685
1.49924
-0.153228
0.1121
1.44582
-0.283749
0.159628
1.38392
-0.686869
0.397313
1.58086
-1.52488
0.680999
1.71829
-1.05739
0.465032
1.75824
-0.335468
0.167043
1.88145
0.180846
-0.102928
2.11512
0.590357
-0.418069
2.58195
1.11138
-1.09889
3.17891
1.55189
-1.65948
3.56239
1.61179
-1.34567
3.62044
1.36248
-0.526152
3.41356
0.968969
0.388258
3.00541
0.445235
1.16981
2.45898
-0.153075
1.62039
1.91313
-0.680508
1.57035
1.50048
-1.14166
1.29043
1.26694
-1.63964
1.1886
1.20247
-2.14461
1.26056
1.25968
-2.55245
1.33144
1.40615
-2.86334
1.30243
1.68404
-2.92291
1.19981
-2.91263
1.0632
1.59899
-0.00114276
0.00110623
1.59681
-0.0059729
0.00416745
1.59268
-0.0121818
0.00810451
1.58577
-0.0205043
0.0141143
1.57358
-0.033483
0.0249054
1.55431
-0.0532795
0.0397785
1.51393
-0.0869379
0.0690474
1.45503
-0.154318
0.126088
1.31826
-0.272959
0.182388
1.09612
-0.792293
0.6957
1.38213
-2.02668
0.543181
1.58655
-1.09297
-0.21231
1.71416
-0.116246
-0.565356
1.8518
0.44869
-0.633735
2.09834
0.818238
-0.708614
2.5473
1.35551
-1.11874
3.11423
1.80247
-1.48888
3.49644
1.82221
-1.14532
3.57794
1.49867
-0.328222
3.37151
0.961803
0.6468
2.90657
0.261792
1.45318
2.30054
-0.447839
1.71336
1.74571
-1.13259
1.54604
1.39283
-1.92793
1.55686
1.28921
-2.72712
1.75257
1.35488
-3.33969
1.87897
1.49217
-3.70835
1.87634
1.6305
-3.90291
1.77206
1.88325
-3.94722
1.5921
-3.8611
1.31108
1.59886
-0.001118
0.00112449
1.59635
-0.00598356
0.00412893
1.59173
-0.0120546
0.00818241
1.58366
-0.0198971
0.0143807
1.56853
-0.031481
0.0255324
1.54479
-0.0485921
0.0392783
1.48572
-0.0715578
0.076784
1.40556
-0.13546
0.123983
1.12497
-0.173655
0.24959
0.670444
-0.717816
0.886056
0.988327
-0.642343
-0.228129
-0.732461
-0.512118
-0.623383
1.30677
-0.35759
-1.34839
-0.111839
-0.363051
-0.135075
1.49771
0.0831635
-1.56503
0.126398
0.061918
0.118133
1.70174
0.199272
-1.27363
0.21592
0.211937
0.245234
2.00936
1.07733
-1.0579
2.4634
1.57572
-1.20486
3.01288
1.98856
-1.36224
3.39374
1.97083
-0.954839
3.48186
1.56667
-0.0916496
3.22211
0.862774
0.963957
2.65902
0.0288899
1.64401
2.00281
-0.857873
1.70128
1.53489
-2.01807
1.89166
1.39314
-3.21925
2.24412
1.47514
-4.10377
2.38189
1.63029
-4.60658
2.30461
1.79285
-4.81787
2.12175
1.92288
-4.84045
1.89617
2.1058
-4.78639
1.62277
-4.50537
1.19509
1.59873
-0.00101115
0.00114462
1.59591
-0.00571787
0.00409483
1.59093
-0.0115664
0.00813844
1.58224
-0.0185787
0.0144299
1.56532
-0.0273075
0.0254146
1.53759
-0.0399592
0.0379416
1.46714
-0.0472767
0.0806541
1.36992
-0.101521
0.11162
0.981217
0.000867412
0.308249
-0.0346777
-0.155665
0.631233
-0.0491903
0.0788778
-0.043052
0.163759
-0.0976889
-0.635821
-0.108369
0.566125
-0.0399936
0.127058
-0.386163
-0.624338
0.336751
-0.201907
0.2682
0.167482
-0.487854
0.228533
-0.310702
0.351128
0.276768
-0.347349
1.89002
1.36043
-1.31659
-0.387905
-0.368649
-0.389723
-0.36482
2.36157
1.76129
-1.27988
2.88247
2.11747
-1.25922
3.24029
2.06244
-0.776934
3.29573
1.5417
0.182916
2.94846
0.699807
1.20962
2.28881
-0.267828
1.63966
1.72028
-1.74826
2.0913
1.52294
-3.42753
2.64898
1.60265
-4.65533
2.74371
1.76732
-5.3228
2.49759
1.93037
-5.59122
2.16851
2.07902
-5.61185
1.85206
2.20304
-5.47307
1.56548
2.32811
-5.27528
1.24184
-4.7593
0.765171
1.59867
-0.000883683
0.00113895
1.59565
-0.00527659
0.0040516
1.59017
-0.0105419
0.0080324
1.58092
-0.0165069
0.0140317
1.56407
-0.0225787
0.0244545
1.53544
-0.0302749
0.0368816
1.46693
-0.0242475
0.0793849
1.37131
-0.0529611
0.0976756
1.13929
0.0664939
0.256804
0.123667
0.316533
0.0984981
0.300696
-0.0428169
0.134489
-0.232406
0.00251991
0.0101971
0.475438
-0.0532197
-0.0294736
0.00308356
-0.0540339
0.0502332
0.0147127
0.087953
-0.000648657
-0.0912055
-0.0604395
0.0168571
0.0911348
-0.0602801
0.00660589
0.0763444
-0.130901
-0.0551251
0.0620204
-0.0874244
0.0955223
-0.0817827
0.0666426
1.75327
1.62647
-1.50318
-0.347587
-0.333161
-0.332342
-0.306905
2.24458
1.90909
-1.35183
2.73501
2.19353
-1.17603
3.06968
2.06908
-0.588043
3.05864
1.45116
0.423311
2.57679
0.553333
1.24378
1.96727
-1.01811
2.01363
1.68886
-3.17344
2.9028
1.73359
-4.82784
2.9701
1.88673
-5.7129
2.48177
2.05237
-6.06992
1.9389
2.20574
-6.12389
1.51186
2.34155
-5.99422
1.18292
2.45533
-5.73982
0.922344
2.53931
-5.41886
0.624614
-4.74565
0.227235
1.59867
-0.000758405
0.00112222
1.59562
-0.00478983
0.00395665
1.58979
-0.00910129
0.00789254
1.58039
-0.0139238
0.0134036
1.56433
-0.0179244
0.0227371
1.53604
-0.0209359
0.0363813
1.48512
-0.0118082
0.070849
1.38161
0.000148285
0.0980423
1.28023
0.0362936
0.258951
0.326211
0.374214
0.141853
0.289415
0.377895
0.408026
-0.135143
0.193528
-0.140161
0.124141
0.0622651
0.0829463
0.0591003
0.0780805
0.0131959
0.0310225
0.00711401
-0.0118677
-0.0189743
-0.00618394
-0.00391937
-0.00516403
-0.00518973
-0.00906266
-0.00480412
0.000493326
5.691e-05
0.0101002
0.000684409
0.00091785
0.000806786
0.000794144
-0.00658223
0.0011018
-0.00491194
0.00395811
-0.000162586
0.00659542
1.61478
1.8809
-1.53552
-0.317749
-0.27421
-0.257203
-0.219196
2.14911
2.02495
-1.39912
2.61258
2.22132
-1.11006
2.8938
2.0292
-0.422979
2.76558
1.39849
0.495096
2.25656
0.0965856
1.49279
1.90655
-2.35092
2.89929
1.88277
-4.50811
3.10997
1.99838
-5.70506
2.3823
2.15276
-6.21233
1.59607
2.31294
-6.3474
1.03463
2.45979
-6.27475
0.671886
2.58516
-6.06044
0.418372
2.68687
-5.7405
0.233551
2.75487
-5.35284
0.00978699
-4.62214
-0.254692
1.59869
-0.000629186
0.00111668
1.59566
-0.00423723
0.00376487
1.58996
-0.00768207
0.00751834
1.58079
-0.0112692
0.0128606
1.56649
-0.0139623
0.0205779
1.54153
-0.0140169
0.0349611
1.49544
-0.000692474
0.0627316
1.42171
0.0297911
0.100677
1.27831
0.0702766
0.223214
0.216776
0.386063
0.383503
0.355068
0.405334
0.399018
-0.0240694
0.0327782
0.310891
-0.289078
0.114184
-0.0245119
0.0535735
0.0407442
0.00113576
0.00201334
-0.000297664
-0.00105506
-0.00183306
3.85419e-05
1.48589
2.09225
-1.29998
-0.224372
-0.205957
-0.167339
-0.155018
2.06113
2.18866
-1.3561
2.52442
2.26379
-1.03104
2.74496
2.05345
-0.360998
2.48959
1.25868
0.665645
2.14854
-0.99105
2.46456
2.04776
-3.62246
3.15257
2.10062
-5.24673
2.31277
2.22256
-6.00791
1.28709
2.3781
-6.29698
0.584156
2.53617
-6.33572
0.169745
2.68015
-6.21539
-0.0699794
2.80495
-5.96816
-0.227736
2.91185
-5.61817
-0.332885
2.9981
-5.19924
-0.483382
-4.4397
-0.648093
1.59872
-0.000514974
0.00108052
1.59569
-0.0036041
0.0035536
1.5904
-0.00647785
0.00704252
1.58189
-0.00886098
0.0120021
1.5688
-0.0104341
0.0184513
1.54733
-0.00920888
0.0321498
1.50939
0.00691945
0.0560329
1.459
0.0400938
0.0919924
1.36605
0.0758102
0.186543
0.345239
0.29165
0.292424
0.341855
0.344727
0.344164
0.000719802
0.0563381
0.0854284
-0.141824
0.0876208
0.0916843
0.0841343
0.0791784
-0.00359943
0.00922147
0.0019794
-0.00355048
-0.0088384
0.00479473
-0.000354637
0.00768628
0.00103231
-0.00704415
-0.000612188
-0.000711806
0.00275058
0.000209007
-0.0154666
-0.000147692
-0.0196723
0.0192808
0.00327727
0.00408401
0.00461172
0.000883794
-0.000204042
0.000479114
1.23686
2.15137
-0.718046
-0.124104
-0.0863778
-0.0904438
-0.0546255
1.93301
2.37325
-1.09405
2.42601
2.41337
-0.8901
2.53309
2.10407
-0.148748
2.34192
0.527869
1.57464
2.23566
-2.19843
2.96008
2.21245
-4.26777
2.2763
2.3033
-5.44831
1.0933
2.4347
-5.9595
0.235345
2.58858
-6.17277
-0.242597
2.7447
-6.18354
-0.499025
2.89189
-6.04021
-0.638222
3.02777
-5.77233
-0.726071
3.15275
-5.40143
-0.774193
3.26653
-4.95831
-0.87536
-4.17316
-0.984898
1.59876
-0.000432703
0.00101223
1.59579
-0.00300082
0.00340824
1.59095
-0.00543033
0.00651144
1.58326
-0.00681415
0.0109009
1.57123
-0.0074556
0.0166626
1.55272
-0.00595783
0.0287916
1.52428
0.0113485
0.0488586
1.48666
0.0382579
0.0788678
1.4323
0.0690901
0.140407
0.328795
0.23697
0.233751
0.338449
0.33894
0.345171
-0.0665023
-0.0850502
0.308481
0.0463717
0.123926
-0.214786
0.209444
-0.342817
0.428431
0.83755
-0.304958
-0.1437
-0.274161
-0.19569
0.0115726
0.568592
-0.361532
0.220176
0.152444
-0.684481
0.0364076
0.0155951
0.0405046
0.0710508
0.130252
-0.0457488
-0.0334667
-0.151091
-0.0737443
0.0445012
0.0487299
0.00920958
0.989057
1.56737
-0.164877
-0.037622
-0.0525319
-0.00584855
-0.00199827
1.71309
2.32012
-0.629022
2.19019
2.43599
-0.487497