/*--------------------------------*- C++ -*----------------------------------*\
| =========                 |                                                 |
| \\      /  F ield         | OpenFOAM: The Open Source CFD Toolbox           |
|  \\    /   O peration     | Version:  2512                                  |
|   \\  /    A nd           | Website:  www.openfoam.com                      |
|    \\/     M anipulation  |                                                 |
\*---------------------------------------------------------------------------*/
FoamFile
{
    version     2.0;
    format      ascii;
    arch        "LSB;label=32;scalar=64";
    class       volVectorField;
    location    "60";
    object      U;
}
// * * * * * * * * * * * * * * * * * * * * * * * * * * * * * * * * * * * * * //

dimensions      [0 1 -1 0 0 0 0];

internalField   nonuniform List<vector> 
90398
(
(20.037 0.0113644 0.0451203)
(19.4317 -0.0234375 0.46554)
(17.8403 -0.508415 0.95858)
(23.5253 -0.673311 0.257181)
(38.8687 -0.00941129 -2.48129)
(54.2055 0.756777 -4.07017)
(62.091 1.17046 -2.54254)
(58.4058 1.32235 0.548395)
(45.4351 1.85896 2.21039)
(33.2525 2.93834 2.9898)
(-0.892402 4.52383 8.30757)
(-36.039 5.30465 1.835)
(-44.7415 5.23748 -5.3557)
(-46.4035 5.05621 -7.48005)
(-44.3411 4.73996 -7.92603)
(-41.4008 4.42707 -7.5123)
(-38.8629 4.12655 -6.81122)
(-37.0629 3.81765 -6.08648)
(-35.8021 3.4851 -5.43963)
(-34.7412 3.09643 -4.89423)
(-33.5778 2.6299 -4.40015)
(-32.1395 2.08316 -3.85331)
(-30.3886 1.46751 -3.2039)
(-28.3447 0.812867 -2.44245)
(-25.9915 0.162627 -1.61434)
(-23.2894 -0.430389 -0.809723)
(-20.2857 -0.915489 -0.105476)
(-17.1053 -1.23376 0.503768)
(-14.3786 -1.46215 0.991432)
(-12.8164 -1.74663 1.20727)
(20.0556 0.0582219 0.0640625)
(19.0074 -0.104818 0.520581)
(17.8131 -1.60768 1.10314)
(24.693 -2.05655 0.237925)
(39.3394 -0.264744 -2.26879)
(53.449 1.99988 -3.5625)
(60.8011 3.33493 -2.08469)
(57.2532 3.82739 0.733797)
(45.0115 5.24952 2.19686)
(34.7057 8.15082 2.85511)
(5.47372 11.814 8.79191)
(-31.8732 14.5598 3.65914)
(-42.4521 15.0961 -4.22787)
(-44.121 14.9363 -6.92231)
(-41.9945 14.2609 -7.74911)
(-38.9171 13.4647 -7.53332)
(-36.3024 12.6219 -6.88957)
(-34.5363 11.7238 -6.16154)
(-33.4141 10.7486 -5.50428)
(-32.5751 9.65055 -4.94814)
(-31.675 8.37899 -4.51651)
(-30.5151 6.92874 -4.11228)
(-29.0548 5.32189 -3.65092)
(-27.3498 3.61258 -3.09311)
(-25.4672 1.873 -2.43354)
(-23.4579 0.169159 -1.71069)
(-21.3867 -1.38479 -0.987668)
(-19.2977 -2.62115 -0.316863)
(-17.1166 -3.4759 0.214558)
(-15.3777 -4.10359 0.450189)
(20.0765 0.160475 0.104066)
(18.0595 -0.249284 0.693217)
(17.9305 -2.22894 0.945723)
(27.296 -2.24642 -0.950416)
(42.0539 0.710702 -3.33882)
(54.6033 4.01255 -3.58802)
(60.6658 5.6909 -1.37518)
(55.924 5.84246 1.40197)
(43.8734 7.57508 2.511)
(35.6967 11.8783 2.55482)
(11.6668 16.279 8.82606)
(-27.2844 21.0983 5.71867)
(-40.5255 23.3432 -2.55387)
(-42.4353 23.9217 -5.88296)
(-40.4706 23.4822 -7.1599)
(-37.3259 22.5676 -7.27248)
(-34.6199 21.3659 -6.80117)
(-32.8129 19.9513 -6.14262)
(-31.708 18.3587 -5.5266)
(-30.9253 16.5784 -5.00452)
(-30.0907 14.5838 -4.62562)
(-28.9606 12.3721 -4.34617)
(-27.4529 9.98233 -4.05941)
(-25.6 7.49254 -3.71066)
(-23.487 4.98705 -3.26132)
(-21.2235 2.5183 -2.7227)
(-18.991 0.116224 -2.14576)
(-16.9532 -2.01002 -1.55229)
(-15.0712 -3.63653 -1.01665)
(-13.5537 -4.67738 -0.751535)
(20.01 0.291596 0.162685)
(17.0644 -0.255324 0.8248)
(18.7666 -1.95486 0.233289)
(30.0909 -0.994228 -2.42309)
(44.4788 2.91063 -3.94047)
(55.6251 6.48796 -2.83245)
(59.4435 7.53314 0.0400292)
(52.9776 6.67274 2.44136)
(41.2484 8.36223 3.06014)
(35.1179 13.8871 2.12679)
(15.5931 18.199 8.55149)
(-22.5831 24.3513 7.63451)
(-38.5811 29.1489 -0.417381)
(-41.0844 31.1937 -4.42512)
(-39.6404 31.7489 -6.13436)
(-36.6225 31.2324 -6.63598)
(-33.8985 29.9893 -6.41462)
(-32.0129 28.2268 -5.90997)
(-30.806 26.1053 -5.37969)
(-29.9191 23.6924 -4.92194)
(-28.9762 21.0308 -4.57545)
(-27.7214 18.124 -4.34382)
(-26.0581 15.0184 -4.14421)
(-24.0144 11.8038 -3.92863)
(-21.6855 8.59 -3.66148)
(-19.1903 5.47163 -3.34152)
(-16.6466 2.53763 -2.99119)
(-14.2051 -0.104691 -2.61569)
(-11.7952 -2.19887 -2.23432)
(-9.62871 -3.42741 -1.98805)
(19.8647 0.459013 0.24769)
(16.3699 0.0737392 0.879397)
(19.9503 -1.17143 -0.892489)
(32.5395 0.464268 -3.65377)
(46.2239 4.43982 -3.5154)
(55.8229 7.4732 -0.733445)
(55.9546 7.1554 2.32546)
(47.6838 5.35544 3.82978)
(37.0315 7.12081 3.7164)
(32.6249 14.767 1.49095)
(17.3169 18.3723 7.95034)
(-16.8197 23.8149 9.46326)
(-34.7182 31.091 2.39121)
(-39.7498 36.0481 -2.41217)
(-39.0613 38.2214 -4.68524)
(-36.5077 38.6752 -5.57427)
(-33.9572 37.7958 -5.65421)
(-32.0448 35.9329 -5.37007)
(-30.6954 33.4339 -4.97619)
(-29.6179 30.503 -4.59685)
(-28.4707 27.2646 -4.30188)
(-27.0241 23.7663 -4.09683)
(-25.1745 20.0722 -3.94652)
(-22.9338 16.2732 -3.81798)
(-20.3798 12.4844 -3.69203)
(-17.6204 8.82888 -3.56465)
(-14.7649 5.43303 -3.44572)
(-11.91 2.47451 -3.31408)
(-8.80886 0.120436 -3.22694)
(-5.50291 -1.28417 -3.16536)
(19.6994 0.660491 0.356339)
(15.8913 0.658072 0.730453)
(20.9733 -0.233031 -2.26799)
(34.1618 1.27834 -4.58351)
(47.1294 4.38956 -2.55513)
(53.1464 5.65763 1.52118)
(49.4618 3.53679 4.18198)
(40.8119 0.72329 4.81009)
(33.3578 3.36664 4.03905)
(29.1427 14.8294 0.846324)
(17.7608 16.604 6.82144)
(-9.29538 19.5747 10.9843)
(-28.9609 28.9893 5.80278)
(-37.3327 37.3901 0.530609)
(-38.4569 42.0908 -2.63336)
(-36.7495 44.0869 -4.0027)
(-34.6426 44.0127 -4.43946)
(-32.8524 42.3629 -4.43089)
(-31.3888 39.7016 -4.24288)
(-30.077 36.4121 -3.99942)
(-28.6614 32.7294 -3.79476)
(-26.958 28.7792 -3.65227)
(-24.8776 24.6565 -3.55465)
(-22.4161 20.453 -3.49499)
(-19.6266 16.2742 -3.4637)
(-16.5995 12.2482 -3.44663)
(-13.4188 8.52493 -3.49178)
(-10.1355 5.34896 -3.63289)
(-6.31047 2.93354 -3.92392)
(-1.44296 1.28122 -4.17832)
(19.5414 0.886664 0.463302)
(15.4954 1.4516 0.449909)
(21.5959 0.821102 -3.54192)
(34.957 1.35306 -5.20088)
(46.7416 2.93811 -1.85223)
(48.6103 2.40269 2.54302)
(42.8942 -1.93854 4.74776)
(31.2116 -6.54001 5.34016)
(23.0551 -1.27916 5.01364)
(23.1677 12.5361 0.686005)
(21.6338 13.1447 3.76779)
(4.50855 14.5529 10.5771)
(-18.4926 23.8958 8.847)
(-31.4548 34.7939 4.12049)
(-37.1228 42.6179 0.553641)
(-37.1531 46.7911 -1.7429)
(-35.7754 47.8791 -2.68024)
(-34.3074 46.8191 -3.03986)
(-32.8056 44.2944 -3.13853)
(-31.2606 40.8674 -3.11531)
(-29.5349 36.9261 -3.06768)
(-27.5278 32.6966 -3.02679)
(-25.179 28.3195 -3.00692)
(-22.485 23.8906 -3.0165)
(-19.4749 19.5069 -3.0514)
(-16.2072 15.2924 -3.09872)
(-12.7079 11.4076 -3.24383)
(-8.99516 8.11482 -3.56651)
(-4.57501 5.65755 -4.17444)
(2.27502 3.60372 -4.84973)
(19.4092 1.15327 0.540906)
(15.0938 2.60707 0.1901)
(21.7697 2.38771 -4.46676)
(34.9823 1.56955 -5.93113)
(45.2542 0.718703 -2.29215)
(45.574 -1.4008 1.93274)
(40.1027 -4.52339 4.08857)
(18.7169 -10.7304 5.86387)
(-2.92668 -7.06744 4.50227)
(11.7005 5.49238 3.21812)
(16.545 2.24784 2.37366)
(26.7772 6.31817 3.58692)
(8.5047 10.3239 6.92722)
(-10.3661 18.3722 7.33133)
(-32.8326 37.8326 4.36959)
(-36.4215 45.3663 1.51404)
(-37.0003 48.676 -0.229769)
(-36.236 48.6971 -1.16764)
(-34.7744 46.6365 -1.68662)
(-33.0492 43.3927 -1.97057)
(-31.0252 39.4652 -2.13178)
(-28.7042 35.1758 -2.23572)
(-26.0867 30.7257 -2.31861)
(-23.1847 26.2319 -2.40014)
(-20.0032 21.7958 -2.48677)
(-16.5508 17.5425 -2.56786)
(-12.7836 13.637 -2.73159)
(-8.66163 10.3018 -3.1386)
(-3.73397 7.79512 -3.93752)
(5.0034 5.58825 -5.01678)
(19.3745 1.45804 0.573768)
(14.7734 4.21726 0.103526)
(21.4524 4.82102 -4.88043)
(33.7254 2.9435 -6.79163)
(42.9798 -0.0279697 -4.34022)
(45.3749 -1.72435 -0.922242)
(41.3514 -1.40413 2.32539)
(8.43077 -8.88346 4.9324)
(-26.3735 -25.1664 -4.1996)
(-17.4608 -17.34 1.48465)
(-11.055 -29.1697 9.97689)
(3.46039 -14.8551 1.78121)
(21.6948 7.35796 1.25071)
(12.6474 9.47936 4.48866)
(-25.9043 28.8761 8.06146)
(-33.4615 39.3967 5.31466)
(-36.4293 44.9608 2.88519)
(-37.3705 46.8744 1.25584)
(-36.8468 46.1821 0.156202)
(-35.3335 43.6847 -0.552491)
(-33.0262 40.04 -0.995825)
(-30.4387 35.9333 -1.28291)
(-27.6268 31.6127 -1.48031)
(-24.5971 27.2214 -1.62671)
(-21.3274 22.8792 -1.74872)
(-17.7732 18.7072 -1.85771)
(-13.8246 14.8485 -1.998)
(-9.36366 11.4538 -2.34593)
(-3.82548 8.77193 -3.19424)
(6.59658 6.74024 -4.61771)
(19.5206 1.73565 0.561922)
(14.7064 5.99952 0.227437)
(20.6245 7.83518 -4.6666)
(32.4701 5.47034 -7.33566)
(42.0249 1.63086 -6.03694)
(45.0473 0.112706 -2.69981)
(42.0914 2.93363 1.04094)
(11.3414 3.05362 3.51808)
(-39.0438 -5.74668 -8.49019)
(-43.7741 -23.4321 -12.2877)
(-14.8529 -44.9981 -5.31101)
(12.5352 -30.8418 -8.68417)
(5.68132 -27.3212 3.90462)
(12.9824 -9.01839 3.09227)
(-17.9724 17.6308 9.98345)
(-27.7936 29.4233 8.69028)
(-33.4853 37.1085 6.11047)
(-36.7141 41.2298 3.97011)
(-37.5835 42.2405 2.34107)
(-36.8356 40.9671 1.19803)
(-35.0528 38.2773 0.42767)
(-32.7152 34.8172 -0.0836604)
(-29.9524 30.9128 -0.416512)
(-26.8282 26.7757 -0.633837)
(-23.5205 22.6421 -0.797617)
(-19.9339 18.5786 -0.952363)
(-15.8723 14.6548 -1.13565)
(-11.0794 10.9878 -1.40904)
(-4.72653 7.96699 -2.12093)
(6.79712 6.60602 -3.736)
(19.8175 1.9217 0.510806)
(14.9839 7.46917 0.535622)
(19.4213 11.032 -3.91051)
(30.7909 9.12893 -7.44201)
(40.6653 4.73962 -7.41056)
(45.3559 2.22697 -4.7362)
(45.2986 4.61649 -0.621942)
(33.5375 8.96941 3.98561)
(0.463948 8.87842 2.43151)
(-30.2048 27.0571 -2.12077)
(21.9371 -10.1653 -13.7102)
(26.4623 -8.2046 0.711774)
(4.30221 -13.3252 1.02347)
(-7.59773 4.0335 9.38299)
(-18.7314 16.4724 10.6791)
(-27.5802 26.1921 8.70317)
(-33.6543 32.5487 6.43627)
(-36.5115 35.4168 4.49952)
(-37.079 35.6131 3.05938)
(-36.1083 34.0338 2.06884)
(-34.2342 31.3847 1.40504)
(-31.838 28.1184 0.949265)
(-29.1835 24.5117 0.597166)
(-26.327 20.6904 0.275186)
(-23.0674 16.6737 -0.0579238)
(-19.1062 12.5829 -0.430034)
(-14.3662 8.7332 -0.882034)
(-8.46715 5.71372 -1.55145)
(-2.20141 4.66909 -2.44253)
(20.1298 1.99777 0.412831)
(15.8298 8.21319 0.941224)
(18.3532 13.9344 -2.64642)
(28.7327 14.0026 -6.74699)
(39.1442 10.3023 -8.1871)
(45.435 7.07267 -6.89599)
(47.9062 7.28104 -3.47713)
(44.6758 9.08217 1.60146)
(28.5347 6.9165 5.02767)
(8.16981 -2.62612 6.96147)
(-33.4314 6.50159 0.91525)
(8.66363 5.73099 -4.01841)
(13.8527 -7.85367 -6.32734)
(9.28256 -11.0579 -5.58182)
(6.20976 -12.4105 2.18854)
(-4.19306 2.189 10.2668)
(-17.9422 13.8919 9.92539)
(-27.6949 22.1908 8.04376)
(-33.1309 26.7188 6.14017)
(-35.4529 28.2665 4.66128)
(-35.7103 27.787 3.62074)
(-34.8688 26.0494 2.85636)
(-33.5761 23.5363 2.20155)
(-32.1501 20.5046 1.54391)
(-30.5266 17.1096 0.854202)
(-28.4918 13.56 0.141071)
(-25.8306 10.1778 -0.578997)
(-23.1684 7.39296 -1.26179)
(-20.931 5.51678 -1.82997)
(-20.4422 4.81513 -2.17269)
(20.275 1.97788 0.288942)
(17.3495 7.88961 1.24657)
(18.1355 15.6346 -1.03889)
(26.9861 18.8069 -5.07068)
(37.4558 17.2624 -7.58628)
(45.215 14.2648 -7.74089)
(48.941 12.4965 -5.81693)
(49.5714 11.3873 -1.95823)
(41.0799 8.34656 3.5126)
(21.1768 1.99053 5.28722)
(-19.6214 3.55741 2.88756)
(-8.35019 16.9616 -5.8744)
(12.584 1.45179 -2.1249)
(13.8577 -3.55574 -7.18817)
(16.0007 -18.02 -3.69126)
(17.4209 -12.0049 3.41732)
(-3.10884 2.27804 9.17636)
(-18.5913 11.7558 8.43264)
(-27.621 17.4004 6.92333)
(-32.7199 20.0288 5.61594)
(-35.4202 20.622 4.55938)
(-36.9318 19.92 3.5588)
(-37.8655 18.3689 2.48564)
(-38.3107 16.2903 1.35859)
(-38.0425 13.992 0.270324)
(-36.8073 11.7659 -0.680123)
(-35.1608 9.9353 -1.4379)
(-33.3867 8.50781 -1.96015)
(-31.5568 7.36142 -2.20005)
(-30.4189 6.66297 -2.18559)
(20.2115 1.85757 0.167926)
(19.0126 6.69075 1.22718)
(19.054 15.2619 0.473407)
(26.0821 21.5548 -2.78841)
(35.9732 23.1034 -5.7131)
(44.4859 21.6779 -6.88603)
(49.3967 19.3515 -6.26431)
(51.1165 16.5639 -4.07138)
(47.7971 13.4473 0.0121291)
(32.3671 7.89451 4.2168)
(4.54218 -4.17335 4.66849)
(-0.794687 3.07729 0.206548)
(7.05427 10.5324 -5.77295)
(20.1959 -8.21893 -8.24803)
(21.3103 -20.1173 -3.00193)
(19.1672 -17.2963 1.59118)
(12.3384 -6.2656 6.18817)
(-10.7467 4.21405 7.75678)
(-25.0176 10.0192 6.75071)
(-34.1509 13.2068 5.51233)
(-40.1062 14.674 4.22018)
(-44.0006 14.9959 2.83848)
(-46.2973 14.5612 1.44425)
(-47.0579 13.6916 0.199667)
(-46.2996 12.6468 -0.766345)
(-44.6088 11.6647 -1.41331)
(-42.5411 10.7917 -1.79033)
(-40.1547 9.84619 -1.93754)
(-37.5678 8.75703 -1.90815)
(-35.5782 7.91104 -1.79578)
(20.0907 1.62888 0.0945433)
(20.1764 5.12052 0.846781)
(20.6772 12.6306 1.42659)
(26.0597 20.9188 -0.417083)
(34.835 25.4627 -3.02178)
(43.1621 26.3262 -4.55722)
(48.4121 24.6676 -4.67442)
(50.5251 21.2245 -3.63149)
(49.3097 17.4789 -1.02604)
(40.2184 14.0692 1.30661)
(24.0679 6.97336 1.17946)
(14.5707 1.49507 0.320908)
(17.315 2.96225 -4.3809)
(27.5081 -9.37121 -6.08419)
(24.9746 -21.6388 -1.01369)
(4.99536 -16.5306 4.9386)
(-1.59485 -5.26016 6.14132)
(-19.6519 2.2474 6.57447)
(-34.5502 6.66597 5.51096)
(-44.4863 9.49483 4.12065)
(-50.6346 11.2042 2.68488)
(-53.9456 12.1046 1.32452)
(-55.0427 12.442 0.190478)
(-54.3971 12.4128 -0.607946)
(-52.3753 12.1309 -1.05769)
(-49.9536 11.7188 -1.25267)
(-47.2609 11.1049 -1.29327)
(-44.4545 10.1934 -1.23039)
(-41.6177 9.06651 -1.12815)
(-39.3814 8.2465 -1.04523)
(20.0486 1.3086 0.0649512)
(20.7187 3.73373 0.329779)
(22.089 8.64753 1.52265)
(26.3131 16.7442 1.46567)
(33.6436 23.3976 -0.0219738)
(40.9837 26.5294 -1.16813)
(45.6757 26.2597 -1.35204)
(47.2276 22.8739 -0.818572)
(45.8176 18.3496 0.528785)
(41.2059 16.1115 1.04443)
(34.8385 14.7193 -0.842134)
(29.0545 10.1758 -2.46436)
(27.5704 4.34301 -4.1153)
(32.3921 -6.75199 -6.07964)
(32.2095 -17.9521 -1.63673)
(-2.02811 -14.7292 6.47947)
(-26.9846 -4.55496 6.15908)
(-39.4441 1.58717 5.15615)
(-49.7282 5.20591 3.87858)
(-56.4277 7.5939 2.62715)
(-59.9338 9.21591 1.53064)
(-60.9998 10.2709 0.6553)
(-60.2809 10.874 0.0564794)
(-58.3006 11.0979 -0.25289)
(-55.4864 10.9837 -0.332777)
(-52.228 10.5715 -0.277417)
(-48.8147 9.86702 -0.160211)
(-45.4419 8.86205 -0.0156372)
(-42.0907 7.74112 0.0968577)
(-39.3232 7.02119 0.129687)
(20.0647 0.942761 0.0421519)
(21.0091 2.67452 -0.0459237)
(22.8605 5.14095 0.885368)
(26.1065 10.385 2.13099)
(31.5342 16.7417 2.38615)
(36.8711 21.0245 2.37872)
(39.565 21.671 2.54289)
(39.6791 18.9172 2.65477)
(37.5161 14.731 2.93819)
(34.9227 13.4385 2.47304)
(35.1603 15.6881 -0.172215)
(35.6916 14.4638 -2.83905)
(35.5666 8.39399 -4.06482)
(35.8852 -2.07461 -5.84237)
(39.7152 -11.667 -3.7737)
(22.7904 -12.6316 4.63015)
(-20.3532 -5.00537 6.51384)
(-41.3954 -0.0418988 4.74088)
(-50.8412 3.25334 3.36867)
(-55.343 5.28474 2.37674)
(-56.6901 6.58838 1.71181)
(-55.8894 7.38603 1.3151)
(-53.6791 7.76641 1.15437)
(-50.598 7.78329 1.18888)
(-47.035 7.48661 1.33995)
(-43.3164 6.94153 1.51749)
(-39.7429 6.18351 1.67129)
(-36.4234 5.20866 1.77219)
(-33.0658 4.16245 1.7346)
(-30.0811 3.48478 1.55715)
(20.0708 0.602636 0.00838851)
(21.2501 1.77542 -0.236551)
(23.3178 3.02057 0.121029)
(25.7331 5.05848 1.43746)
(28.9486 8.78249 3.11214)
(31.2436 12.2463 4.55196)
(30.6639 12.8687 5.07143)
(28.7105 10.8192 4.60259)
(25.6008 7.98284 4.09567)
(22.6501 7.45369 3.59937)
(26.2865 11.3552 1.51965)
(32.3463 12.0428 -0.38815)
(35.846 6.57938 -1.28132)
(37.1137 -4.18075 -2.6444)
(34.0096 -9.17353 -1.19348)
(34.0304 -7.90997 1.87757)
(26.6696 -3.85518 5.79174)
(-12.0448 -0.459631 5.52456)
(-30.4808 0.751867 3.91727)
(-38.3688 1.59834 3.07065)
(-41.6777 2.13685 2.67052)
(-42.682 2.38545 2.51454)
(-42.5262 2.34868 2.48774)
(-41.7932 2.04219 2.49766)
(-40.7301 1.5114 2.44502)
(-39.4332 0.830206 2.25905)
(-37.9234 0.0654655 1.96637)
(-36.1116 -0.771329 1.63939)
(-33.5007 -1.65158 1.2637)
(-30.5856 -2.29328 0.884931)
(20.0693 0.331801 -0.0234769)
(21.4095 0.963293 -0.347946)
(23.694 1.74715 -0.270356)
(25.9386 2.34114 0.456291)
(27.5681 3.37154 2.50513)
(26.2894 4.3192 5.03033)
(20.9494 3.37813 5.71803)
(15.9538 1.25747 4.77926)
(8.93813 -1.05283 3.9425)
(2.97499 -0.110918 2.92266)
(10.3913 6.2925 1.08567)
(21.8891 8.60953 -0.0543582)
(28.9209 2.20967 -0.949251)
(26.5093 -7.26296 0.149589)
(9.94928 -5.98283 5.28016)
(-18.1917 1.79598 6.9331)
(-34.3396 1.56416 5.18235)
(-47.7706 0.442905 3.50978)
(-54.7078 -0.629022 2.10031)
(-57.7521 -1.08093 1.2331)
(-58.3665 -1.19494 0.674912)
(-57.4644 -1.20439 0.276834)
(-55.5185 -1.21075 -0.0349296)
(-52.7736 -1.25815 -0.304483)
(-49.567 -1.37226 -0.580251)
(-46.0226 -1.54421 -0.895355)
(-42.3598 -1.74604 -1.23702)
(-38.5765 -1.98886 -1.5502)
(-34.1571 -2.34468 -1.8734)
(-29.7725 -2.70163 -2.23384)
(20.0748 0.106405 -0.0417371)
(21.4857 0.292652 -0.43206)
(23.7772 0.583379 -0.330946)
(26.1045 0.769887 0.101048)
(27.3191 0.900307 2.00576)
(24.1388 0.5964 4.64098)
(14.3934 -0.714219 4.56653)
(2.9685 -2.6106 4.26609)
(-16.1948 -2.16173 2.0594)
(-17.2453 0.880002 -3.48548)
(-5.2571 2.27257 -3.66497)
(7.46527 3.00856 -3.23906)
(24.2551 -2.53756 -0.719767)
(-7.79541 -1.01573 7.18735)
(-33.3977 1.03248 6.24127)
(-46.7354 1.03837 4.28442)
(-54.8527 0.579942 2.11551)
(-59.2109 -0.0202056 0.451316)
(-60.6354 -0.570586 -0.66699)
(-60.2658 -0.82773 -1.33502)
(-58.916 -0.93174 -1.75526)
(-56.8033 -0.971977 -2.03498)
(-54.15 -0.985499 -2.23128)
(-51.1064 -0.988371 -2.38066)
(-47.729 -0.99523 -2.52301)
(-44.0752 -1.01175 -2.69671)
(-40.3023 -1.02866 -2.90142)
(-36.378 -1.05133 -3.09576)
(-31.6477 -1.12311 -3.35958)
(-26.6853 -1.22387 -3.77333)
(20.0785 0.0594548 0.120878)
(18.8625 -0.0503154 1.0247)
(21.4303 -0.298217 0.0158724)
(35.4035 -0.0625522 -6.65434)
(53.9268 0.562383 -12.7989)
(65.455 1.02416 -11.462)
(66.7382 1.16302 -4.6369)
(60.2114 1.22039 3.24611)
(49.4602 1.92475 7.41752)
(28.3054 4.05126 13.2955)
(-20.0473 5.63736 17.7571)
(-32.7104 4.81206 2.16227)
(-36.3174 4.44074 -9.27941)
(-35.4937 4.27051 -13.9748)
(-32.4403 4.13227 -15.2399)
(-29.1672 4.00096 -14.6573)
(-26.7613 3.88114 -13.3873)
(-25.6225 3.75709 -12.0244)
(-25.6699 3.6101 -10.8092)
(-26.4858 3.4172 -9.78361)
(-27.5684 3.1652 -8.87635)
(-28.4542 2.8468 -7.97054)
(-28.864 2.46678 -6.95724)
(-28.7252 2.03739 -5.77092)
(-28.0961 1.56947 -4.405)
(-27.1209 1.05885 -2.90154)
(-26.0179 0.484188 -1.28536)
(-25.0286 -0.137198 0.391092)
(-23.8637 -0.668735 1.80494)
(-22.7721 -1.0126 2.55987)
(19.9781 0.162089 0.208652)
(18.9022 -0.1425 1.10898)
(22.3752 -0.864028 -0.473801)
(35.5095 -0.365512 -6.87545)
(51.9901 1.31947 -12.0178)
(62.715 2.73373 -10.7158)
(64.6421 3.28978 -4.4987)
(59.5024 3.53012 2.90189)
(50.2696 5.20651 7.03627)
(33.8233 10.6511 12.4643)
(-12.9588 15.4294 20.2689)
(-28.9421 13.6211 5.92025)
(-31.9682 12.6026 -6.81778)
(-31.1953 12.402 -12.7187)
(-27.9517 12.2547 -14.8767)
(-24.4514 12.0638 -14.7625)
(-21.8409 11.8093 -13.6616)
(-20.6028 11.466 -12.3034)
(-20.6823 11.0256 -11.0378)
(-21.6687 10.4611 -10.0005)
(-23.0468 9.73885 -9.17038)
(-24.3141 8.8341 -8.43852)
(-25.1173 7.75523 -7.67804)
(-25.3024 6.53518 -6.78676)
(-24.879 5.20652 -5.70772)
(-23.9404 3.796 -4.44112)
(-22.6958 2.28841 -2.98828)
(-21.4688 0.707141 -1.40723)
(-20.5702 -0.753237 0.14058)
(-20.0172 -1.76977 1.1323)
(19.8296 0.268764 0.438487)
(18.8091 -0.257711 1.14884)
(24.3235 -1.32376 -2.43164)
(37.7906 -0.447756 -9.3714)
(52.182 2.28556 -12.4749)
(61.2498 4.50393 -9.57563)
(63.1675 5.21023 -2.75243)
(59.121 5.32494 4.32466)
(51.0023 7.38031 7.55429)
(37.7621 15.3196 11.7153)
(-6.91383 22.6583 22.1971)
(-26.4655 20.4561 10.2765)
(-28.769 19.0022 -3.17092)
(-28.162 19.3534 -10.3141)
(-24.8442 19.7487 -13.55)
(-21.1234 19.9356 -14.2325)
(-18.3073 19.8129 -13.5548)
(-16.9165 19.363 -12.3748)
(-16.9117 18.6418 -11.1644)
(-17.8869 17.6791 -10.145)
(-19.3088 16.4604 -9.37277)
(-20.6628 14.9622 -8.76679)
(-21.5498 13.1956 -8.20499)
(-21.7842 11.1974 -7.57512)
(-21.3388 9.05352 -6.7961)
(-20.3302 6.81962 -5.81657)
(-18.9394 4.53702 -4.66015)
(-17.4912 2.25853 -3.36802)
(-16.3284 0.159319 -1.99907)
(-15.7677 -1.32372 -0.909507)
(19.6646 0.383883 0.717749)
(18.9415 -0.274896 0.762396)
(26.3254 -1.37675 -5.05835)
(39.8015 -0.0183065 -11.5119)
(52.4185 3.28765 -11.8527)
(59.9562 5.72663 -6.73634)
(62.2505 6.32462 0.948196)
(58.525 5.91548 7.31396)
(50.7322 8.12737 8.91093)
(38.2024 18.5736 11.2047)
(-3.83362 27.0731 23.2602)
(-24.7953 24.5957 14.4901)
(-26.4962 23.2334 1.35989)
(-26.0034 24.5856 -6.87455)
(-22.8709 26.0675 -11.1573)
(-19.0954 27.1307 -12.779)
(-16.1735 27.5046 -12.7133)
(-14.6209 27.1509 -11.8973)
(-14.4361 26.2234 -10.8807)
(-15.2252 24.8657 -9.95589)
(-16.4665 23.1424 -9.24366)
(-17.6535 21.0622 -8.71218)
(-18.3761 18.6441 -8.272)
(-18.452 15.95 -7.83129)
(-17.8302 13.0829 -7.32348)
(-16.6362 10.1354 -6.67571)
(-15.0344 7.19398 -5.90272)
(-13.3386 4.35931 -5.01511)
(-11.8906 1.7853 -4.01485)
(-11.194 -0.0468326 -2.97371)
(19.4661 0.520449 0.932972)
(19.1101 -0.0625833 -0.0641344)
(27.9022 -1.00055 -7.49897)
(41.2403 0.346287 -12.2095)
(52.3977 3.13249 -9.2919)
(58.7961 5.1481 -1.66828)
(60.922 5.54683 6.39176)
(56.0654 4.0242 11.1308)
(47.796 7.00998 10.3854)
(33.6776 21.7781 10.8609)
(-3.60819 28.5645 23.5001)
(-23.5909 25.5282 18.1996)
(-25.904 25.5291 6.5038)
(-24.4208 27.7656 -2.39777)
(-21.7877 30.717 -7.67417)
(-18.2359 33.0593 -10.2137)
(-15.4046 34.3125 -10.8747)
(-13.7584 34.3019 -10.5804)
(-13.3387 33.3099 -9.91737)
(-13.7994 31.6255 -9.21629)
(-14.6737 29.4419 -8.63624)
(-15.4888 26.8395 -8.20066)
(-15.8723 23.8597 -7.87134)
(-15.6227 20.5948 -7.59484)
(-14.7049 17.1445 -7.31065)
(-13.2216 13.6306 -6.96255)
(-11.3252 10.1705 -6.55085)
(-9.29391 6.93027 -6.08888)
(-7.36407 4.06839 -5.60569)
(-6.09837 1.9493 -4.78622)
(19.2445 0.694246 1.09561)
(19.1449 0.492379 -1.10152)
(28.9066 -0.25963 -9.24437)
(41.846 0.278919 -11.7081)
(51.7764 1.50051 -5.71328)
(57.7067 2.52727 4.02033)
(57.5569 1.57064 11.3518)
(51.2052 -1.55933 13.6012)
(42.3932 5.22365 10.6369)
(24.0304 25.4741 10.8022)
(-4.7812 26.3318 22.6978)
(-22.1524 22.904 21.3222)
(-26.2784 25.5496 12.004)
(-24.1692 29.3454 3.12381)
(-21.5447 33.4384 -3.05889)
(-18.5431 37.2546 -6.44916)
(-15.9602 39.6172 -7.92636)
(-14.3519 40.193 -8.29825)
(-13.6881 39.3198 -8.14946)
(-13.7282 37.4406 -7.81557)
(-14.0886 34.9021 -7.47972)
(-14.3734 31.8688 -7.21968)
(-14.2678 28.4632 -7.04412)
(-13.5833 24.7791 -6.92941)
(-12.2871 20.9147 -6.83237)
(-10.4547 17.0029 -6.72091)
(-8.18876 13.1873 -6.60998)
(-5.73656 9.67183 -6.52463)
(-3.22223 6.6793 -6.6028)
(-0.984104 4.3062 -6.19164)
(19.0257 0.904286 1.21366)
(19.1214 1.39462 -2.0078)
(29.305 0.743611 -10.3108)
(41.3701 -0.0518476 -11.0106)
(50.2583 -0.460793 -3.0497)
(54.8711 -1.15611 7.34446)
(51.7823 -4.49144 13.6187)
(38.4599 -7.8968 14.0842)
(31.0539 5.14549 10.2571)
(15.5702 26.7762 9.47213)
(0.438655 21.1862 19.7615)
(-16.5363 18.4097 22.7701)
(-25.724 23.5768 16.9569)
(-25.686 29.9567 9.16742)
(-23.0412 34.9144 2.87742)
(-19.9572 39.4546 -1.49623)
(-17.8576 42.9943 -3.85206)
(-16.34 44.2728 -5.03783)
(-15.4235 43.6989 -5.57914)
(-14.9967 41.8107 -5.75497)
(-14.7537 39.0654 -5.78123)
(-14.4261 35.7621 -5.78128)
(-13.7331 32.0817 -5.81674)
(-12.5588 28.1343 -5.8698)
(-10.8519 24.0257 -5.93633)
(-8.66171 19.8828 -6.00147)
(-6.00526 15.8595 -6.11392)
(-3.08505 12.1636 -6.29834)
(0.023416 9.08746 -6.8548)
(3.55143 6.45564 -7.01306)
(18.8687 1.19355 1.2979)
(19.0398 2.68772 -2.58468)
(29.0376 2.25727 -10.9935)
(39.9193 0.0890242 -11.1794)
(47.7449 -2.2646 -3.14098)
(51.3486 -4.58071 6.6693)
(43.5205 -6.90817 13.0802)
(14.2497 -10.9387 14.4618)
(10.4033 5.85339 8.27938)
(14.6736 22.2141 5.8962)
(10.0307 14.9936 15.0151)
(-6.78164 16.3333 18.675)
(-29.2332 21.6895 19.0774)
(-34.1111 30.467 13.9876)
(-27.0357 34.6404 9.4152)
(-23.7062 40.1738 4.57478)
(-21.1466 44.2929 1.26223)
(-19.6143 46.1973 -0.898095)
(-18.4975 46.0809 -2.26892)
(-17.5421 44.35 -3.09115)
(-16.6663 41.6056 -3.58784)
(-15.6623 38.2174 -3.93813)
(-14.3758 34.4229 -4.21169)
(-12.7132 30.3693 -4.4387)
(-10.6217 26.1674 -4.64553)
(-8.10579 21.9391 -4.83996)
(-5.10668 17.8318 -5.09596)
(-1.73487 14.037 -5.45418)
(1.92769 10.8709 -6.33594)
(6.79365 8.15635 -7.07459)
(18.8574 1.56772 1.35387)
(18.9077 4.34319 -2.6559)
(28.1868 4.64478 -11.2758)
(37.6386 1.80753 -12.4574)
(44.0256 -1.43211 -6.36461)
(47.439 -2.03736 2.17455)
(36.873 -1.85712 10.4489)
(-2.54624 -8.38083 13.3096)
(-1.78174 -2.86227 8.87232)
(-5.79003 23.1311 7.0529)
(-29.86 7.27929 18.6185)
(-16.3504 20.966 8.20781)
(-38.9897 22.4872 14.6383)
(-43.2833 30.0661 15.9711)
(-30.8762 31.23 15.6872)
(-28.958 38.9144 11.0414)
(-26.563 43.8984 6.94962)
(-24.6792 46.2679 3.85241)
(-22.8468 46.3974 1.59721)
(-21.1609 44.876 0.0291495)
(-19.6805 42.3469 -1.02303)
(-18.0572 39.0612 -1.74609)
(-16.2195 35.3224 -2.26633)
(-14.1191 31.3164 -2.66508)
(-11.7036 27.1625 -2.99507)
(-8.94112 22.9694 -3.28626)
(-5.71151 18.865 -3.62395)
(-1.98645 15.0136 -4.08543)
(2.18623 11.7038 -5.11661)
(8.35567 9.11222 -6.33658)
(19.0263 1.94553 1.38961)
(18.7814 6.06473 -2.13027)
(27.3082 7.65439 -10.938)
(36.2003 5.0893 -13.9404)
(41.404 2.20313 -10.0534)
(42.8338 2.64981 -2.38971)
(38.4937 6.08007 6.36911)
(-0.445051 6.29421 11.6243)
(-33.4442 8.49284 -1.06981)
(-52.665 20.8596 -10.9048)
(-69.5481 17.1556 1.57602)
(-54.4755 -11.6714 23.0611)
(-70.3852 8.52905 1.49058)
(-48.4224 13.9572 0.887831)
(-32.4526 25.1184 19.8946)
(-33.723 34.9203 16.8453)
(-32.6268 41.0765 12.5071)
(-30.9896 44.2431 8.68785)
(-28.7465 44.901 5.63631)
(-26.3759 43.7558 3.38567)
(-24.0006 41.4353 1.82052)
(-21.587 38.3297 0.730685)
(-19.1718 34.7756 -0.0414515)
(-16.7454 30.9743 -0.608449)
(-14.1047 26.9823 -1.05882)
(-11.1935 22.8948 -1.46162)
(-7.8872 18.7926 -1.89859)
(-4.02219 14.7906 -2.42735)
(0.629598 11.2486 -3.43545)
(8.02651 9.10895 -5.00903)
(19.3126 2.22907 1.37546)
(18.7413 7.454 -1.1133)
(26.4475 10.8129 -9.71031)
(35.3531 9.43637 -14.7445)
(40.5477 6.81372 -13.2866)
(41.4676 7.03711 -7.02779)
(41.3043 10.7265 1.81143)
(28.2307 13.7071 10.8751)
(5.7849 10.9247 15.31)
(7.82604 -3.86779 7.64387)
(-12.1403 19.978 -24.9239)
(-31.012 16.6146 21.4514)
(-35.9927 27.8564 21.1032)
(-37.5122 35.497 17.1533)
(-37.1657 39.8524 12.99)
(-35.2272 41.3497 9.40743)
(-32.606 40.8359 6.67006)
(-29.7193 39.0027 4.71789)
(-26.7816 36.3152 3.3432)
(-23.8711 33.0935 2.35704)
(-20.9459 29.5069 1.59608)
(-17.9177 25.6466 0.926723)
(-14.8545 21.6049 0.271022)
(-11.7291 17.4508 -0.414823)
(-8.12483 13.2837 -1.11207)
(-3.4582 9.71445 -2.05786)
(3.80146 8.21297 -3.57586)
(19.6378 2.35823 1.27505)
(18.9655 8.2159 0.109051)
(25.7857 13.425 -7.43818)
(34.9871 14.3031 -13.97)
(41.2216 12.7631 -15.1969)
(43.4291 12.4194 -11.4335)
(43.8647 14.323 -4.16402)
(41.8616 15.5799 4.95834)
(37.0042 9.84878 15.2309)
(8.64122 -10.9491 27.8618)
(0.00814835 -17.2819 11.4208)
(-25.2007 10.3018 -10.0095)
(-15.8537 14.8311 -16.4468)
(-26.5203 29.9346 -3.8865)
(-24.4652 5.03742 19.2416)
(-33.2669 18.2752 22.9687)
(-39.3007 27.5501 20.1628)
(-41.6579 33.3318 16.1286)
(-41.0477 35.8832 12.3887)
(-38.9426 36.2004 9.4623)
(-36.1244 35.0501 7.31573)
(-33.0071 32.9083 5.74444)
(-29.7676 30.0818 4.50138)
(-26.463 26.7424 3.38279)
(-23.2187 23.0612 2.27252)
(-20.3241 19.1985 1.13824)
(-18.0356 15.2883 -0.00387056)
(-15.9295 11.5064 -1.09013)
(-14.171 8.42416 -2.19651)
(-14.3848 6.79407 -3.26935)
(19.89 2.28074 1.05521)
(19.5014 8.19628 1.14772)
(25.4839 14.6453 -4.46777)
(34.8823 18.0487 -11.1824)
(42.5864 18.4144 -14.4726)
(46.9229 18.2104 -13.4778)
(48.539 18.5589 -8.93421)
(48.4017 17.6619 -1.89901)
(45.9632 13.1991 7.15786)
(33.4496 2.15838 16.3965)
(-8.52654 -23.0509 13.0619)
(-12.2105 1.08596 -5.14622)
(-19.4333 20.9388 0.568578)
(-8.33028 -5.38984 -6.55926)
(-10.8228 -6.42626 13.5597)
(-22.9933 7.32271 21.0376)
(-36.5218 18.5642 20.8861)
(-43.3849 25.5141 17.6185)
(-45.3717 29.0289 14.1313)
(-44.7095 30.1745 11.2601)
(-42.5879 29.7046 9.00669)
(-39.6431 28.1013 7.16224)
(-36.3486 25.6734 5.47166)
(-33.011 22.7512 3.80919)
(-30.2118 19.6075 2.16131)
(-28.6664 16.4157 0.597484)
(-28.2205 13.2878 -0.809832)
(-28.5643 10.4506 -1.95444)
(-29.6679 8.12266 -2.75178)
(-31.813 6.64549 -3.11884)
(19.9893 2.00324 0.752818)
(20.1796 7.29583 1.67535)
(25.4127 13.9805 -1.45872)
(34.6311 19.1417 -6.98652)
(43.4389 21.5322 -10.9541)
(49.6404 22.3358 -11.7747)
(52.7667 22.2804 -9.57554)
(53.3615 20.5063 -5.07697)
(51.066 17.2908 1.881)
(42.7141 10.703 8.7034)
(17.4607 -6.36736 7.95476)
(-9.43566 -0.683326 1.20467)
(-3.07966 2.66874 -4.64024)
(6.26463 -21.871 -1.80193)
(-1.57328 -15.5518 9.75859)
(-15.1667 -1.11858 17.5089)
(-32.5265 10.9988 19.2955)
(-45.0321 18.3353 17.1796)
(-50.0584 22.0765 14.1496)
(-51.036 23.5805 11.3651)
(-49.5886 23.5072 8.92101)
(-46.8329 22.3667 6.69541)
(-43.6894 20.5592 4.58862)
(-40.9799 18.4446 2.64271)
(-39.5671 16.224 0.939668)
(-39.3403 13.9774 -0.431288)
(-39.5187 11.8102 -1.42791)
(-39.6349 9.71681 -2.01586)
(-39.3409 7.69831 -2.23392)
(-38.9653 6.17009 -2.19265)
(19.9959 1.60137 0.454083)
(20.7014 5.76817 1.52777)
(25.3098 11.8005 0.807807)
(33.846 17.4307 -2.48866)
(42.9146 21.115 -5.66705)
(49.9677 23.1581 -6.87438)
(53.7854 23.5735 -5.94969)
(54.7003 21.6943 -3.40252)
(52.5958 18.8999 1.18668)
(47.0319 16.2717 4.69322)
(34.5866 8.24575 2.72437)
(13.8552 1.30959 0.340074)
(19.162 -7.16882 -4.06615)
(2.12723 -22.7301 3.54049)
(-15.3117 -16.5119 12.0866)
(-29.5135 -2.56983 16.457)
(-42.9954 7.84871 16.8208)
(-53.9385 13.3776 14.844)
(-58.5094 16.1214 12.0684)
(-59.0547 17.302 9.36885)
(-57.2386 17.4016 6.91607)
(-54.4735 16.7989 4.71332)
(-51.8173 15.8054 2.8131)
(-49.9762 14.592 1.30089)
(-49.1405 13.2342 0.233378)
(-48.3482 11.6919 -0.417279)
(-47.2894 10.0054 -0.740145)
(-45.8064 8.16762 -0.820645)
(-43.8553 6.26702 -0.790629)
(-42.0713 4.83782 -0.739142)
(20.0289 1.18561 0.205246)
(20.9826 4.09035 0.889805)
(24.9951 8.80589 1.83521)
(32.3898 13.7986 1.16473)
(40.8672 17.6817 -0.14338)
(47.6897 20.56 -0.402084)
(51.1261 21.6457 0.421657)
(51.9147 20.3647 1.832)
(50.1022 18.1894 4.23951)
(46.4161 17.7309 4.49004)
(41.1686 15.8914 -0.0395233)
(29.1033 10.5977 -3.56137)
(25.8 -2.40527 -3.98105)
(-4.3887 -19.0368 7.60596)
(-32.8686 -13.6089 14.3045)
(-52.7936 -3.12386 15.8878)
(-62.1202 4.71761 14.0955)
(-66.8112 8.73857 11.6492)
(-68.2394 10.7073 9.07514)
(-67.2643 11.7023 6.75745)
(-65.0504 12.0998 4.82868)