/*--------------------------------*- C++ -*----------------------------------*\
| =========                 |                                                 |
| \\      /  F ield         | OpenFOAM: The Open Source CFD Toolbox           |
|  \\    /   O peration     | Version:  2512                                  |
|   \\  /    A nd           | Website:  www.openfoam.com                      |
|    \\/     M anipulation  |                                                 |
\*---------------------------------------------------------------------------*/
FoamFile
{
    version     2.0;
    format      ascii;
    arch        "LSB;label=32;scalar=64";
    class       volVectorField;
    location    "60";
    object      U;
}
// * * * * * * * * * * * * * * * * * * * * * * * * * * * * * * * * * * * * * //

dimensions      [0 1 -1 0 0 0 0];

internalField   nonuniform List<vector> 
84826
(
(19.9991 -0.0015943 0.00250099)
(19.9896 -0.00649442 0.00768841)
(19.968 -0.0117896 0.0156767)
(19.9312 -0.0153775 0.0307361)
(19.8797 -0.0239761 0.0450733)
(19.8344 -0.0476324 0.0629359)
(19.7962 -0.0741985 0.112133)
(19.7318 -0.102266 0.194285)
(19.7164 -0.202073 0.203142)
(19.9586 -0.402277 0.179548)
(20.5264 -0.519098 0.425618)
(20.8081 -0.127767 0.821149)
(20.3196 0.51822 0.656185)
(19.9291 0.938821 -0.142555)
(20.7631 1.16091 -1.32384)
(25.6694 1.33334 -3.35867)
(35.1038 1.42108 -5.21181)
(44.568 1.36388 -5.10187)
(50.0792 1.20776 -3.58428)
(50.6523 1.01154 -1.67252)
(46.0316 0.765742 0.155145)
(38.1776 0.50951 1.43515)
(29.3327 0.298356 2.00028)
(21.4023 0.169282 2.00923)
(15.3013 0.14172 1.79338)
(10.8773 0.177468 1.43837)
(8.31317 0.0352242 0.816187)
(9.26204 -0.358591 0.107198)
(11.1355 -1.03513 -0.623913)
(18.68 -1.76466 -0.685969)
(19.9991 -0.0047391 0.00248995)
(19.9886 -0.018959 0.00814975)
(19.9669 -0.0388252 0.0145478)
(19.931 -0.0606784 0.0258992)
(19.872 -0.094127 0.0445005)
(19.8025 -0.1756 0.0649143)
(19.7445 -0.298852 0.0911927)
(19.6842 -0.415625 0.169249)
(19.6209 -0.648831 0.264999)
(19.6862 -1.20592 0.259043)
(20.3898 -2.00863 0.272552)
(21.379 -1.68122 0.57021)
(21.4109 -0.00156939 0.831346)
(20.5567 1.81193 0.506602)
(20.5104 2.91844 -0.548715)
(24.8302 3.58953 -2.64777)
(34.139 3.99008 -4.71246)
(43.6959 3.97082 -4.83742)
(49.3728 3.58684 -3.45447)
(50.1543 3.007 -1.56987)
(45.7289 2.21327 0.288703)
(38.0657 1.33942 1.61375)
(29.5088 0.570043 2.20871)
(22.0629 0.0208314 2.22946)
(16.6961 -0.207056 1.9481)
(13.1793 -0.120065 1.5778)
(11.4532 -0.320313 1.11149)
(12.0138 -1.25743 0.367493)
(13.8622 -2.53591 -0.514019)
(19.8488 -3.07644 -0.737602)
(19.9989 -0.00808709 0.00233477)
(19.9865 -0.029794 0.0084721)
(19.9565 -0.0615757 0.0143355)
(19.9103 -0.108638 0.0225791)
(19.8457 -0.168203 0.0469026)
(19.7459 -0.269713 0.0801373)
(19.6179 -0.455424 0.105334)
(19.5035 -0.69783 0.155913)
(19.3878 -1.07098 0.286688)
(19.2574 -1.74683 0.324613)
(20.1008 -3.20989 0.335926)
(21.654 -3.19387 0.498089)
(22.4275 -1.40572 0.735593)
(21.8356 1.20819 0.822881)
(21.1335 3.43948 0.151106)
(24.6339 5.01683 -1.88418)
(33.4941 6.09224 -4.08492)
(42.8705 6.33919 -4.38376)
(48.5327 5.79654 -3.1)
(49.2467 4.75745 -1.19552)
(44.7799 3.26272 0.702304)
(37.1424 1.57495 2.02774)
(28.7428 0.0315427 2.54471)
(21.6134 -1.12154 2.36503)
(16.8267 -1.63869 1.7906)
(14.1527 -1.46775 1.24039)
(12.9413 -1.37255 0.775169)
(13.249 -2.39117 0.0297798)
(14.7487 -3.72327 -1.07326)
(20.7071 -4.00253 -1.39262)
(19.9985 -0.0109877 0.00228904)
(19.9846 -0.0383351 0.00777429)
(19.9475 -0.0746893 0.0147065)
(19.888 -0.131454 0.0285028)
(19.8119 -0.214 0.0517533)
(19.6935 -0.343349 0.0771466)
(19.5058 -0.584698 0.107166)
(19.282 -0.970396 0.152552)
(19.0009 -1.60738 0.281353)
(18.8478 -2.40157 0.201781)
(19.725 -5.31275 0.689274)
(21.327 -5.45006 1.01542)
(22.2097 -2.96921 1.06919)
(22.2958 0.208171 1.10959)
(21.9622 3.17828 0.729414)
(24.9414 5.72143 -1.07041)
(33.1006 7.6342 -3.27563)
(41.9997 8.23062 -3.73477)
(47.4838 7.53368 -2.55341)
(47.9136 5.93162 -0.610203)
(43.211 3.61323 1.28341)
(35.49 1.04661 2.45281)
(27.2079 -1.19318 2.63045)
(20.5496 -2.61264 1.9973)
(16.4805 -2.99616 1.06723)
(14.5926 -2.64339 0.399761)
(14.0754 -2.34584 0.122622)
(14.9041 -3.32467 0.0297948)
(15.9736 -4.92196 -0.377949)
(21.9069 -6.00012 -0.608327)
(19.9984 -0.0129143 0.002389)
(19.9826 -0.0448218 0.00719456)
(19.9396 -0.086594 0.0150518)
(19.8653 -0.147096 0.0323764)
(19.7551 -0.247807 0.0480832)
(19.5802 -0.412972 0.0646936)
(19.3042 -0.732542 0.0997505)
(18.9438 -1.259 0.212192)
(18.3946 -2.32205 0.287346)
(18.4306 -3.37356 0.240816)
(17.1712 -9.42609 1.17471)
(18.6057 -9.38839 0.758236)
(19.6037 -5.4653 0.373697)
(20.0862 -1.64821 0.578487)
(21.2915 1.86207 0.659573)
(25.0337 5.44472 -0.548537)
(32.7383 8.34588 -2.39867)
(40.9554 9.37081 -2.86577)
(46.1257 8.5769 -1.73036)
(46.0378 6.35471 0.225941)
(40.9228 3.19639 1.96821)
(33.0388 -0.103915 2.7666)
(25.2321 -2.65069 2.38476)
(19.615 -3.68755 1.23421)
(16.474 -3.62459 0.30292)
(15.2935 -3.60036 0.166523)
(15.5174 -4.27268 0.598027)
(16.9954 -6.26618 1.16303)
(18.0302 -8.55299 1.40821)
(23.5971 -10.7743 1.2807)
(19.9982 -0.0140169 0.00237263)
(19.9793 -0.0499404 0.00758899)
(19.9307 -0.0989945 0.0167119)
(19.8394 -0.161016 0.0303459)
(19.6983 -0.254323 0.0418752)
(19.4544 -0.401498 0.0693954)
(19.0667 -0.705258 0.101078)
(18.4226 -1.26334 0.313985)
(17.5453 -2.69651 0.136897)
(17.2601 -4.13375 0.948869)
(10.7034 -14.2461 0.141284)
(14.6621 -12.2386 -2.20318)
(16.9589 -5.79167 -2.53464)
(17.5027 -1.79207 -1.68755)
(19.7902 1.07958 -0.846053)
(24.7624 4.83662 -1.07053)
(32.3285 8.34612 -2.03234)
(39.8298 9.69027 -2.05605)
(44.3847 8.75091 -0.705379)
(43.4224 5.87222 1.23021)
(37.6777 1.98733 2.61535)
(29.8861 -1.78316 2.71202)
(23.1505 -3.89181 1.49405)
(18.6065 -4.21462 0.447772)
(16.4091 -4.74154 0.714074)
(16.3039 -6.80539 1.75608)
(17.4403 -9.69905 2.60146)
(19.4712 -12.7916 2.96082)
(20.3483 -15.3503 2.99931)
(25.2108 -18.1541 2.55624)
(19.9978 -0.014527 0.00225832)
(19.9743 -0.0516236 0.00774704)
(19.9213 -0.103232 0.018366)
(19.822 -0.165116 0.0297913)
(19.6679 -0.238783 0.0411184)
(19.3528 -0.355179 0.0744639)
(18.8807 -0.57717 0.109092)
(17.7695 -1.08095 0.344039)
(16.7213 -2.13037 0.0156743)
(14.5713 -3.68342 2.01339)
(2.8209 -16.308 -3.53647)
(12.3677 -10.367 -6.39407)
(16.0267 -2.48161 -4.93966)
(16.3109 0.486263 -3.11367)
(18.7467 1.78272 -2.10067)
(24.288 4.73768 -1.96354)
(31.671 8.08907 -2.23298)
(38.5434 9.40027 -1.61139)
(42.0605 8.06577 0.129771)
(39.9887 4.53134 1.99904)
(33.772 0.0315313 2.77998)
(26.7866 -3.29217 1.68803)
(20.9393 -4.28843 0.607301)
(17.6085 -5.90619 1.54921)
(17.0974 -10.2499 3.28297)
(18.2381 -15.2878 4.22303)
(19.8108 -19.1899 4.37629)
(21.7756 -21.8383 4.10003)
(22.6155 -23.7443 3.70691)
(26.915 -25.9191 2.74956)
(19.9976 -0.0144473 0.00232594)
(19.971 -0.0505109 0.00707216)
(19.9122 -0.0945094 0.01666)
(19.8091 -0.152069 0.0300838)
(19.6478 -0.225785 0.0465935)
(19.2879 -0.331528 0.0766083)
(18.7661 -0.430813 0.130686)
(17.362 -0.772137 0.286467)
(16.3937 -0.605925 0.0823718)
(13.3876 -1.04629 2.08409)
(-0.0808594 -7.42425 -1.11037)
(9.95124 -9.6614 -7.26563)
(15.589 0.340866 -2.2604)
(14.5446 1.74745 -0.888907)
(18.7001 3.49716 -2.47153)
(24.3507 5.45096 -2.55781)
(31.0602 8.11923 -2.54033)
(37.1431 8.97606 -1.47739)
(39.3327 6.97495 0.528646)
(36.2674 2.63579 2.14988)
(30.4792 -1.75005 1.72404)
(23.8899 -3.45068 0.732968)
(19.1818 -6.42769 2.46806)
(17.9592 -13.886 4.78914)
(18.8221 -21.6122 5.5537)
(20.4033 -26.8795 5.28601)
(22.0188 -29.8765 4.71401)
(23.9571 -31.2978 4.08443)
(25.0353 -32.2074 3.41145)
(29.0515 -32.4234 1.99177)
(19.9976 -0.0135139 0.00248985)
(19.9713 -0.0481202 0.00731906)
(19.9094 -0.0826269 0.0141399)
(19.7956 -0.126295 0.0268551)
(19.624 -0.198835 0.0477782)
(19.2666 -0.303183 0.0768063)
(18.7523 -0.26262 0.13713)
(17.582 -0.245092 0.275322)
(16.2061 0.230866 0.0455881)
(16.7125 1.89393 0.0811016)
(23.0325 3.99961 1.82069)
(8.3311 9.13513 0.955313)
(9.49756 7.90769 0.139824)
(11.2065 5.94893 -0.800459)
(19.1178 5.75707 -3.30368)
(24.755 6.49682 -3.18445)
(30.6633 8.34918 -2.87582)
(35.6489 8.62529 -1.50619)
(36.423 5.6897 0.577314)
(33.4582 0.774553 1.32571)
(27.5644 -1.67438 0.676879)
(21.4544 -5.44919 3.20215)
(18.9445 -16.262 6.1244)
(19.1829 -27.0866 6.41468)
(20.5101 -34.027 5.4908)
(22.3214 -37.689 4.48241)
(24.211 -39.2759 3.6018)
(26.4374 -39.3833 2.87368)
(27.8031 -39.124 2.06153)
(31.7007 -36.8087 0.484426)
(19.9974 -0.0121281 0.00233535)
(19.9723 -0.0430592 0.00809834)
(19.9119 -0.074955 0.0131779)
(19.7895 -0.106421 0.0248946)
(19.6033 -0.153109 0.0427743)
(19.2955 -0.222823 0.0776823)
(18.816 -0.159253 0.128737)
(18.0381 0.146711 0.22436)
(16.7906 0.505547 0.142515)
(15.6429 2.12895 0.675435)
(15.898 -6.92655 0.650769)
(30.4416 -0.24963 -0.494583)
(18.0161 -0.395044 3.12878)
(13.2682 8.66827 0.424341)
(21.1995 9.98008 -2.73486)
(26.0326 8.48221 -3.24757)
(30.9628 9.05912 -3.09955)
(34.4664 8.25541 -1.52037)
(34.5422 4.02726 0.114007)
(31.1819 0.719108 0.183302)
(24.6349 -2.46179 3.38805)
(20.2776 -15.9671 7.08806)
(19.3814 -30.2613 6.80568)
(20.2253 -39.1853 5.05991)
(21.9956 -43.8436 3.51056)
(24.2722 -45.7416 2.37973)
(26.5688 -45.8859 1.51865)
(29.1408 -44.7099 0.897734)
(30.6699 -43.1601 0.124625)
(34.6794 -38.4767 -1.22305)
(19.9973 -0.0107317 0.00214538)
(19.972 -0.0369349 0.00746787)
(19.9127 -0.0667613 0.0135039)
(19.7957 -0.0918922 0.0244259)
(19.599 -0.100549 0.0393844)
(19.3465 -0.125034 0.078353)
(18.9084 -0.0442067 0.106389)
(18.413 0.124954 0.258167)
(16.5678 0.86426 0.0283675)
(14.7576 1.30798 2.24487)
(5.74628 -12.0304 -0.985064)
(12.4502 -10.8572 4.39659)
(17.7201 8.90597 2.02625)
(17.9222 13.0916 -0.691832)
(25.8782 11.833 -2.01993)
(31.5636 11.1919 -2.2035)
(34.2826 8.37028 -1.08722)
(33.808 4.58671 -0.503904)
(28.5672 2.58064 2.78938)
(22.3041 -12.0351 7.56319)
(19.6984 -30.1236 6.92558)
(19.711 -41.4739 4.30701)
(21.2005 -47.3525 2.20683)
(23.5613 -49.8445 0.799585)
(26.2781 -50.1224 -0.0941559)
(28.9035 -49.0039 -0.710851)
(31.7554 -46.7734 -1.08308)
(33.369 -44.0101 -1.64928)
(37.8407 -37.6663 -2.57681)
(19.9974 -0.00942004 0.00211949)
(19.9721 -0.0325187 0.0062913)
(19.9141 -0.0551448 0.0145938)
(19.8092 -0.0734277 0.0208047)
(19.622 -0.062876 0.0356645)
(19.3905 -0.0425583 0.071974)
(18.9972 0.0363659 0.0947141)
(18.5682 0.169007 0.217395)
(17.6995 0.705093 0.276017)
(16.0154 2.33887 0.7992)
(17.6525 2.96239 3.08126)
(-7.98225 -3.2578 0.0861852)
(6.12283 4.71359 0.242595)
(-1.14197 1.88076 -0.484698)
(13.1718 5.64376 2.79075)
(21.1662 9.90065 1.13439)
(28.4412 11.1071 0.232026)
(32.2121 9.56509 -0.0277271)
(31.0728 8.46794 1.91704)
(24.9765 -4.70541 7.46785)
(20.4714 -26.0537 7.00744)
(19.2644 -40.3428 3.60972)
(20.1378 -47.7062 0.985886)
(22.3058 -51.0277 -0.623159)
(25.1382 -51.7407 -1.57844)
(28.1739 -50.7949 -2.09303)
(31.0594 -48.7795 -2.40164)
(34.1489 -45.8664 -2.51811)
(35.9628 -42.6013 -2.86721)
(41.3701 -35.7928 -3.5314)
(19.9975 -0.00823901 0.00206376)
(19.974 -0.0282533 0.00585509)
(19.9193 -0.044254 0.0136218)
(19.8243 -0.0557155 0.0169422)
(19.655 -0.0473326 0.033009)
(19.4564 0.0021045 0.0598189)
(19.081 0.107226 0.0871488)
(18.7314 0.300614 0.148653)
(18.237 0.601598 0.333265)
(17.5317 1.62745 0.315136)
(15.984 2.53748 0.844767)
(11.1361 5.02932 2.38958)
(17.4103 -1.78368 -1.99057)
(21.1861 -4.3205 -3.04114)
(16.8699 0.572975 -0.00312303)
(18.9658 5.42248 1.33853)
(23.6993 8.11821 1.56197)
(27.8319 10.0451 2.31657)
(27.0364 3.01239 6.79444)
(21.963 -18.5968 7.09329)
(19.2142 -35.4496 3.28977)
(19.1189 -44.7087 0.130523)
(20.7676 -49.0476 -1.6564)
(23.4554 -50.5685 -2.6241)
(26.6359 -50.4047 -3.1512)
(29.9726 -49.0358 -3.38948)
(33.1522 -46.7145 -3.50724)
(36.5394 -43.5402 -3.4742)
(38.6358 -40.0455 -3.70681)
(44.9627 -33.0178 -4.30691)
(19.9978 -0.00707646 0.00193266)
(19.9766 -0.0235555 0.00583464)
(19.9249 -0.0367206 0.0104766)
(19.8364 -0.045057 0.0159369)
(19.695 -0.0366061 0.029674)
(19.524 0.0153929 0.0525478)
(19.1878 0.157343 0.0767854)
(18.9125 0.372895 0.111663)
(18.321 0.604881 0.25852)
(18.9736 1.2377 0.110124)
(16.176 1.8761 1.16166)
(17.9422 11.6749 0.718517)
(25.8737 12.6673 -3.77429)
(24.7677 6.56934 -5.97712)
(21.8293 4.96068 -5.09857)
(21.9248 5.82853 -2.90846)
(25.0795 7.89519 -0.158517)
(28.2757 6.60134 4.06633)
(24.7418 -9.60216 6.51083)
(20.0494 -27.1448 3.42936)
(18.415 -38.1122 -0.104677)
(19.2191 -43.9032 -2.19475)
(21.4228 -46.9057 -3.30003)
(24.5042 -47.9105 -3.89871)
(28.0386 -47.3938 -4.21537)
(31.6976 -45.7161 -4.32823)
(35.1665 -43.1555 -4.35565)
(38.8286 -39.8337 -4.24289)
(41.1929 -36.2611 -4.41494)
(48.2844 -29.3856 -5.00369)
(19.998 -0.00592221 0.00184065)
(19.9786 -0.0197278 0.00524294)
(19.9287 -0.0315785 0.00819662)
(19.8479 -0.0387082 0.0161344)
(19.7341 -0.0237083 0.0232571)
(19.5811 0.0215847 0.041965)
(19.2985 0.138815 0.0748266)
(19.0863 0.378669 0.12754)
(18.7298 0.410797 0.149541)
(19.0108 1.66123 0.295713)
(17.9529 0.165008 0.264863)
(17.5574 6.6037 1.5252)
(23.901 12.9259 -0.0785302)
(26.9323 11.5524 -3.0454)
(26.4536 8.69341 -4.79849)
(27.8509 8.03172 -4.35839)
(30.6579 7.70299 -0.895591)
(29.3539 -0.669965 3.64042)
(22.7819 -16.3145 3.65652)
(18.4838 -28.111 0.513546)
(17.699 -35.5633 -2.04248)
(19.0903 -40.4245 -3.49988)
(21.8549 -42.953 -4.34723)
(25.3969 -43.5629 -4.84213)
(29.2969 -42.7382 -5.09768)
(33.2483 -40.8717 -5.14923)
(36.973 -38.2344 -5.1076)
(40.8643 -34.944 -4.92469)
(43.4699 -31.4933 -5.02985)
(51.1392 -25.0913 -5.59373)
(19.9981 -0.00495632 0.00165481)
(19.9797 -0.0167019 0.00472786)
(19.9315 -0.0275264 0.00851319)
(19.86 -0.0316747 0.0149418)
(19.769 -0.0107631 0.0154835)
(19.6164 0.023199 0.0267512)
(19.3857 0.101697 0.0684317)
(19.2605 0.294691 0.155156)
(19.1074 0.191921 0.187128)
(18.9657 1.39153 0.32187)
(18.4301 1.29825 -0.029294)
(17.7414 1.9628 0.804396)
(21.5596 8.20876 1.36055)
(26.1035 11.9287 -0.459665)
(28.5849 11.5723 -2.78036)
(31.4383 10.6031 -2.98587)
(32.7075 7.03108 -0.264782)
(27.9143 -3.57327 2.54187)
(20.2699 -15.7639 1.76482)
(16.4039 -24.4546 -0.818381)
(16.3626 -30.9302 -2.9214)
(18.5778 -35.3178 -4.27863)
(22.0118 -37.5012 -5.12102)
(26.0675 -37.825 -5.60467)
(30.3421 -36.7927 -5.83884)
(34.5655 -34.8275 -5.85899)
(38.498 -32.2248 -5.76314)
(42.5468 -29.114 -5.50798)
(45.342 -25.9457 -5.52922)
(53.3523 -20.2922 -6.03071)
(19.9981 -0.00412069 0.00145971)
(19.9801 -0.0140293 0.00494837)
(19.9343 -0.0234135 0.00912816)
(19.8716 -0.0234509 0.0105745)
(19.7974 -0.0053567 0.0103826)
(19.6397 0.0170741 0.0156429)
(19.4479 0.0840589 0.055862)
(19.3686 0.251915 0.139664)
(19.274 0.0443926 0.216893)
(19.1427 0.767383 0.334483)
(18.8412 1.64715 0.0359549)
(18.5304 0.55101 0.0983628)
(20.3065 2.62632 1.38094)
(24.4281 8.71794 0.899228)
(28.2049 12.0014 -0.769483)
(31.2157 11.5092 -1.08166)
(31.38 6.94208 0.488688)
(25.2975 -2.17675 2.21714)
(16.7494 -11.8868 1.62231)
(13.4634 -19.2578 -0.962319)
(14.6112 -25.1515 -3.33924)
(17.8712 -29.0854 -4.92929)
(22.0533 -30.849 -5.87506)
(26.5971 -30.8732 -6.35495)
(31.1703 -29.7008 -6.52467)
(35.6006 -27.7577 -6.4987)
(39.6609 -25.3439 -6.33112)
(43.7734 -22.5866 -5.97472)
(46.6788 -19.8715 -5.8788)
(54.7788 -15.2246 -6.26035)
(19.9981 -0.00323099 0.00138674)
(19.9802 -0.0111841 0.00515576)
(19.937 -0.0178598 0.00852964)
(19.8804 -0.0167807 0.00719133)
(19.8168 -0.00933526 0.00949208)
(19.6647 -0.00163965 0.0129418)
(19.4995 0.0707845 0.0402793)
(19.4583 0.221534 0.0916233)
(19.2932 0.0683489 0.129514)
(19.167 0.318695 0.317972)
(19.3052 1.37558 0.28846)
(19.4713 0.791463 0.14821)
(19.9656 -0.504399 1.13103)
(22.6449 4.53037 1.65383)
(26.308 9.87811 0.835986)
(29.4933 10.4057 0.308231)
(29.8404 6.79152 0.952933)
(23.42 0.191655 2.60661)
(12.9631 -7.77962 2.766)
(10.1697 -14.0154 -0.400815)
(12.8242 -18.8398 -3.61188)
(17.1919 -21.876 -5.64727)
(22.0734 -23.0514 -6.73247)
(27.0171 -22.8131 -7.19109)
(31.7903 -21.6533 -7.26017)
(36.2917 -19.9479 -7.10193)
(40.3532 -17.9487 -6.7795)
(44.425 -15.7507 -6.26913)
(47.355 -13.6501 -6.02434)
(55.3248 -10.1979 -6.23957)
(19.9981 -0.00220008 0.00133381)
(19.9805 -0.00739518 0.00479122)
(19.9386 -0.0106248 0.00796002)
(19.8828 -0.0108143 0.00731184)
(19.825 -0.013707 0.0100796)
(19.6863 -0.0170488 0.0109886)
(19.5321 0.034942 0.0278425)
(19.546 0.136422 0.071332)
(19.4025 0.0668555 0.0798741)
(19.0993 0.112732 0.221866)
(19.4385 0.794583 0.337161)
(20.3211 0.695216 0.0862026)
(20.3348 -0.849748 0.740658)
(20.7464 1.30751 2.0825)
(23.3678 6.33402 2.07208)
(27.4867 7.91931 1.32145)
(29.5434 5.73882 1.26487)
(23.2634 1.26414 3.06911)
(10.3802 -4.57573 4.06715)
(7.72345 -8.88648 0.0985058)
(11.6815 -11.9202 -4.06274)
(16.8151 -13.7149 -6.48545)
(22.1062 -14.2864 -7.62347)
(27.2286 -13.9588 -7.97733)
(32.0364 -13.0629 -7.88802)
(36.4783 -11.8556 -7.5448)
(40.4222 -10.5082 -6.99512)
(44.3734 -9.06918 -6.30912)
(47.2556 -7.71849 -5.90212)
(54.9425 -5.57457 -5.93271)
(19.998 -0.000826564 0.00127761)
(19.9805 -0.00258536 0.00449155)
(19.9392 -0.00330367 0.00835822)
(19.8805 -0.00368136 0.00858712)
(19.8245 -0.00710786 0.00962205)
(19.7 -0.00863034 0.00994584)
(19.5389 0.00435886 0.0155459)
(19.5659 0.0331956 0.0629524)
(19.5011 0.0418833 0.0727272)
(19.042 -0.0290663 0.15422)
(19.1423 0.0659203 0.267522)
(20.6561 0.383433 0.0703144)
(21.5578 -0.0258235 0.308143)
(19.7862 -0.609169 1.60893)
(18.9625 1.26717 2.38558)
(23.4068 3.04611 1.78488)
(27.7126 2.59039 1.61079)
(22.2362 0.757802 3.6605)
(9.31017 -1.51406 4.49958)
(7.11085 -3.13552 -0.235704)
(11.5716 -4.16158 -4.86512)
(16.8405 -4.72806 -7.35152)
(22.13 -4.86877 -8.36718)
(27.1774 -4.70142 -8.54237)
(31.8573 -4.34133 -8.2767)
(36.1111 -3.88509 -7.71443)
(39.8591 -3.39195 -6.93669)
(43.6402 -2.87501 -6.11111)
(46.4068 -2.39316 -5.55685)
(53.7103 -1.65288 -5.41073)
(19.9989 -0.00180987 0.00657726)
(19.9906 -0.00671845 0.0231231)
(19.9713 -0.0109475 0.0468821)
(19.9392 -0.0189707 0.0685441)
(19.9063 -0.0356831 0.0974606)
(19.877 -0.0498351 0.192171)
(19.8114 -0.0583288 0.311729)
(19.7436 -0.127524 0.335776)
(19.877 -0.273208 0.418629)
(20.1203 -0.30748 0.90117)
(20.1769 -0.213581 1.31036)
(20.2139 -0.11564 0.936705)
(20.957 -0.122999 -0.265834)
(22.7527 -0.048682 -1.79077)
(25.3843 0.355653 -4.21397)
(30.6735 0.982469 -8.63337)
(38.0221 1.37437 -11.6188)
(43.7808 1.43226 -9.66359)
(45.5527 1.3109 -5.19003)
(43.0919 1.11864 -0.698513)
(38.4981 0.920259 2.86254)
(32.1014 0.710547 5.08669)
(24.2459 0.507052 5.78547)
(16.0386 0.354693 5.35851)
(8.52718 0.205437 4.18857)
(4.11558 -0.287135 2.40115)
(4.90807 -1.40891 0.758419)
(7.83882 -2.62662 0.320673)
(10.4546 -3.31275 0.656571)
(17.4827 -2.53059 0.122694)
(19.999 -0.00506639 0.00689937)
(19.9893 -0.0204159 0.0223801)
(19.9681 -0.0378912 0.0431343)
(19.9351 -0.0613232 0.0688085)
(19.89 -0.108033 0.104148)
(19.8364 -0.188636 0.169044)
(19.778 -0.260062 0.277929)
(19.7013 -0.384134 0.410536)
(19.6565 -0.776238 0.534672)
(19.8517 -1.33146 0.759709)
(20.5024 -1.60518 1.2373)
(21.0966 -1.05948 1.59754)
(21.4524 -0.393116 1.14441)
(22.2929 0.0727559 -0.256796)
(24.2172 1.01611 -2.88245)
(29.4357 2.63861 -7.6139)
(37.1168 3.889 -11.1348)
(43.2024 4.17813 -9.63351)
(45.3819 3.83875 -5.33458)
(43.4574 3.23194 -0.782121)
(39.4016 2.56788 2.96117)
(33.5739 1.81745 5.40458)
(26.4279 1.02248 6.33821)
(19.1538 0.335018 6.11509)
(12.8842 -0.157483 5.13711)
(9.27033 -1.10535 3.55697)
(9.54503 -3.23143 1.68921)
(11.75 -5.5048 0.586031)
(13.3498 -6.26592 0.563177)
(16.0614 -5.08515 -0.0334303)
(19.9988 -0.00819763 0.0070008)
(19.9865 -0.0318617 0.02232)
(19.958 -0.0635764 0.0403307)
(19.9198 -0.101858 0.0718748)
(19.865 -0.16045 0.129123)
(19.774 -0.286825 0.191627)
(19.6671 -0.465811 0.268528)
(19.5604 -0.676045 0.432069)
(19.3715 -1.132 0.700974)
(19.3101 -2.07496 0.841732)
(20.2383 -3.40326 1.34217)
(21.652 -2.92174 1.99268)
(22.4337 -1.37817 2.00322)
(22.938 0.0120894 0.917552)
(24.2652 1.58359 -1.64716)
(29.0915 4.07099 -6.51094)
(36.721 6.22774 -10.2888)
(42.8971 6.78885 -9.06886)
(45.2118 6.15866 -4.90554)
(43.6731 5.03223 -0.289124)
(40.0154 3.70586 3.62992)
(34.5219 2.10044 6.25563)
(27.6948 0.283265 7.26885)
(20.8112 -1.42188 6.79471)
(15.3769 -2.59066 5.37028)
(12.4663 -3.71172 3.727)
(12.2982 -5.69055 2.16749)
(14.0268 -7.96657 1.02669)
(15.4264 -8.2182 0.770177)
(16.9831 -7.25279 0.595625)
(19.9983 -0.0110601 0.00687355)
(19.9844 -0.0396585 0.0219967)
(19.9521 -0.0773828 0.0423965)
(19.9022 -0.12684 0.0835836)
(19.827 -0.209329 0.140859)
(19.711 -0.367403 0.192837)
(19.5445 -0.619377 0.265647)
(19.3395 -0.984281 0.451045)
(18.9846 -1.60584 0.737824)
(18.8658 -2.9772 1.0094)
(19.6844 -5.9005 2.42551)
(21.582 -5.36459 3.17523)
(22.7668 -2.55489 2.90209)
(23.4379 0.0815301 1.71226)
(24.6397 2.38598 -0.719817)
(29.1235 5.5856 -5.38876)
(36.4997 8.41372 -9.15677)
(42.6335 9.09961 -8.16919)
(44.9897 8.07839 -4.13958)
(43.8512 6.33792 0.584971)
(40.5051 4.14545 4.6505)
(35.0876 1.41858 7.17998)
(28.0395 -1.5432 7.69021)
(21.2963 -3.99832 6.30933)
(16.6104 -5.672 4.43489)
(14.1419 -7.28847 3.45498)
(13.5177 -9.30588 3.24076)
(14.7774 -11.4879 2.98367)
(16.9032 -11.4691 2.57943)
(21.0374 -11.1042 2.22804)
(19.9981 -0.0131643 0.00685102)
(19.9829 -0.0450231 0.0219182)
(19.9459 -0.0876928 0.0447335)
(19.8756 -0.151272 0.0867191)
(19.764 -0.258931 0.131206)
(19.598 -0.43064 0.182886)
(19.3691 -0.737023 0.297923)
(18.9729 -1.26578 0.602957)
(18.4666 -2.23639 0.770603)
(17.9957 -4.52246 1.89603)
(17.431 -9.57714 3.81939)
(20.0764 -7.72405 3.37294)
(21.6968 -3.11637 2.35942)
(22.8007 0.592506 1.10436)
(24.5412 3.51913 -0.887884)
(29.025 7.30725 -4.70723)
(36.1365 10.5047 -7.93631)
(42.1748 11.0933 -6.99905)
(44.6044 9.54759 -3.05051)
(43.9214 7.07465 1.80316)
(40.7274 3.8503 5.87337)
(34.8885 -0.0408826 7.95066)
(27.4712 -3.73381 7.33813)
(20.8538 -6.5111 5.36902)
(16.5652 -9.18772 4.57878)
(14.7943 -12.2037 5.1352)
(14.8296 -14.9558 5.8462)
(16.3401 -17.3737 5.99154)
(18.1914 -17.614 5.53064)
(24.8052 -17.6719 4.73716)
(19.998 -0.0144615 0.00680946)
(19.9806 -0.0499818 0.0228049)
(19.9356 -0.0987873 0.0459325)
(19.8445 -0.166845 0.0804213)
(19.7119 -0.267873 0.122256)
(19.4743 -0.404789 0.189698)
(19.1805 -0.696906 0.360655)
(18.3362 -1.31689 0.746839)
(17.8957 -2.59644 0.893233)
(15.7106 -5.80786 3.9059)
(13.0068 -12.9124 2.76409)
(18.3162 -7.47062 -0.478224)
(20.9224 -0.582212 -1.82894)
(22.1215 2.98037 -2.06595)
(24.1026 5.44741 -2.71263)
(28.6386 9.31229 -4.94017)
(35.4488 12.5298 -7.0004)
(41.2939 12.7838 -5.71956)
(43.9003 10.6297 -1.65757)
(43.6401 7.27192 3.3513)
(40.0717 2.80267 7.19027)
(33.3 -2.12469 8.03107)
(25.2157 -6.19607 6.4069)
(18.7695 -10.4214 6.13954)
(15.987 -15.391 7.58097)
(16.1512 -19.9482 8.75999)
(17.5496 -23.2013 9.08203)
(19.6289 -25.391 8.74042)
(20.6954 -25.9836 7.97336)
(27.0724 -26.0431 6.53464)
(19.9976 -0.0149303 0.00664503)
(19.9768 -0.0529633 0.0230972)
(19.926 -0.105065 0.0479077)
(19.8258 -0.167684 0.0769345)
(19.6839 -0.245003 0.119737)
(19.3767 -0.354468 0.189079)
(19.0035 -0.578324 0.413241)
(17.6009 -1.1805 0.730451)
(17.2806 -2.14038 1.38986)
(12.2169 -5.77127 5.52067)
(6.88025 -16.1561 -2.97148)
(14.7355 -7.22716 -8.49543)
(18.3177 1.04989 -8.4194)
(19.7205 4.88231 -6.08749)
(22.4716 7.22612 -4.92618)
(27.6132 11.1543 -5.65415)
(34.2866 14.2515 -6.4506)
(39.8684 14.0849 -4.56024)
(42.8222 11.349 -0.118851)
(42.4513 6.83024 5.01414)
(37.8535 1.03017 7.80052)
(29.6843 -4.22479 7.04204)
(21.2925 -10.3322 7.64445)
(17.4016 -18.1959 10.2407)
(17.5566 -25.2984 11.7553)
(19.3463 -30.117 11.8037)
(21.2956 -32.6274 11.0601)
(23.4187 -33.5503 9.97238)
(24.3196 -33.6626 8.69118)
(28.6857 -32.6194 6.46127)
(19.9973 -0.0146385 0.00666872)
(19.9728 -0.0517679 0.0218594)
(19.9175 -0.0998085 0.0470674)
(19.8167 -0.156996 0.0779046)
(19.6622 -0.229174 0.122716)
(19.3272 -0.33359 0.182873)
(18.8407 -0.440395 0.438855)
(17.2251 -0.894818 0.630623)
(16.7039 -0.655434 1.90543)
(10.3351 -3.95518 4.14534)
(-6.82356 -21.1998 -2.57681)
(4.14395 -11.3533 -17.0329)
(12.1406 5.17748 -11.3375)
(16.1843 7.51028 -7.61622)
(20.6869 9.35092 -6.50913)
(26.3055 12.6968 -6.30627)
(32.7463 15.4519 -6.10372)
(38.0469 14.928 -3.57026)
(41.0078 11.492 1.37565)
(39.9249 5.58107 5.98276)
(33.9751 -0.457582 6.83755)
(24.5889 -7.85213 8.60815)
(19.2795 -19.2054 12.6408)
(19.1786 -29.6918 14.2494)
(21.0252 -36.3053 13.5359)
(23.1623 -39.393 12.05)
(25.01 -40.2064 10.4748)
(26.9008 -39.6265 8.97679)
(27.956 -38.6007 7.31193)
(30.3073 -35.527 4.59113)
(19.9971 -0.0138815 0.00671179)
(19.9712 -0.0479936 0.0216707)
(19.9123 -0.0872032 0.0433624)
(19.8042 -0.133748 0.0733444)
(19.6385 -0.210204 0.122312)
(19.316 -0.306098 0.182917)
(18.8056 -0.258328 0.429398)
(17.3542 -0.520919 0.566043)
(16.5217 0.828371 1.55273)
(14.9222 0.639617 1.04345)
(-0.144763 -10.6672 -1.00482)
(5.50197 -9.03167 -3.90696)
(-0.875127 9.28674 -11.9559)
(11.885 11.6743 -7.58894)
(18.8797 11.2172 -7.58951)
(24.9596 13.8221 -6.92711)
(31.1041 16.1369 -5.92719)
(36.0296 15.3408 -2.65522)
(38.4857 10.9101 2.44108)
(36.6269 4.57799 5.36492)
(28.8104 -2.51611 8.34137)
(21.966 -16.8273 14.3515)
(20.9791 -31.4343 16.1069)
(22.5795 -40.2017 14.1831)
(24.6546 -43.9834 11.5538)
(26.6777 -44.9272 9.3234)
(28.4089 -44.3033 7.51262)
(30.0844 -42.6641 6.03218)
(31.1265 -40.5606 4.32364)
(32.2497 -35.8291 1.74699)
(19.9972 -0.0127821 0.00644947)
(19.9718 -0.0435725 0.022002)
(19.9132 -0.0766053 0.0415819)
(19.7949 -0.111436 0.0670448)
(19.6228 -0.164346 0.114769)
(19.3384 -0.230306 0.192122)
(18.8438 -0.171897 0.381396)
(18.0491 -0.00744644 0.513276)
(16.4001 0.840097 1.22776)
(17.0761 3.49702 0.145924)
(17.4619 -2.6048 2.70786)
(-29.8939 -44.9405 -28.5065)
(-1.04446 5.7582 15.9531)
(20.4813 8.44399 -0.919221)
(16.7901 13.0685 -7.38747)
(23.6695 14.5242 -7.29986)
(29.6438 16.4478 -5.78282)
(34.08 15.1095 -1.86759)
(36.0072 10.1195 2.3049)
(32.8697 4.68155 6.13375)
(25.6748 -10.0593 14.741)
(23.0783 -29.2742 17.4111)
(23.9767 -40.9773 14.2071)
(25.8255 -45.8742 10.2048)
(27.8705 -47.2635 7.14637)
(29.8198 -46.8729 5.0254)
(31.4641 -45.3896 3.46006)
(32.9784 -43.1297 2.29117)
(33.9065 -40.3801 0.830237)
(34.757 -35.0259 -1.16543)
(19.9972 -0.0112795 0.00612697)
(19.9725 -0.0390462 0.0201483)
(19.915 -0.0666457 0.0410691)
(19.7995 -0.0973898 0.0648426)
(19.6236 -0.109522 0.108907)
(19.3821 -0.136361 0.195835)
(18.9575 -0.0810102 0.316448)
(18.2758 0.138811 0.50976)
(17.2634 0.67824 0.944833)
(16.2986 2.8002 1.86529)
(13.0727 -4.47996 9.89725)
(-4.26647 -9.15442 -14.9614)
(14.2132 15.3215 -4.93616)
(22.3506 15.7647 -6.55616)
(28.4662 16.5737 -5.07155)
(32.6469 14.5108 -1.50271)
(34.3208 11.2723 2.77384)
(29.9643 0.762299 13.0575)
(25.6541 -22.3719 18.1089)
(25.4739 -38.1504 14.146)
(26.829 -44.9893 8.74978)
(28.7298 -47.3595 4.79925)
(30.7414 -47.6418 2.26407)
(32.6109 -46.7371 0.671639)
(34.2076 -44.9291 -0.433618)
(35.7095 -42.4072 -1.18083)
(36.7109 -39.4825 -2.26863)
(38.0121 -34.0624 -3.63341)
(19.9972 -0.00980255 0.00580174)
(19.9738 -0.0344783 0.0182237)
(19.9158 -0.0562318 0.0388928)
(19.8123 -0.0799707 0.0597912)
(19.6488 -0.0706596 0.102535)
(19.416 -0.0648232 0.186257)
(19.0483 0.00428036 0.263353)
(18.5071 0.166026 0.489153)
(18.1605 0.531012 0.826761)
(16.336 2.37459 1.76495)
(17.401 2.73178 2.89699)
(-6.94615 5.91488 -15.2979)
(-22.5809 -0.27733 -1.10584)
(1.13885 -7.73973 7.35578)
(10.1594 16.5011 -0.471644)
(20.0785 17.151 -3.81035)
(26.9915 17.0847 -3.55302)
(31.917 16.5494 -0.427164)
(32.8703 12.3696 8.93562)
(28.5873 -10.801 17.7212)
(27.2839 -31.3284 14.215)
(28.0482 -41.013 7.65688)
(29.4936 -45.1698 2.80231)
(31.3502 -46.7164 -0.180241)
(33.2935 -46.8638 -1.93758)
(35.1628 -45.9579 -2.94048)
(36.8607 -44.1164 -3.58369)
(38.5516 -41.4756 -3.9398)
(39.7803 -38.2896 -4.68966)
(41.6699 -32.469 -5.62873)
(19.9973 -0.00860558 0.00540536)
(19.9755 -0.0292944 0.0174725)
(19.9194 -0.0491117 0.0340258)
(19.8282 -0.0594935 0.0517516)
(19.6814 -0.0551049 0.0940833)
(19.4652 -0.0277955 0.171082)
(19.1079 0.101055 0.238011)
(18.7814 0.296627 0.390799)
(18.3794 0.279866 0.725449)
(17.8248 1.971 1.1751)
(16.2238 1.21471 2.78494)
(19.7504 26.5272 -7.60682)
(16.9526 0.58413 -17.8049)
(-2.87929 -4.85895 -3.2819)
(7.08477 15.2931 1.45373)
(17.0609 18.072 -0.656241)
(24.9707 19.2243 -0.928819)
(30.6248 18.4907 5.03372)
(30.5565 1.95015 15.3727)
(29.3601 -20.9041 14.0996)
(29.6658 -33.7974 7.01905)
(30.5136 -40.2529 1.33538)
(31.8416 -43.8742 -2.10642)
(33.6232 -45.53 -4.05264)
(35.6116 -45.5879 -5.13348)
(37.6031 -44.4287 -5.68695)
(39.4846 -42.3401 -6.00137)
(41.4063 -39.4948 -6.08048)
(42.8736 -36.1241 -6.607)
(45.3573 -30.1533 -7.34199)
(19.9976 -0.00741811 0.0051163)
(19.9764 -0.0249357 0.0163304)
(19.9249 -0.0420708 0.0279496)
(19.8425 -0.043376 0.0455136)
(19.7133 -0.0500661 0.0823092)
(19.529 -0.0175825 0.155675)
(19.2182 0.192382 0.21145)
(18.9422 0.353509 0.31332)
(18.4959 0.422539 0.559028)
(19.0273 1.19839 0.753792)
(15.1331 1.08536 3.44712)
(22.9116 10.4548 2.14372)
(26.5324 6.04355 -3.94114)
(12.0935 2.92157 -6.01666)
(8.25605 10.3504 -1.29983)
(15.3631 16.6075 0.0517374)
(24.5641 18.6187 2.46764)
(30.3218 10.3691 10.1381)
(31.0259 -9.37602 12.5232)
(31.5203 -23.7341 6.60227)
(31.8857 -32.4542 0.309077)
(32.4452 -38.3966 -3.5707)
(33.742 -41.7579 -5.69155)
(35.5708 -43.0901 -6.89923)
(37.6599 -42.9069 -7.57474)
(39.8191 -41.5772 -7.88041)
(41.9036 -39.3732 -7.99058)
(44.0536 -36.463 -7.87902)
(45.7525 -33.0752 -8.25509)
(48.793 -27.2056 -8.86082)
(19.9977 -0.0063021 0.00491219)
(19.9774 -0.0213774 0.0147317)
(19.9298 -0.0334411 0.0242705)
(19.8533 -0.0371783 0.0414328)
(19.7415 -0.0444404 0.0656248)
(19.5929 -0.00967349 0.12641)
(19.3636 0.187391 0.200032)
(19.104 0.381716 0.304669)
(18.7829 0.347054 0.41152)
(19.1277 1.41978 0.727853)
(17.2385 0.782805 0.930197)
(18.7642 4.61074 3.97209)
(24.8609 5.28562 2.53299)
(23.4481 4.0786 -2.22697)
(17.669 6.1697 -3.65549)
(19.6448 10.7367 -1.7501)
(27.2811 10.4846 3.08027)
(31.3686 -0.551105 7.91576)
(32.6215 -12.9353 5.65881)
(32.9942 -22.367 -0.206379)
(33.0461 -29.8153 -4.51962)
(33.7274 -35.0886 -6.88004)
(35.1299 -38.1855 -8.26724)