/*--------------------------------*- C++ -*----------------------------------*\
| =========                 |                                                 |
| \\      /  F ield         | OpenFOAM: The Open Source CFD Toolbox           |
|  \\    /   O peration     | Version:  2512                                  |
|   \\  /    A nd           | Website:  www.openfoam.com                      |
|    \\/     M anipulation  |                                                 |
\*---------------------------------------------------------------------------*/
FoamFile
{
    version     2.0;
    format      ascii;
    arch        "LSB;label=32;scalar=64";
    class       volScalarField;
    location    "20";
    object      k;
}
// * * * * * * * * * * * * * * * * * * * * * * * * * * * * * * * * * * * * * //

dimensions      [0 2 -2 0 0 0 0];

internalField   nonuniform List<scalar> 
84826
(
189.58
133.422
102.541
80.0936
66.5382
56.1911
18.6767
6.54458
5.31816
4.35622
3.73625
3.35003
3.05959
2.81192
2.67747
2.63977
2.6057
2.56761
2.55413
2.52972
2.39874
1.96021
1.6724
1.45238
1.2593
1.09443
0.958089
0.846989
0.758754
0.688181
61.4216
67.2504
56.6943
33.8732
21.0357
20.5343
11.1018
8.91276
7.11851
5.64802
4.60171
3.98442
3.56607
3.14399
2.86943
2.90538
2.98359
3.0582
3.13084
3.10096
2.70959
2.16002
1.88662
1.66815
1.46307
1.27327
1.10508
0.962188
0.846585
0.754225
75.2218
81.0089
57.6022
35.7533
24.6729
18.576
14.8938
12.3027
9.91257
7.56586
5.70274
4.67972
4.13094
3.58407
2.92082
3.01573
3.0883
3.19902
3.32266
3.24191
2.93825
2.49145
2.22475
1.99639
1.76443
1.5377
1.3276
1.14245
0.988223
0.86268
88.0103
95.6126
77.3979
50.9781
33.484
23.8267
18.947
16.6707
14.3873
10.7574
7.37498
5.57218
4.77158
4.16236
3.15383
3.2866
3.20909
3.24893
3.36718
3.33581
3.21681
2.90112
2.63384
2.3867
2.12485
1.86176
1.61127
1.38363
1.18694
1.0196
101.5
114.138
100.506
69.5452
44.4009
29.3991
21.3966
18.5456
17.6735
14.0225
9.22309
6.58813
5.52627
4.95488
3.83628
3.85386
3.4996
3.39808
3.45603
3.61634
3.67251
3.38031
3.08056
2.8036
2.51302
2.219
1.93508
1.67164
1.43706
1.2299
113.395
130.109
121.169
89.7212
57.2174
36.4021
23.4453
17.1172
15.3952
13.064
9.94594
7.2421
6.22688
6.03604
4.94864
4.51147
3.89386
3.66364
3.79835
4.16049
4.22895
3.88088
3.51442
3.19335
2.88082
2.56633
2.25899
1.96877
1.70431
1.46478
118.786
135.27
131.948
108.832
74.205
47.493
27.9473
16.0024
12.1551
10.6515
9.25728
7.51106
6.9043
7.43645
6.2887
4.99837
4.20116
4.03295
4.41509
4.85442
4.74979
4.31738
3.87079
3.48505
3.15077
2.83018
2.51296
2.20612
1.91942
1.65459
111.999
122.123
121.522
110.809
88.2918
63.7811
39.8176
16.9914
10.8216
8.92637
6.52833
5.7608
8.11168
9.38416
7.50162
5.15852
4.35466
4.5879
5.15459
5.39349
5.06735
4.55601
4.05042
3.60952
3.23447
2.90311
2.58922
2.2804
1.98345
1.70053
86.9889
93.5425
92.2343
91.1972
82.3804
69.1554
54.8844
39.8942
32.9257
47.2267
7.25089
7.45981
12.7372
13.8126
8.18875
4.94866
4.48033
4.91326
5.19177
5.08705
4.70541
4.23269
3.76236
3.34162
2.97613
2.64892
2.34539
2.06132
1.78954
1.52166
66.1237
62.1195
60.7572
59.3849
57.682
58.8354
61.4901
65.5532
71.8595
78.8008
39.7418
8.96463
20.093
28.2032
8.32111
4.59162
3.73406
3.71073
3.76374
3.64232
3.37589
3.06448
2.75411
2.47627
2.22576
1.9778
1.74787
1.54238
1.36878
1.21315
50.7225
34.8417
30.6235
30.4544
30.0677
30.2926
32.7021
39.095
48.7465
58.8377
46.962
10.236
44.6312
6.79355
3.5744
2.75169
2.662
2.65137
2.51406
2.37112
2.27592
2.12017
1.96063
1.79423
1.5568
1.36033
1.22044
1.11674
1.03694
41.1861
28.0356
27.4176
27.6496
29.2089
29.5774
28.6492
28.0109
32.1025
44.3558
34.9628
11.3133
13.4639
20.1618
6.9128
3.73934
2.3816
2.06917
1.92647
1.8585
1.87471
1.96846
1.90118
1.87391
1.83852
1.56466
1.32655
1.18377
1.0826
0.996233
34.918
23.648
23.2535
23.3294
25.386
27.7299
26.961
24.1605
26.0581
32.4195
15.2047
8.5386
8.81266
10.3613
5.36636
3.1179
2.40926
1.99666
1.73433
1.58744
1.52207
1.47685
1.4897
1.62395
1.76064
1.49349
1.31562
1.19027
1.10089
1.00247
30.0025
19.9309
16.9178
16.743
17.1866
19.5918
22.0541
19.8232
18.194
19.0484
8.56113
5.32403
6.4999
6.1566
4.2476
3.06164
2.55105
2.12262
1.80136
1.57206
1.41175
1.29689
1.22928
1.20869
1.18263
1.17106
1.13716
1.06576
0.970656
0.852544
25.189
20.4348
18.1276
16.6444
13.8195
12.4554
13.3935
14.1405
13.0979
11.935
6.03341
3.77824
4.29865
4.24706
3.68204
3.01984
2.61883
2.24194
1.85819
1.59374
1.39956
1.25886
1.15907
1.08247
1.01724
0.962613
0.905463
0.844037
0.763734
0.675097
19.4451
20.395
23.2539
21.9921
17.7101
13.2532
10.3694
10.2932
10.1207
9.06201
5.18897
3.10258
3.17272
3.17065
3.00409
2.88457
2.69975
2.31773
1.95009
1.6302
1.42544
1.26419
1.14101
1.04621
0.968146
0.891429
0.811486
0.73654
0.666785
0.600588
22.348
27.8359
28.7428
26.0263
22.4866
18.3488
12.7223
8.66175
8.52503
7.86749
4.89405
2.79763
2.36318
2.3021
2.26383
2.35964
2.40126
2.19275
1.93379
1.68813
1.43098
1.25453
1.1148
1.00491
0.911718
0.825094
0.74354
0.669794
0.606482
0.550485
35.0696
36.4145
33.8388
30.0909
26.3467
22.3248
17.8225
12.754
8.46189
7.3332
4.83217
3.0721
2.15696
1.98134
2.11962
2.50753
2.57653
2.35454
2.04149
1.66551
1.42699
1.21362
1.05887
0.945476
0.849592
0.763304
0.686307
0.618905
0.562495
0.514254
27.5213
37.265
36.5044
32.5189
28.1141
23.6707
19.0783
14.1704
9.11111
6.91795
4.9944
3.83514
2.78124
2.22284
3.04109
3.70963
3.37171
2.33747
1.94061
1.6503
1.42661
1.22707
1.06957
0.942979
0.837057
0.746208
0.667629
0.60112
0.546422
0.500526
14.013
28.3968
30.5954
28.7076
25.4479
21.1309
16.3714
13.318
9.44703
6.82106
5.16739
4.25442
2.97141
2.25726
2.29012
2.54667
2.29499
1.88313
1.68919
1.58066
1.42884
1.27832
1.15053
1.02707
0.904091
0.797754
0.706958
0.629516
0.566405
0.514143
369.267
279.408
214.701
192.062
170.223
155.064
171.187
30.6015
7.81294
5.61822
5.06912
4.66734
4.20397
3.74539
3.51096
3.58806
3.48785
3.36507
3.1629
2.76376
2.35617
2.34862
2.23512
1.96095
1.74324
1.55076
1.3711
1.20551
1.06605
0.930609
257.525
125.035
115.664
133.174
94.1726
70.6082
49.6557
16.1292
9.58837
6.91197
5.27101
4.31518
3.74841
3.48396
3.60631
4.00166
4.17645
4.23178
4.24772
4.16678
4.02344
3.80349
2.66981
2.01348
1.68557
1.46893
1.29489
1.14154
1.00994
0.87621
216.302
101.81
66.6262
42.1041
33.1337
27.7135
23.5586
19.8477
16.3291
12.0394
7.94758
5.36739
3.9771
3.46317
3.60568
3.96044
4.08649
4.14401
4.22316
4.20925
4.51268
4.6271
3.13657
2.1672
1.70305
1.43815
1.25807
1.11663
1.00362
0.895573
210.218
120.986
89.0292
58.6429
40.5555
30.3808
26.7377
26.9778
26.2673
21.2302
13.9664
8.62272
5.4452
4.13445
4.03419
4.14741
3.91982
3.87223
3.94397
4.06352
4.7913
4.92895
3.43457
2.3665
1.8177
1.50486
1.30516
1.16271
1.06041
0.975108
220.945
161.29
110.382
76.7607
50.8542
33.4976
25.8572
24.8976
27.2284
26.1835
17.983
10.9509
6.99715
5.49219
5.49949
4.46571
3.99807
3.69921
3.67282
4.10993
5.18771
4.9021
3.56043
2.50426
1.91188
1.56354
1.3438
1.19487
1.09546
1.02146
236.81
207.774
131.758
107.405
68.6741
41.3418
27.1659
20.5621
20.9195
19.939
16.638
10.9495
7.31679
6.80844
6.34577
4.81903
4.20099
3.61573
3.53599
4.50446
5.82971
5.04734
3.76252
2.70626
2.05452
1.66268
1.4129
1.24551
1.13475
1.04735
246.269
235.503
160.5
150.942
93.1593
56.1753
35.5186
21.1587
16.993
16.3549
14.5288
10.0185
7.4461
8.75724
6.44719
5.04893
4.09612
3.47761
3.99783
5.60627
6.21465
5.31485
4.11038
3.1003
2.38592
1.93849
1.64996
1.46366
1.35488
1.2679
235.787
228.925
211.189
226.735
129.117
78.6871
53.976
28.985
17.62
16.7176
12.0145
6.81201
6.45167
13.661
7.07061
4.9765
3.84079
4.0101
5.50928
6.83047
6.57199
5.64731
4.64055
3.76592
3.0826
2.59453
2.27612
2.07652
1.98629
1.88649
190.086
176.625
220.207
253.581
164.47
116.278
90.7384
70.4361
47.0908
51.1372
19.7717
6.68383
5.3443
15.8227
7.18365
4.15778
4.12954
4.99767
5.84583
6.13594
5.89746
5.4438
4.87228
4.29504
3.77705
3.35377
3.03658
2.74101
2.47424
2.02672
146.621
86.1341
84.4766
84.2313
63.7276
60.2674
65.687
71.616
84.8587
112.667
192.344
7.09368
2.3115
90.2975
8.86542
3.93546
3.38889
3.53932
3.84062
4.01172
3.96627
3.77194
3.49531
3.20142
2.9102
2.62167
2.32004
1.99204
1.69217
1.36818
121.447
49.2829
36.8315
37.4536
35.4245
34.3587
39.1656
56.1861
81.805
121.234
186.517
116.4
5.14093
3.85512
3.01262
2.86998
2.94344
2.93861
2.87172
2.78749
2.57109
2.33898
2.08184
1.82438
1.6238
1.48052
1.38766
1.30808
104.657
40.5328
36.5221
40.308
42.7019
39.4808
34.2894
32.0575
31.2595
29.169
39.4345
18.0457
2.36375
44.2443
4.82222
3.56067
2.56108
2.16528
2.01902
2.00318
2.05675
2.16073
2.17582
2.23962
2.18566
1.92558
1.65716
1.46025
1.31997
1.18876
91.6045
35.9176
34.2058
37.5696
44.9764
43.1735
35.4773
28.1032
22.2615
20.6186
69.8459
15.8094
9.54348
5.96324
4.70532
3.33153
2.53645
2.06497
1.77312
1.59097
1.50551
1.50182
1.53774
1.72712
1.9286
1.85131
1.64069
1.50215
1.38233
1.21257
83.3846
34.5653
35.2069
35.5362
40.6059
44.3883
39.5633
32.0428
22.2129
11.8324
12.3999
8.9173
10.2994
7.88204
5.22262
3.58042
2.74572
2.24591
1.90198
1.65102
1.47093
1.33757
1.25331
1.22248
1.25538
1.28244
1.31619
1.32206
1.23043
1.06282
79.3337
39.6459
41.4073
40.6513
38.6345
40.2664
40.6971
31.0755
18.4001
9.31979
6.86437
6.94797
8.29043
8.10625
5.91186
4.0517
3.14972
2.53656
2.1037
1.78927
1.55491
1.38443
1.2648
1.1841
1.13249
1.09512
1.05523
0.992166
0.910065
0.812004
80.1106
43.9457
40.0507
45.1707
40.867
39.6873
39.7571
30.3985
12.362
8.75116
5.15682
5.60685
6.9867
6.16023
6.13545
4.88394
3.96144
2.99726
2.41868
1.99389
1.69876
1.48844
1.33451
1.21757
1.12247
1.04219
0.968602
0.892334
0.816524
0.734324
85.2141
61.2281
51.5758
46.7973
43.3348
39.0127
36.7268
36.309
19.9239
9.37477
4.5553
6.01123
6.73381
6.53131
6.28539
5.53013
4.11575
3.227
2.64525
2.19663
1.82706
1.56352
1.36891
1.21745
1.09491
0.990727
0.899695
0.817086
0.744333
0.673481
87.0194
78.9099
69.8546
57.555
47.0855
38.4811
32.4911
29.1186
26.4276
13.3042
4.93536
4.46249
5.50749
7.22798
6.07356
6.58894
4.37981
2.91425
2.41376
2.04412
1.67245
1.44079
1.26843
1.12308
1.00101
0.898434
0.811682
0.736939
0.674459
0.616685
67.6407
74.6101
66.6452
53.8739
43.7106
36.2299
30.3663
25.1761
19.833
14.5705
7.0389
4.97054
4.23233
4.33382
5.53705
7.46488
4.99155
2.61434
2.0165
1.70605
1.44718
1.23709
1.10509
0.99552
0.899267
0.814128
0.740975
0.677846
0.625945
0.577993
29.5856
48.9491
46.0031
40.1846
35.9436
31.5396
27.1738
20.8949
13.464
12.0391
9.11425
6.70306
4.58993
4.02844
9.91125
6.80962
3.69921
2.16944
1.72614
1.47684
1.26168
1.09816
1.01579
0.952334
0.885771
0.819679
0.753646
0.692489
0.640085
0.590278
588.889
374.07
287.721
267.813
250.234
212.428
205.508
196.924
53.8736
9.37784
7.89291
7.14663
6.45252
5.61106
5.32994
5.2403
5.17621
5.24481
5.48937
5.46018
4.54867
3.01203
1.87138
1.89873
1.76336
1.59388
1.41174
1.23206
1.07833
0.927166
370.744
146.213
215.443
237.84
205.476
171.762
130.337
78.0774
24.5054
12.5076
9.85268
7.60063
6.03653
5.13919
5.24254
5.09652
5.05808
5.30274
5.63127
5.80097
5.3732
4.72425
3.31628
2.18272
1.74722
1.48397
1.29459
1.13919
1.01188
0.886342
311.2
98.2166
67.554
50.789
47.0935
43.5983
41.7077
38.0745
29.9618
22.4251
17.1885
12.1353
8.11083
5.98556
6.03851
5.07182
4.52123
4.53586
4.90606
5.16778
4.85256
4.49032
4.1688
2.84314
2.03382
1.58825
1.32587
1.15579
1.04197
0.948889
303.748
113.014
63.7309
40.8235
35.0176
33.3053
36.4582
40.479
39.6697
33.7688
24.7541
18.2122
12.9642
8.90122
7.35831
5.1684
4.17925
3.89957
4.17322
4.61148
4.27159
4.36394
4.30889
3.29217
2.35071
1.77683
1.43475
1.22737
1.10351
1.02084
306.983
146.406
64.082
33.5164
29.3219
26.4145
25.9536
28.1243
31.4514
33.0949
25.9913
18.4076
14.2924
10.9887
7.7408
5.1825
4.00381
3.50778
3.67931
4.00912
3.6858
4.31534
4.39962
3.58735
2.58299
1.89526
1.46943
1.21426
1.06799
0.9843
309.933
155.872
70.136
32.162
26.9802
23.2153
20.7167
19.4501
18.9666
19.5653
21.5146
15.5434
12.8047
10.7568
7.5267
5.24411
4.00369
3.31552
3.44153
3.44455
3.59551
4.60797
4.74278
3.94111
2.86677
2.06599
1.56719
1.28286
1.14005
1.08829
309.815
152.607
66.5951
31.2563
25.6389
22.0674
20.1407
19.1401
16.0707
13.5925
18.9257
13.9941
12.3743
10.7387
7.87284
5.37713
4.04563
3.33267
3.35993
3.3624
4.4287
5.46852
5.30207
4.39625
3.35824
2.49903
1.95656
1.66369
1.55373
1.56535
293.629
140.175
51.6331
32.1428
26.2096
23.9574
24.4097
26.311
20.856
13.1364
16.579
9.93487
9.694
26.5845
7.74342
5.32911
4.06452
3.49369
3.46279
4.37477
5.7131
5.96198
5.42198
4.58091
3.72058
2.96803
2.40421
2.05649
1.90062
1.8333
248.503
107.25
39.6428
35.5265
29.7414
29.3473
34.2166
41.5936
34.0978
14.1764
15.1523
7.42017
6.34308
35.6845
4.44248
3.98544
3.50033
3.62924
4.30209
4.91552
4.97249
4.71991
4.189
3.6349
3.10321
2.59174
2.1343
1.82509
1.66905
1.57827
215.64
74.7602
38.6264
38.9287
34.387
35.4007
46.4182
63.6707
70.6994
63.4685
33.1363
15.6943
1.86377
208.992
4.17371
2.84507
2.86072
3.09894
3.3891
3.5328
3.45614
3.21452
2.90295
2.57374
2.28325
2.06288
1.91739
1.82756
1.78289
1.8164
189.61
59.3769
44.4224
46.1123
41.0093
35.6584
34.5228
40.0991
47.7471
66.5251
179.054
658.263
4.65901
2.82842
2.3794
2.30049
2.35008
2.4109
2.42044
2.3709
2.26449
2.12206
1.96692
1.81632
1.68913
1.58379
1.50369
1.43875
166.319
57.4119
50.6966
57.4432
53.6392
43.893
36.151
38.469
44.2942
29.0912
33.8274
207.816
2.68025
16.0398
4.73884
3.15973
2.44364
2.03477
1.82357
1.71365
1.64857
1.60034
1.56028
1.52299
1.47753
1.41201
1.32971
1.23629
1.14577
1.06331
147.111
57.7123
56.1244
66.8018
66.863
51.2922
37.0152
28.7621
22.5406
12.8607
21.7087
25.3426
8.99395
4.70818
4.28429
3.12954
2.43147
1.96966
1.66104
1.46558
1.34433
1.2663
1.21811
1.19257
1.18018
1.15919
1.11775
1.05169
0.973013
0.887379
133.194
60.6731
65.7618
72.5105
77.6588
59.247
43.6276
36.0441
27.5967
12.2594
13.3231
13.0579
14.9187
8.03301
4.70595
3.31195
2.50403
2.01736
1.69184
1.46152
1.29795
1.18078
1.09667
1.03643
0.99379
0.959485
0.921904
0.872319
0.815464
0.753052
126.913
71.0044
77.4674
78.864
75.3124
61.2224
47.894
44.9609
35.4146
15.5283
7.46136
9.32761
12.7828
9.75679
5.18745
3.55516
2.62699
2.09894
1.74859
1.49189
1.30172
1.16164
1.05857
0.981289
0.920562
0.869706
0.822613
0.773284
0.724061
0.673896
130.878
75.7257
71.8586
81.1882
69.8163
53.9577
45.0102
47.1647
41.8208
17.2977
6.15468
6.89562
9.483
9.6933
5.86154
3.85991
2.76635
2.20511
1.83654
1.55625
1.33914
1.17335
1.0492
0.955578
0.883399
0.824625
0.772914
0.723905
0.678303
0.633322
138.915
87.7416
79.6608
75.9268
61.1122
46.7948
36.5355
35.3211
33.7455
14.7903
6.46142
7.71744
8.27563
8.01904
5.93872
4.02161
2.83795
2.34829
2.01304
1.70552
1.44629
1.23886
1.07839
0.955954
0.862733
0.790087
0.731175
0.680674
0.637593
0.597448
132.981
97.945
80.3237
64.3962
50.326
39.4437
30.8203
24.7751
25.2297
18.2737
6.95858
5.31261
5.40943
5.88853
4.84727
3.83152
2.78725
2.47014
2.40412
2.04885
1.68027
1.38527
1.1627
0.997805
0.875107
0.782791
0.711892
0.655228
0.610121
0.570769
100.346
94.9726
78.0495
61.0215
47.3629
38.432
30.8951
23.4605
17.7181
14.1369
8.29567
5.75453
4.75618
4.45288
4.20147
3.56985
2.58804
2.13159
2.27873
2.19635
1.79267
1.44519
1.19395
1.01168
0.877344
0.776738
0.700285
0.640566
0.594713
0.555396
45.1226
69.303
58.999
45.5351
37.9456
33.4733
27.5552
20.4697
13.5293
11.4837
9.10351
6.89216
5.17001
4.54196
4.81289
4.03834
2.69518
1.83376
1.70935
1.63283
1.48196
1.24772
1.04735
0.92308
0.827475
0.751625
0.689976
0.63831
0.59598
0.556755
568.466
365.085
297.758
287.256
274.248
231.814
196.961
188.32
172.822
62.44
18.0871
13.3098
9.87643
8.034
7.00097
6.39313
6.01786
5.88429
6.12154
7.13839
7.76471
6.82308
3.34701
1.64487
1.56197
1.44155
1.28805
1.12999
0.996183
0.865659
392.11
153.572
273.473
321.533
301.166
256.241
205.009
152.471
95.6609
34.0084
19.979
15.8559
12.0146
9.27319
7.81553
6.57637
5.78554
5.47769
5.47083
6.24839
6.83051
6.45655
4.60052
2.58806
1.73469
1.50335
1.31205
1.15155
1.02531
0.91028
325.768
94.8464
81.0818
68.5254
61.3937
57.1275
60.1144
65.1676
52.6571
34.2612
28.8701
23.5509
18.3006
13.2909
9.30899
6.81186
5.38061
4.56778
4.41503
5.02831
5.59234
5.46998
4.26675
3.34219
2.31201
1.86154
1.54812
1.34675
1.22682
1.15007
314.117
103.306
62.7425
52.3012
47.8829
46.3552
50.1758
56.5523
54.9768
42.7062
31.0746
24.7465
20.0792
15.2257
9.36395
6.49496
4.84242
3.90057
3.70151
4.24292
4.86917
4.50854
3.85377
3.47875
2.86669
2.31315
1.91349
1.66289
1.52625
1.44288
315.529
131.744
56.0357
43.6909
39.3706
36.0331
34.5299
34.9415
35.9173
34.8332
29.51
21.306
16.6554
13.0263
8.55718
5.94465
4.41936
3.4869
3.28139
3.66788
3.98246
3.64586
3.54676
3.59506
3.28801
2.69141
2.17131
1.80732
1.57254
1.40301
319.927
163.208
52.3747
39.8122
34.5434
30.2645
25.9768
23.3551
21.7305
18.3269
23.1385
17.8043
13.8514
10.8605
7.82387
5.64356
4.20118
3.26906
3.08676
3.37076
3.38057
3.18514
3.48962
3.81199
3.62338
2.91498
2.22253
1.73085
1.4151
1.21947
320.626
177.056
46.2415
35.2043
30.0382
26.4313
22.8255
20.6553
17.7717
12.3113
18.5405
16.9601
13.983
10.2727
8.01725
5.72941
4.18732
3.24186
3.05289
3.29107
3.17954
3.18784
3.67494
4.00414
3.78317
3.09431
2.36536
1.88789
1.63092
1.53573
303.632
143.278
41.2581
33.8774
28.5495
25.4433
23.3915
25.0672
22.6971
13.7426
13.6003
14.6675
11.9625
7.87762
7.56972
5.64163
4.27
3.42986
3.297
3.54184
3.45284
3.56001
3.80827
3.86532
3.67605
3.26522
2.75134
2.40654
2.25469
2.27548
264.661
94.6058
41.2963
36.51
30.3575
27.4682
27.9437
37.3123
30.5796
19.2006
12.6817
12.7019
8.27074
4.32017
4.71671
4.27121
3.7216
3.46177
3.61207
3.83735
3.94075
3.86779
3.5944
3.33279
3.14909
2.99316
2.83505
2.61739
2.4244
2.39454
235.325
73.8568
48.1249
43.1327
34.7325
30.9726
34.1494
52.7708
41.7296
27.5837
34.2803
15.5219
15.8223
29.7759
3.16826
2.80322
2.70909
2.68547
2.81249
3.01491
3.15629
3.18782
3.0577
2.78647
2.52632
2.35321
2.2724
2.2405
2.21952
2.17336
209.282
70.4022
58.315
53.4757
40.4601
32.7993
32.4579
48.1613
38.7121
29.3777
73.1444
263.368
36.0498
101.518
5.30411
2.93887
2.43545
2.20481
2.09733
2.06192
2.05608
2.04723
2.02554
1.96511
1.86682
1.73764
1.62956
1.56027
1.53488
1.5505
185.855
74.7478
66.9466
66.1091
47.0029
34.0847
26.4
20.384
16.5504
18.7117
30.4896
147.768
3.56336
28.635
4.37615
3.24372
2.54723
2.09598
1.81575
1.6487
1.55147
1.48657
1.43464
1.38576
1.33684
1.28496
1.22975
1.17139
1.11558
1.06495
167.949
81.5698
78.7826
80.7499
54.1285
36.6788
27.0677
20.5995
17.259
15.3495
21.4689
11.7064
6.5556
4.22963
4.08469
3.11903
2.46614
2.01519
1.70873
1.50559
1.36681
1.26754
1.19078
1.12641
1.06866
1.01386
0.960413
0.907001
0.857506
0.811583
157.231
88.9794
94.9487
95.122
60.5308
39.4279
28.397
22.0845
19.843
16.4453
19.6483
13.2568
9.48223
6.18555
4.3022
3.1285
2.4033
1.94755
1.64206
1.42746
1.2732
1.15895
1.07074
0.998771
0.936588
0.880173
0.82665
0.774231
0.726256
0.682404
153.253
103.715
108.227
101.273
63.4217
41.6102
29.8545
23.7911
22.9361
18.0943
18.567
12.049
9.30769
6.46551
4.37751
3.10137
2.3594
1.90505
1.59786
1.37646
1.21261
1.09
0.997182
0.924097
0.863613
0.810592
0.761425
0.713975
0.670351
0.629895
154.867
108.159
105.932
90.503
61.0401
41.4044
30.1394
24.6401
25.7708
18.6583
9.85301
8.30615
7.69032
6.04505
4.27489
3.03681
2.31761
1.88863
1.58747
1.35792
1.18075
1.04366
0.939907
0.861021
0.79931
0.748586
0.704285
0.663358
0.626465
0.591973
153.493
111.803
97.2426
73.9588
52.9317
38.7997
29.5237
24.0415
24.5384
17.3711
7.80386
6.81678
6.12021
5.48754
4.2312
3.03165
2.33459
1.98166
1.71451
1.46779
1.25147
1.0776
0.944335
0.844087
0.768534
0.709963
0.662981
0.62318
0.589447
0.558978
137.649
112.063
90.7944
67.4993
49.6242
38.7796
31.0564
22.3448
18.7004
14.6245
7.89143
6.04608
5.47553
5.23198
4.58659
3.31644
2.50218
2.26125
2.10351
1.80533
1.49887
1.24874
1.0552
0.909165
0.800508
0.719131
0.657188
0.608507
0.570202
0.537763
97.2052
98.6857
81.736
61.7623
47.6864
40.8819
35.1403
23.5703
15.7508
11.8533
8.03733
6.28469
5.64548
5.6788
5.72723
4.24799
2.82421
2.45293
2.44291
2.13724
1.74427
1.42804
1.1856
1.00251
0.865421
0.762577
0.68436
0.623615
0.57682
0.538302
42.543
66.5252
53.1143
40.7749
36.1844
35.1684
29.4252
19.0002
12.2163
10.17
8.27879
6.64677
5.92289
6.45865
7.06322
5.19907
2.81652
2.05156
2.11862
2.0424
1.75728
1.45271
1.22656
1.05487
0.922381
0.818144
0.734082
0.664923
0.60896
0.561191
522.046
336.513
283.178
279.534
266.759
225.394
183.322
156.909
148.927
137.011
78.9247
33.328
16.9365
10.8131
8.6647
7.46917
6.78339
6.17848
5.63295
5.59037
6.94192
9.54043
8.20217
3.76552
1.58424
1.32565
1.16805
1.03048
0.922045
0.815607
388.178
161.285
319.409
411.528
402.827
334.698
264.587
185.385
141.336
100.079
54.4216
31.6553
18.8881
12.8462
10.6818
9.0188
7.7545
6.33515
5.33479
5.15761
5.83246
7.40584
7.25978
4.65317
2.2096
1.46294
1.25182
1.0961
0.974664
0.863676
323.11
106.24
111.755
92.095
79.7248
75.8426
84.7938
99.8582
91.5263
65.6055
42.0605
31.082
22.38
17.0762
11.5822
8.64561
6.5951
5.21039
4.4551
4.29588
4.79053
5.93655
6.07835
4.24697
2.79878
1.81911
1.55861
1.36925
1.24294
1.1626
303.144
101.33
77.1752
68.8519
62.1678
58.1114
62.619
70.3632
69.1235
53.3996
35.279
25.4407
19.9898
15.4679
10.248
7.49554
5.68227
4.44085
3.78188
3.68624
4.1767
5.07932
4.84188
3.65367
2.81115
2.24952
2.01919
1.86215
1.78929
1.79044
300.727
130.626
69.5052
64.0922
56.8075
50.3762
46.1433
43.8754
42.5154
35.6784
28.8731
21.0318
16.2351
12.191
8.86594
6.60941
5.02904
3.9032
3.32554
3.30611
3.73117
4.18283
3.82303
3.14887
2.81173
2.68922
2.61594
2.53919
2.50342
2.4728
303.103
145.258
60.8561
56.4768
48.3057
41.1581
34.4004
30.7099
28.6808
21.0295
21.5843
17.7042
13.9442
10.3832
7.89796
6.04612
4.62695
3.58069
3.06727
3.07887
3.38816
3.49782
3.14957
2.8594
2.98733
3.28685
3.37018
3.17783
2.92038
2.62758
303.454
138.591
53.4531
48.784
40.0437
34.2636
28.9795
25.087
20.0311
13.8837
17.4694
16.9162
14.8775
10.6041
8.03481
6.09476
4.5715
3.50081
2.97804
2.9562
3.17338
3.15856
2.89206
2.91262
3.41418
3.94114
3.93981
3.44896
2.87958
2.38386
290.643
112.325
49.5206
45.2418
36.0193
30.7049
25.7323
20.5885
15.2225
11.1817
14.2128
21.7322
24.892
12.8116
8.89703
6.52491
4.85038
3.71072
3.12295
3.03488
3.1992
3.2284
3.08024
3.1651
3.55647
3.89115
3.90724
3.50475
2.96082
2.49223
262.115
91.7125
49.7164
45.6218
35.5536
29.8468
25.5296
21.5925
18.1822
14.9703
13.6987
24.0312
16.2351
6.51188
7.1808
5.78479
4.63523
3.75457
3.25347
3.12301
3.27385
3.4538
3.36265
3.18823
3.07847
3.10632
3.3046
3.44913
3.43142
3.17717
236.191
83.4842
56.3182
50.1161
37.7745
30.7533
27.1529
25.3569
21.9647
18.7486
28.8283
32.6308
13.6384
5.45722
4.42825
4.02059
3.51108
3.04158
2.72509
2.60873
2.66686
2.85576
2.94308
2.85956
2.62998
2.43847
2.39233
2.48626
2.67524
2.84965
212.778
84.313
67.1708
57.8794
41.506
31.8094
27.0475
25.8259
28.3394
19.486
40.8005
23.4644
12.732
11.145
5.12385
3.70459
3.06331
2.60864
2.27167
2.06129
1.96478
1.94257
1.97298
1.99531
1.97354
1.89191
1.79193
1.70822
1.66764
1.6949
193.023
91.4414
79.7426
66.7886
45.3995
32.9131
25.9485
20.7817
18.461
24.0595
39.5865
16.0902
6.8101
5.93377
4.93494
3.61951
2.8717
2.36995
2.01994
1.78537
1.63294
1.53048
1.45828
1.40585
1.36538
1.32719
1.28577
1.23723
1.18711
1.12817
178.619
100.794
95.6654
75.4583
48.8107
34.0838
25.5897
19.8913
16.5583
16.9206
13.7568
8.64576
7.02169
5.43145
4.30135
3.34513
2.64217
2.16211
1.82946
1.59849
1.43608
1.31552
1.21936
1.13913
1.06996
1.00881
0.954367
0.904824
0.862187
0.824832
169.328
110.08
110.998
80.6143
51.2591
35.2515
25.8174
20.0186
16.8155
15.5024
11.8597
9.9227
7.48916
5.50416
4.15542
3.15341
2.4681
2.00769
1.68867
1.4629
1.29932
1.17664
1.07995
1.00069
0.932312
0.871049
0.815147
0.763392
0.718179
0.678678
165.58
120.701
111.521
79.9396
51.9491
35.7019
26.2565
20.5564
17.5191
15.756
14.648
12.0351
8.54772
5.90451
4.11126
3.0071
2.32444
1.88252
1.57731
1.35755
1.19469
1.07294
0.980315
0.906718
0.8461
0.793132
0.744447
0.698723
0.657698
0.620577
161.414
121.156
100.086
72.322
49.7706
35.5447
27.038
21.1636
17.5384
14.5776
12.2409
11.0359
8.5927
6.07466
4.11576
2.91949
2.23457
1.80505
1.50482
1.28213
1.11251
0.984524
0.888932
0.817086
0.760581
0.714128
0.673831
0.637099
0.604439
0.574625
149.283
118.925
94.4939
68.0047
48.0348
36.1214
28.9661
21.5044
16.9308
12.7193
9.11206
8.98847
8.37536
6.57021
4.41271
3.0056
2.29917
1.88461
1.57629
1.32899
1.12957
0.974574
0.858017
0.771973
0.708796
0.660383
0.621473
0.588425
0.560375
0.535316
121.713
109.955
90.5065
65.0156
46.9255
38.0613
32.4918
20.9675
14.8986
11.4049
8.00851
7.75633
8.41152
7.84261
5.35469
3.39336
2.60105
2.22621
1.90104
1.57904
1.30337
1.08924
0.92568
0.803822
0.715071
0.649976
0.600899
0.562422
0.532145
0.506687
75.4481
85.2667
70.7226
51.8207
40.9176
38.133
32.965
19.6419
13.6044
10.2432
7.85226
7.80849
9.127
9.9995
7.19679
3.8489
2.75717
2.48045
2.146
1.74524
1.42552
1.18032
0.99308
0.85155
0.745893
0.667212
0.608078
0.562352
0.527102
0.498207
28.145
46.7369
35.8705
30.0432
28.8346
30.7659
25.2947
15.7227
11.0671
9.17215
7.88326
8.47091
11.504
13.4006
8.6184
3.03321
2.31024
2.36833
2.13742
1.73782
1.4404
1.21557
1.04134
0.905108
0.798157
0.713645
0.646242
0.591659
0.547772
0.511078
471.959
305.225
253.723
248.328
235.645
201.656
163.612
132.936
115.812
106.417
94.251
82.087
42.6663
21.8899
15.0969
10.9915
8.78325
7.53763
6.08819
5.12138
4.85215
5.97097
8.7905
9.37772
5.89099
2.9561
1.88304
1.41442
1.17862
1.01797
380.175
168.263
328.442
473.187
481.653
392.052
297.531
196.388
143.605
108.685
85.5185
64.242
36.4592
26.7949
18.4771
12.956
9.2433
7.0386
5.70433
4.89491
4.60218
5.28801
7.30348
8.01449
5.81801
2.9718
1.80261
1.32687
1.09429
0.9422
324.569
132.821
171.562
145.676
120.003
113.628
121.306
123.579
110.729
85.1138
62.7805
41.5586
27.4263
20.5781
13.389
9.61193
7.29455
5.7978
4.82187
4.22109
4.05827
4.60438
6.12409
6.60164
4.90625
3.00989
1.80459
1.38391
1.17307
1.03379
295.248
100.806
90.5755
85.1387
79.4731
75.2634
79.5692
83.1787
79.8045
62.5294
41.6622
27.9348
19.8566
14.4997
10.4977
7.89937
6.14336
4.93148
4.11604
3.65805
3.62909
4.16978
5.21047
5.24878
3.99012
2.75847
1.8909
1.61013
1.48569
1.43037
286.111
123.277
91.2154
87.9824
77.2376
68.2213
59.5751
52.8541
48.0987
36.6705
28.3834
20.2987
15.1875
11.5826
8.83415
6.82714
5.38169
4.32763
3.61044
3.27012
3.32298
3.78639
4.39289
4.12411
3.2388
2.50221
2.12555
2.07207
2.13985
2.26402
286.917
127.676
80.5207
78.8838
66.8595
54.6091
44.8034
40.8716
40.3507
26.6848
21.8246
16.6222
13.0285
10.0977
7.86507
6.17284
4.9048
3.93921
3.29056
3.01325
3.08862
3.42196
3.66592
3.33535
2.74252
2.41637
2.48784
2.79889
3.11373
3.34982
287.753
116.093
70.4713
68.6546
54.6327
45.1081
39.075
37.8757
33.7763
19.3773
19.6146
15.6243
13.834
10.5714
7.95688
6.12885
4.79829
3.80862
3.16572
2.88802
2.91191
3.12267
3.21864
2.91159
2.51676
2.48187
2.91836
3.54405
4.05706
4.19505
278.377
102.087
63.9499
62.0691
47.1906
39.4732
34.8627
30.9741
17.8823
11.3044
13.9236
18.1018
27.0881
15.3143
9.81808
6.96045
5.20019
4.01181
3.2622
2.896
2.82295
2.96732
3.07839
2.81517
2.50573
2.5379
3.04886
3.74034
4.34309
4.51273
257.461
97.6891
61.2689
59.104
43.9526
36.0872
31.6379
26.4799
15.1189
12.3626
14.621
23.2945
36.512
18.6581
11.0347
7.52351
5.55794
4.27609
3.43633
2.94862
2.76724
2.81852
2.91559
2.80536
2.55502
2.4391
2.61347
3.00997
3.53509
3.9677
236.409
96.4036
63.6692
59.3448
44.0181
35.1287
31.096
29.5687
23.3792
16.2881
16.9161
16.3665
21.3645
11.3439
9.41078
6.21941
4.6948
3.7554
3.11571
2.69853
2.47286
2.41311
2.46069
2.50993
2.42885
2.2853
2.18414
2.17947
2.29074
2.50829
216.776
100.452
75.8834
62.5543
45.9314
35.0304
29.5662
28.6096
34.8084
24.7697
20.0368
13.2921
19.0869
10.7238
7.38871
5.11821
3.95031
3.21197
2.6937
2.33354
2.09469
1.95896
1.91544
1.92284
1.93356
1.90239
1.83166
1.74408
1.67731
1.62614
199.003
108.667
90.7586
66.8897
47.8263
35.1067
27.4928
22.5452
21.5306
21.4518
26.4821
13.9401
10.4202
7.86152
5.74423
4.27434
3.35575
2.74271
2.30838
1.99889
1.77733
1.61755
1.50369
1.4267
1.37699
1.33936
1.30336
1.26127
1.22294
1.17475
186.247
114.426
99.063
70.3728
49.096
35.228
26.4843
20.8136
17.3428
15.8438
15.9859
10.3829
7.83757
6.10535
4.8008
3.73579
2.96363
2.41935
2.02681
1.74418
1.53798
1.38302
1.26283
1.16596
1.08666
1.02089
0.966321
0.919183
0.879049
0.845689
176.719
121.299
101.023
71.8064
49.5153
34.9945
25.9074
20.3168
17.0289
14.602
11.1547
9.66081
7.4226
5.58722
4.32051
3.36746
2.67459
2.17984
1.81878
1.55625
1.36364
1.21957
1.10912
1.02074
0.947477
0.884373
0.828558
0.777729
0.733724
0.695078
168.336
125.497
98.3161
70.3611
48.6372
34.3892
25.7347
20.8261
18.3776
16.3467
13.7375
11.1414
7.95965
5.58323
4.07859
3.10185
2.44183
1.98446
1.65151
1.40764
1.2271
1.09186
0.989269
0.909612
0.845777
0.791841
0.743618
0.69946
0.66031
0.625084
155.417
123.133
96.787
68.9073
47.2399
33.8162
26.322
22.4766
20.5303
18.3847
15.9377
12.8206
8.82245
5.73727
3.94921
2.92019
2.27574
1.84174
1.52527
1.28993
1.11252
0.978689
0.878362
0.803106
0.745998
0.701027
0.662689
0.628198
0.59774
0.570078
132.31
115.18
93.7165
65.9691
44.7676
33.4203
27.7281
23.5373
18.2889
15.5366
15.1817
14.2528
10.2698
6.24198
4.00043
2.89914
2.26846
1.84413
1.52134
1.27145
1.07722
0.928733
0.817864
0.736358
0.676839
0.632852
0.598661
0.569616
0.54489
0.522733
95.3917
96.1391
79.5741
55.5456
38.879
32.4096
27.3437
19.2412
14.3128
12.0908
12.1357
14.8098
12.5972
7.31863
4.23239
3.04681
2.46791
2.05312
1.69361
1.39506
1.15492
0.968897
0.829417
0.727108
0.653181
0.599857
0.56105
0.530452
0.506108
0.485414
48.9615
62.5738
50.814
36.9816
29.1576
28.2485
22.573
16.0442
12.2443
10.1831
10.9036
15.0514
14.5338
8.46711
4.19492
2.97008
2.52177
2.11486
1.70852
1.38461
1.14218
0.959529
0.820723
0.715771
0.639009
0.583403
0.541959
0.510119
0.485516
0.465086
14.0296
26.4606
21.4915
18.4876
16.9606
20.0095
17.7459
13.1432
10.2825
9.57326
11.9661
15.4134
12.8206
7.16461
3.20217
2.39995
2.23317
1.94449
1.5313
1.25065
1.05379
0.907675
0.796387
0.710123
0.642749
0.589536
0.547157
0.512923
0.48543
0.462013
422.037
275.339
219.319
203.588
193.139
168.659
139.251
112.194
92.9635
80.1369
68.7486
58.5942
46.7907
42.0776
30.8855
19.4421
12.9553
9.26861
6.96418
5.58005
4.7804
4.49174
4.91715
6.03364
6.87409
6.17659
4.61599
3.31603
2.48823
1.9538
369.776
173.22
284.923
440.042
474.123
391.215
291.595
196.654
137.79
100.261
74.6215
55.6669
41.9134
33.4199
22.8083
15.2518
10.6521
7.9103
6.22182
5.17306
4.5551
4.34313
4.70133