/*--------------------------------*- C++ -*----------------------------------*\
| =========                 |                                                 |
| \\      /  F ield         | OpenFOAM: The Open Source CFD Toolbox           |
|  \\    /   O peration     | Version:  2512                                  |
|   \\  /    A nd           | Website:  www.openfoam.com                      |
|    \\/     M anipulation  |                                                 |
\*---------------------------------------------------------------------------*/
FoamFile
{
    version     2.0;
    format      ascii;
    arch        "LSB;label=32;scalar=64";
    class       volScalarField;
    location    "20";
    object      k;
}
// * * * * * * * * * * * * * * * * * * * * * * * * * * * * * * * * * * * * * //

dimensions      [0 2 -2 0 0 0 0];

internalField   nonuniform List<scalar> 
90398
(
265.956
193.113
148.747
114.786
92.0546
18.4917
10.5813
10.2163
9.7573
9.09057
8.57723
7.85413
7.08089
6.5715
6.37054
5.95334
5.45229
5.0786
4.69305
4.31412
3.97536
3.69536
3.47641
3.31696
3.21509
3.15836
3.12694
3.09679
3.06482
3.00337
191.735
175.556
141.133
88.1597
35.7833
15.9232
11.776
11.5432
10.5494
9.33137
9.19183
8.81107
7.80905
7.15676
7.11465
6.75993
6.18227
5.72339
5.30234
4.90528
4.55209
4.25077
4.00397
3.82213
3.71827
3.67941
3.67072
3.65388
3.62248
3.54932
247.133
219.225
163.923
129.721
85.3711
38.7905
17.462
14.0349
11.3162
8.40791
7.81279
8.05079
7.57416
7.54844
7.59228
7.19191
6.60084
6.13409
5.71403
5.32876
4.98481
4.68482
4.4348
4.25469
4.15834
4.12902
4.127
4.09753
4.03319
3.91476
303.191
267.252
237.776
207.958
152.453
79.5626
30.5573
18.2615
11.9161
7.39324
6.42843
6.67548
5.90569
5.8302
6.13647
6.38095
6.38116
6.24835
5.97931
5.6684
5.37254
5.09473
4.8439
4.67347
4.62314
4.67056
4.73803
4.70881
4.57377
4.34963
366.274
357.783
345.196
315.896
244.587
137.778
50.9081
22.2839
12.1356
7.22006
6.2621
5.57059
4.98304
4.90525
5.32856
5.90172
6.34168
6.41567
6.24339
6.03324
5.86985
5.72232
5.5556
5.432
5.46064
5.6711
5.89535
5.8772
5.71128
5.4845
452.773
484.432
491.33
467.455
378.865
228.81
79.2347
25.8027
12.7813
7.56607
6.94153
5.12695
4.65799
4.66884
5.24389
5.90265
6.49645
6.61585
6.50839
6.4523
6.55671
6.6297
6.54764
6.45367
6.64185
7.12785
7.60066
7.57521
7.5649
8.0788
560.446
642.225
674.491
665.977
569.546
400.203
149.43
35.5975
14.6702
8.4375
7.35646
5.12229
4.7975
4.8496
5.48103
6.04372
6.54142
6.78657
6.70764
6.93423
7.52289
7.82744
7.65838
7.44177
7.77807
8.6104
9.48827
9.56964
9.84267
11.9257
678.162
815.072
874.642
872.531
821.647
687.971
394.609
126.137
24.1622
7.25513
6.35244
4.67355
4.86554
5.1881
6.03993
5.95852
6.62214
6.8997
6.85847
7.54517
8.47863
8.74606
8.37187
8.01289
8.59852
9.95996
11.4941
11.8611
11.9659
14.0825
782.389
981.271
1083.87
1077.91
1090.33
1012.97
812.113
539.206
106.187
9.75508
6.21653
4.50733
4.80904
5.66745
6.37229
6.24055
6.80249
6.99376
7.1476
8.03933
9.00351
9.16344
8.63529
8.16489
9.13208
11.3074
13.9615
14.9374
14.8503
15.9122
838.116
1089.46
1233.87
1314.35
1405.54
1480.23
1495.13
1482.55
693.772
71.6447
13.4563
3.65379
4.29937
5.99327
8.23673
7.15315
7.30887
7.46495
7.76553
8.69977
9.47849
9.34621
8.48531
7.91347
9.21593
12.8387
17.2132
19.5725
20.4344
22.4778
817.413
1043.45
1173.07
1206.92
1269.74
1225.75
1026.91
791.911
687.847
490.566
6.65241
7.47082
8.75216
9.36581
9.01951
8.99502
9.14553
9.33609
9.61199
9.69038
9.16819
7.90823
7.08403
8.90228
14.2984
20.2427
23.9723
27.9495
33.4768
655.735
801.557
920.007
991.815
949.451
801.602
555.282
361.774
253.687
129.373
16.2873
5.91434
6.29653
6.84539
9.60403
9.85509
10.1916
10.1226
9.83316
9.38088
8.66474
7.6788
6.68814
6.11944
8.09982
13.2499
19.345
22.1949
26.2537
30.2791
447.129
521.837
562.596
574.893
532.827
439.993
323.215
222.144
122.766
87.4784
26.1762
11.6547
6.95515
7.59332
8.83134
9.6489
9.82478
9.64752
9.16237
8.4378
7.51465
6.48177
5.54417
5.20639
5.55912
7.79167
12.6906
16.0851
18.3943
18.9534
309.853
339.266
352.152
352.282
328.754
280.978
218.876
155.824
84.228
31.7429
27.6634
12.9341
9.9979
8.84108
8.9717
9.4323
9.36964
9.00453
8.35085
7.54014
6.6036
5.69065
5.03634
4.75371
4.81488
5.87183
8.56763
10.9956
12.2153
12.6216
229.775
234.736
235.283
232.731
219.595
192.553
153.652
106.202
52.5654
23.7325
22.4692
9.39218
10.5493
9.39995
9.15784
9.35047
9.02833
8.48251
7.67697
6.82887
5.95536
5.22763
4.94071
4.82019
4.68713
5.07531
6.46702
8.03391
8.86732
9.14532
181.272
171.403
161.82
154.578
145.215
126.629
94.6153
54.903
28.6781
18.9884
18.6693
8.0244
9.11173
8.83797
8.94553
8.86232
8.43218
7.84382
7.02664
6.2156
5.4466
4.9038
5.02303
4.94234
4.74641
4.82584
5.44273
6.30659
6.82778
6.93126
150.333
131.711
101.229
80.83
71.1503
52.8694
29.0163
20.0084
18.1022
15.8984
16.2399
6.9864
7.38692
7.66727
8.0715
8.09503
7.66326
7.08042
6.24875
5.44142
4.90088
4.7591
5.00708
5.0358
4.83707
4.78425
4.99197
5.35766
5.62915
5.63756
124.97
110.31
73.0447
29.1712
20.6534
15.4873
14.2204
13.4952
13.6927
13.8074
14.5604
8.97567
6.47261
6.39028
6.80182
6.94484
6.57486
5.95149
5.08872
4.49688
4.38675
4.48867
4.82419
5.31873
5.00308
4.75613
4.71276
4.79108
4.88522
4.83839
101.082
90.5317
74.2469
56.7991
42.427
26.9949
22.3419
19.618
18.274
14.4863
13.1486
11.545
9.72391
8.41529
6.92032
5.70457
5.19488
4.81416
4.27861
3.83233
3.53655
3.36573
3.44523
3.71012
4.31405
4.2804
4.1574
4.15581
4.20579
4.18095
203.541
144.987
118.168
96.5169
78.3783
63.7272
51.5216
41.2856
39.1793
32.9374
26.9221
21.9451
17.9707
14.7137
12.0471
9.87156
8.17061
6.87327
5.86084
5.07918
4.46133
3.94025
3.46544
3.07412
2.88035
2.89926
3.08299
3.23906
3.34843
3.39478
609.733
424.605
289.604
212.897
169.595
138.708
108.606
27.4376
24.317
18.2051
14.4208
12.4745
10.9287
10.0532
9.50576
8.50209
7.75904
7.19194
6.59414
6.07812
5.63047
5.27505
4.97745
4.69624
4.466
4.31453
4.23447
4.19243
4.19677
4.1773
475.023
238.492
189.506
172.4
108.457
75.0827
52.0573
29.0796
29.8068
22.788
18.2794
17.0178
15.8619
14.259
11.5939
8.82956
7.58533
6.7238
5.84338
5.20909
4.75124
4.45068
4.28524
4.23034
4.22384
4.21782
4.20517
4.23268
4.29169
4.26737
501.91
244.01
192.93
130.204
72.7556
42.0036
35.8722
37.6755
33.4776
22.7975
15.6283
12.8298
11.9754
12.3823
12.7488
11.5595
9.93503
8.15246
6.7637
5.94354
5.48361
5.20999
4.99304
4.80807
4.65298
4.5626
4.4851
4.39944
4.37451
4.41537
560.003
306.359
246.174
188.803
117.056
63.1633
50.2872
45.0474
35.9886
23.8937
14.2446
9.53377
7.73372
7.34854
7.39279
7.40197
7.16598
6.9468
6.37743
5.77647
5.32981
4.98604
4.69425
4.50636
4.47653
4.5637
4.58143
4.44494
4.34574
4.33509
671.367
438.244
405.501
375.825
251.808
119.289
62.7753
48.1679
36.9835
26.085
13.2125
7.5869
5.94773
5.27163
5.20917
5.75208
6.52121
6.88016
6.3972
5.87139
5.49022
5.2412
5.09227
5.14336
5.39773
5.66523
5.70917
5.48455
5.61015
5.91565
822.045
657.244
709.671
654.993
398.079
192.092
73.6119
47.9877
36.2668
28.7187
13.434
6.81917
5.58528
4.89117
5.01841
5.73097
7.06346
7.13413
6.85024
6.53467
6.54883
6.77422
7.04621
7.41341
7.6456
7.73508
7.70493
7.35686
8.93215
12.9168
1000.78
952.694
1126.02
822.792
590.314
447.829
143.136
52.5801
31.2729
26.0061
11.4969
6.95459
5.87337
5.07566
5.56689
6.33128
7.07201
7.64319
7.42667
7.55181
8.42156
9.19477
9.52774
9.54873
9.30063
9.19886
9.43561
9.28783
13.2508
22.881
1179.73
1283.35
1542.36
918.511
983.081
1147.96
606.611
210.47
36.5854
18.963
9.38684
5.6517
5.00742
4.57401
6.64202
6.329
7.41232
8.10488
7.84401
8.86325
9.99511
10.6114
10.7134
10.547
10.0861
10.4882
12.1192
12.1033
16.6046
26.1757
1316.7
1617
2133.67
1127.03
1621.06
2060.03
1706.38
1162.41
470.989
12.3808
5.01174
4.24668
3.96453
4.40698
7.22772
6.97265
7.75224
8.02614
8.59315
10.107
11.1649
11.6528
11.8173
11.5202
10.8373
12.529
16.9568
17.896
20.1227
28.3002
1364.42
1640.83
2200.86
1628.47
2019.02
2653.62
2481.18
2135.76
1733.86
17.9465
3.0893
1.67867
1.065
3.27858
9.25601
7.48787
7.56312
8.04559
9.35352
11.0785
11.8326
12.1422
12.1288
11.5446
11.3073
15.6948
24.0803
29.9375
30.4063
36.4386
1516.5
1800.34
1983.47
1464.07
2322.55
2825.9
2053.01
1175.69
737.547
64.1704
71.4253
11.6485
9.14496
8.52307
9.22829
10.1269
11.1733
11.6519
11.7611
11.3817
10.6923
11.2766
19.4214
28.1925
35.5586
40.4576
53.8331
1587.9
1955.5
2474.79
2183.97
2387.82
2108.61
937.082
297.076
85.5511
42.0283
117.126
20.9012
2.13323
16.5222
10.2937
11.0665
13.5104
14.3797
14.4127
12.6998
10.9854
10.0925
9.47075
9.03351
9.83215
16.8132
25.7894
31.0738
35.0733
42.3571
1063.44
932.568
1130.83
1016.14
803.883
494.312
285.872
157.668
64.9838
42.8648
50.0379
40.3005
8.80119
10.878
9.24663
10.7396
11.5926
11.653
10.8027
9.32118
8.02924
7.04247
6.3928
6.10589
6.75267
9.82579
17.068
22.3489
22.9853
20.1896
753.377
443.874
426.735
388.292
342.018
256.237
164.476
86.6694
38.1702
32.7817
40.7613
39.5104
15.3034
11.4075
10.5113
10.6968
10.5109
9.95118
8.79478
7.81435
7.11332
6.63594
6.21214
5.69199
5.39363
6.60994
10.0897
12.4365
11.8348
10.9644
590.009
273.004
249.801
215.914
186.862
146.89
95.41
53.5711
27.6993
24.4911
29.2446
35.0452
17.9885
14.7072
12.1784
11.8061
11.272
10.4799
8.68861
7.65134
7.27829
7.19573
6.86069
6.35882
5.73346
5.8475
7.21627
8.31256
8.43879
8.56657
499.459
180.251
147.914
120.821
104.741
81.5092
52.1935
29.8173
18.7259
18.3698
21.8265
21.716
16.1648
15.8324
14.2195
12.9174
11.5904
10.3957
8.83185
7.76231
8.24081
8.16316
7.3357
6.44659
5.87603
5.82756
6.347
6.94802
7.32384
7.52413
463.367
130.04
90.7829
72.594
51.2587
33.868
21.6496
15.9068
13.2832
13.9338
15.901
12.4331
13.4399
13.2922
13.4078
11.372
9.28683
7.97514
7.18244
6.54336
6.51461
7.42043
7.42162
6.58311
6.11074
6.00716
6.23914
6.64027
6.88607
6.84501
458.609
133.93
85.499
120.073
159.546
98.449
45.3888
16.1405
11.6514
11.4486
12.2024
10.61
14.5531
13.0272
14.3167
14.5474
12.6796
10.0634
8.12473
7.56612
8.9454
11.2972
10.1723
8.39139
7.16391
6.53875
6.31188
6.31935
6.3392
6.23849
473.595
184.886
107.49
95.9764
113.481
151.743
204.061
129.288
47.3394
19.8281
13.4535
10.7041
17.584
20.2624
20.4286
19.3867
19.2411
17.494
14.4703
12.0636
11.038
10.0933
9.33033
8.73914
7.75549
7.02874
6.58483
6.31371
6.21259
6.0403
632.581
463.721
331.935
230.87
170.938
139.904
125.98
130.612
112.768
64.3252
39.7439
28.9334
22.9597
18.9764
15.7527
13.2739
11.5396
10.1896
8.98091
7.8614
6.92352
6.24452
5.70642
5.37747
5.40179
5.79996
6.21598
6.42833
6.50744
6.31193
793.561
515.026
342.755
253.789
203.772
170.358
177.564
67.9804
43.023
39.0224
29.8733
24.7761
19.3204
13.0586
10.8784
10.3289
9.69447
8.73552
7.9007
7.335
6.78123
6.17147
5.57652
5.09497
4.78963
4.65103
4.62475
4.73443
4.99943
5.14556
602.974
262.24
252.544
291.381
199.845
136.983
112.198
49.2289
49.0946
36.5604
25.8826
23.7907
22.3405
22.1394
21.3883
16.6608
12.446
10.4208
7.69172
6.40759
5.93585
5.62763
5.39292
5.26308
5.21863
5.23165
5.36033
5.58389
5.92445
6.16547
625.907
238.885
213.054
140.029
95.1138
80.8252
73.0785
56.9555
54.9523
32.0211
21.302
16.2667
13.5737
13.7384
14.2021
13.1432
11.3014
9.62976
7.55099
6.89419
6.56949
6.16947
5.77805
5.48505
5.30184
5.21078
5.17981
5.2577
5.54331
5.6376
698.757
271.956
190.316
137.383
101.581
84.129
74.3743
67.9642
49.2374
28.6397
18.8763
12.4421
9.0448
7.61458
7.56005
7.29052
6.57301
5.99736
6.06099
6.20924
6.08662
5.71431
5.24479
4.86905
4.637
4.55602
4.64488
5.05315
6.09667
6.60021
827.103
380.77
299.586
224.158
125.606
90.1098
75.605
63.0952
40.7813
27.0532
16.5072
9.86718
7.21214
5.56209
4.72893
4.68608
4.79339
5.42013
6.33641
6.49746
6.29977
5.87788
5.39922
5.08583
4.99136
5.14282
5.59101
6.59937
9.44774
12.1073
985.265
556.412
432.536
191.379
101.892
77.1186
64.5122
54.0492
34.6786
23.7034
13.2739
8.3421
6.58174
5.1206
4.49561
4.73892
5.3948
6.91335
7.94498
8.07775
7.69437
7.16711
6.76385
6.57819
6.55735
6.82093
7.53313
8.71985
14.574
25.8295
1155.96
772.741
396.384
133.34
88.6587
68.6669
55.4531
45.9373
28.8767
19.3406
11.0324
7.58215
6.42766
5.13261
4.97077
5.49132
6.42386
9.11023
10.18
9.94833
9.46952
9.1738
8.85408
8.56822
8.28717
8.7085
9.98379
10.8623
21.1202
37.5176
1316.6
1048.62
369.753
122.503
85.4381
77.2812
61.8136
42.3467
24.6369
15.2524
7.8794
5.63858
5.10854
4.06047
6.04863
6.28115
8.53231
11.3314
11.6043
11.4456
11.2542
10.8852
10.3393
9.80432
9.1812
10.8391
14.9865
15.0079
24.0282
35.3977
1414.15
1363.78
490.01
141.656
94.5801
98.7697
92.8171
58.8736
23.6495
12.4738
5.15269
3.87712
3.59725
3.35253
7.71198
7.78065
10.4633
11.3799
12.7262
13.5828
12.9322
11.9883
11.2492
10.5766
10.0205
14.2652
23.7861
26.1574
28.4504
36.4003
1379.42
1236.32
506.82
203.281
96.9706
92.9198
78.2716
59.1736
38.9157
11.2184
5.47057
1.55315
0.888057
3.2726
8.18928
8.20739
9.35087
10.6322
13.0683
13.6167
12.4756
11.5936
11.0417
10.5097
10.6533
19.05
33.8905
42.8682
43.3958
48.9425
1462.43
1035.12
188.463
64.9932
52.7819
58.6103
50.9622
40.842
32.2541
18.6598
89.0249
430.266
10.8793
9.10647
9.05698
9.89479
11.1786
10.5469
9.48691
9.26639
9.41411
9.4043
10.5156
23.7633
32.0629
38.0251
44.8999
57.3021
1465.74
929.722
171.205
67.8871
52.8255
42.9841
33.7139
31.6713
30.2123
30.0417
72.2917
216.421
1.50388
147.273
8.3475
8.95841
8.49064
8.63544
8.4618
7.67063
7.14831
7.19359
7.50322
7.84929
8.72471
18.5181
31.2566
33.5767
35.9483
39.6899
1119.93
576.1
221.168
99.794
73.1832
56.5818
39.7968
27.0243
22.8676
35.1414
62.9807
19.0467
9.13008
14.1061
8.36926
7.97293
7.32202
6.60716
5.73367
4.99276
4.5786
4.51072
4.70486
5.15626
6.08168
9.93644
20.1843
26.8917
25.1188
23.6831
894.065
338.073
213.099
117.44
94.9145
75.2421
50.7828
32.5822
25.9144
36.8233
52.1196
26.4576
22.2456
13.6478
10.6129
8.89718
7.63524
6.62944
5.70402
5.01614
4.60416
4.38377
4.30655
4.38878
4.66632
6.0893
10.5696
12.5163
12.2843
12.572
735.714
210.927
130.762
93.0778
83.0122
64.3033
41.3351
30.2995
29.5864
33.9591
38.8995
28.1097
24.4469
16.0748
13.2579
11.0144
9.98781
8.66155
7.35837
6.49628
5.90372
5.36731
4.93576
4.67925
4.6157
5.04002
6.73108
7.71442
8.30923
9.08961
622.401
144.272
80.8717
58.8632
47.5716
35.9584
24.4728
19.5401
23.1039
27.4815
29.4164
24.4239
19.2545
18.5953
17.9027
14.9196
14.9557
14.5516
12.261
10.9016
9.16338
7.34761
6.11131
5.47304
5.28889
5.47183
6.18018
6.94948
7.47963
8.15955
564.649
114.554
78.9847
70.8319
41.4936
21.3216
13.0826
12.7547
15.8423
19.8485
21.3973
15.6452
16.4303
18.9669
19.2302
18.4954
17.1064
15.2801
12.5558
10.8852
11.2644
9.05023
6.97814
6.06647
5.89659
6.07702
6.45243
6.86777
7.24529
7.82107
533.768
141.992
108.635
189.651
183.26
107.586
57.254
20.7757
13.1118
14.6608
15.1118
11.6226
14.6907
16.2052
18.3911
18.7294
18.9489
17.9168
14.5664
11.3543
9.89279
8.55438
6.71628
5.88068
5.75288
5.96864
6.25047
6.54581
6.86415
7.24529
506.584
206.484
124.805
127.921
171.072
240.574
238.102
160.579
55.7914
22.5345
14.6859
11.4579
18.7073
21.7759
20.7872
17.7246
16.0987
14.7248
13.1084
11.3678
9.83626
8.28074
6.89577
5.93384
5.68241
5.85579
6.14128
6.50068
6.84217
7.1266
594.195
442.772
317.647
226.304
170.737
138.103
117.557
117.517
104.249
65.5434
41.3042
30.0968
23.7066
19.4822
15.8618
12.9322
10.7794
9.16859
7.89021
6.87654
6.13202
5.57147
5.05779
4.69883
4.77957
5.24975
5.85206
6.47624
6.98147
7.23395
748.282
491.04
331.562
244.513
196.137
163.071
182.76
118.783
46.9402
47.9896
37.3937
35.5027
33.7435
32.187
24.0231
11.0313
9.07145
8.45417
7.76162
7.26064
6.73996
6.1732
5.64144
5.2546
5.08242
5.11616
5.30442
5.66665
6.28168
6.71455
616.076
261.836
256.416
318.646
247.311
196.799
165.425
79.2497
54.307
44.3543
30.4116
27.138
24.0034
23.9993
24.3407
23.1428
18.3424
13.667
10.0101
7.45066
6.52675
6.01777
5.81151
5.91147
5.98156
6.02757
6.09482
6.1935
6.40078
6.48368
644.772
214.917
213.228
165.324
133.757
124.527
103.411
74.095
64.7765
37.3332
26.2177
19.7268
15.2254
13.8905
14.077
14.3363
12.4774
11.3044
8.84268
7.55847
7.05796
6.70018
6.35005
6.02578
5.74803
5.55102
5.49493
5.62347
6.03487
6.1614
696.05
226.451
163.41
128.632
108.553
97.5372
87.1541
79.296
53.7179
31.5255
22.3457
15.3963
11.128
8.44727
7.43357
7.2858
6.71098
6.20846
5.683
5.71049
5.6889
5.46082
5.06222
4.65536
4.39922
4.43195
4.77645
5.48501
6.78276
7.19338
800.592
305.163
197.938
121.396
96.0898
85.3706
77.8585
63.2034
39.7459
27.1506
18.0115
12.137
9.03922
6.63339
5.14273
4.53433
4.63228
4.80139
5.58048
5.9227
5.74111
5.36411
4.96522
4.6837
4.65392
5.04102
5.81757
7.00619
10.091
12.1421
932.731
418.899
199.941
107.382
89.1301
77.2156
63.0845
45.3405
30.7314
22.3151
14.4842
10.1117
7.9593
5.9137
4.64393
4.50537
4.88907
5.66223
7.33216
7.68334
7.31225
6.74317
6.2217
5.88838
5.88325
6.60851
7.85148
9.42689
16.3537
25.4282
1079.1
560.55
180.592
102.015
89.6234
69.4144
50.295
34.1986
24.5803
18.4432
11.937
8.68457
7.11322
5.46792
4.82152
5.15932
5.36643
7.7817
9.61655
9.49975
9.01189
8.43234
7.83728
7.36895
7.37039
9.2022
12.3575
13.5504
24.3858
20.6752
1220.05
792.579
195.906
112.034
84.4588
57.5001
39.7441
28.6749
21.7782
15.3742
9.26188
6.8836
5.91253
4.6572
5.75925
6.22506
7.43119
10.8371
10.3995
10.4754
10.2084
9.63625
8.91925
8.29305
8.5057
13.3402
21.9736
21.5629
26.8363
26.9028
1298.68
1139.28
366.291
140.113
75.8201
47.1714
32.8624
25.3828
19.8018
14.5954
7.46983
5.84663
5.52061
4.53043
7.46164
9.23617
9.85587
10.9155
10.3142
10.5803
10.2894
9.55952
8.78444
8.31106
9.42918
19.4361
35.0406
36.5375
32.74
32.7032
1225.65
920.079
453.743
164.682
66.656
37.2351
28.0983
24.2853
19.2752
14.9976
9.45047
6.23877
4.51683
5.35881
8.18787
9.35558
9.96389
9.64674
9.28726
8.89222
8.35078
7.86149
7.51393
7.61116
10.3295
26.46
41.7969
45.4789
45.8382
47.0942
1236.68
531.608
129.063
56.1067
33.7252
24.612
22.0723
20.939
20.6832
18.7427
14.3094
8.28749
5.51695
16.8436
8.19469
9.38312
9.24911
8.17828
7.50674
6.8319
6.34693
6.20468
6.28454
6.66837
10.2914
28.2249
29.7338
29.0236
33.4526
37.9476
1193.07
391.282
50.9838
35.3591
29.2726
23.795
19.7366
19.3436
22.3238
25.9731
21.0977
7.50378
3.8416
3.321
6.67794
7.08123
6.58567
5.80458
5.21075
4.7814
4.67843
4.90818
5.30656
5.81302
7.47473
22.6402
35.2531
31.5281
32.7621
34.4281
959.768
286.585
47.1558
37.8755
35.4093
29.6473
23.3236
19.8519
21.2457
30.2209
49.5181
14.2738
9.55583
7.23455
8.06356
6.91414
5.64533
4.7125
4.08094
3.68523
3.5268
3.62095
3.94446
4.46912
5.45083
11.4125
25.1501
31.3037
29.9104
29.4164
804.141
199.088
52.9088
44.6411
44.0805
38.1695
30.8521
25.2893
23.3015
32.5833
77.0498
19.416
19.1377
12.0363
9.30394
7.35156
5.81376
4.7744
4.0699
3.60851
3.38751
3.38547
3.568
3.91277
4.46046
6.53672
12.6809
14.5202
15.1657
16.9427
683.353
139.175
57.5329
46.1416
43.4091
38.063
34.3129
31.4125
29.9486
39.4707
64.6026
17.3728
20.0101
12.732
10.2133
8.60351
7.22721
6.09746
5.23186
4.55175
4.06259
3.80497
3.77182
3.92729
4.20434
4.93913
7.05943
7.71244
8.44301
9.41155
594.458
105.69
57.4503
48.9523
36.4015
27.9952
26.2872
29.3447
32.8409
39.6628
42.5311
16.0846
16.4543
13.216
12.3043
11.2579
10.1445
8.91643
7.88631
6.82357
5.69868
4.84712
4.42633
4.39455
4.64813
5.13472
6.06417
6.84496
7.61309
8.15065
550.377
103.641
83.7363
92.5227
65.1258
38.9272
24.7297
17.8771
17.9254
20.6677
19.282
15.2781
17.3121
15.4015
14.6525
14.1338
13.5678
12.8248
12.0939
10.5458
8.25051
6.26666
5.23829
5.01363
5.39469
6.04457
6.77802
7.46142
8.08671
8.49822
506.892
153.266
116.05
197.711
193.822
130.439
82.3229
45.9669
19.2485
13.1588
12.3685
12.991
17.684
19.0781
16.8631
14.535
13.7113
12.5569
11.2854
9.58447
7.95858
6.36421
5.35281
5.08996
5.34058
5.87692
6.45083
6.98389
7.46717
7.82126
462.335
208
129.787
124.565
168.889
218.763
218.857
167.163
85.4348
34.4391
18.3298
14.6493
19.742
18.6871
16.1511
13.5851
11.6603
10.2033
9.01291
7.98653
7.0064
5.993
5.18296
4.90113
5.12456
5.65267
6.20294
6.69118
7.11089
7.36772
499.53
375.831
274.503
199.859
151.586
119.953
99.2211
92.7059
88.8122
66.9543
45.8973
32.0914
23.9235
18.6544
14.819
11.9262
9.77215
8.16391
6.9487
6.01945
5.31606
4.76792
4.35185
4.23381
4.5632
5.20718
5.90382
6.50746
6.97566
7.23095
656.442
436.422
299.24
218.749
173.754
144.633
152.848
152.608
76.1272
45.5418
33.061
32.6813
28.4673
26.8945
28.8363
25.3432
12.3453
8.37393
7.14872
6.75932
6.35992
5.96059
5.65275
5.5032
5.55151
5.74697
5.99298
6.27849
6.73906
7.24708
581.118
259.464
231.601
284.155
257.155
213.762
191.26
131.081
74.308
42.2377
31.1142
26.9367
22.2741
19.4735
19.5594
22.5144
19.6751
19.0407
14.9616
11.8518
9.24516
8.26501
7.71898
7.17615
6.78399
6.532
6.42686
6.46051
6.67132
6.97444
619.65
219.014
207.579
186.071
169.046
159.642
143.599
109.773
69.2078
36.596
27.3687
21.5569
16.5543
13.0746
11.3616
12.0226
11.2856
10.5325
9.38057
8.57652
7.8713
7.13867
6.51424
5.95913
5.48811
5.24429
5.30997
5.65896
6.14558
6.463
671.034
200.972
155.968
138.967
131.564
121.477
110.293
89.0794
50.777
30.9345
23.3703
17.3371
12.8861
9.39943
7.22366
6.47263
6.15849
6.09586
5.99809
6.25996
6.37803
6.06173
5.44943
4.82574
4.45076
4.50291
4.9686
5.66902
6.3078
6.44283
745.643
249.266
152.392
118.283
105.804
93.7856
82.4385
60.7564
36.4688
25.6096
18.9326
13.8484
10.5006
7.64471
5.72156
4.76071
4.61749
4.83577
5.32775
5.88502
5.87931
5.48559
4.94495
4.52941
4.42477
4.85213
5.73569
6.40635
7.47473
8.49206
847.645
322.058
141.37
102.24
89.4749
75.6574
59.3824
40.7957
27.9079
20.9497
15.5387
11.6167
9.09902
6.69742
5.1855
4.54528
4.51983
4.90315
6.38489
7.05498
6.81649
6.29047
5.74179
5.33686
5.34163
6.50038
8.62284
8.79609
11.0827
18.5502
968.765
426.284
139.099
97.1726
83.8322
62.7369
43.3857
29.9565
22.3629
17.4127
13.0811
9.95243
7.92545
5.98492
5.09209
4.91059
5.03157
6.21613
8.39402
8.38992
8.02019
7.48983
6.86506
6.36964
6.70398
10.3421
16.5889
15.1066
17.8856
42.9825
1090.54
637.064
162.929
107.046
80.0568
52.1704
34.1791
23.7967
18.676
15.2949
11.6203
9.26292
7.62254
6.08564
5.83255
6.13208
7.19869
9.32347
9.18759
8.7426
8.67968
8.22373
7.54415
7.02081
8.35355
17.3784
31.56
29.4735
22.8158
32.6429
1161.09
1010.34
385.52
153.506
81.8184
48.1628
30.8351
20.8112
17.1703
15.0524
10.4393
8.99359
8.11258
6.5215
7.1167
8.95492
10.2913
10.172
8.76671
8.1877
8.15968
7.77961
7.22189
7.07818
10.4557
27.459
43.3775
39.7116
36.5529
34.9003
1082.75
832.343
505.624
218.322
83.6122
40.9835
25.6963
18.3854
16.4791
16.4323
12.7033
13.1368
10.7562
7.84968
7.61647
10.0497
9.55892
8.94641
7.61045
6.95321
6.57927
6.27744
6.09383
6.65925
13.2488
33.7664
39.9691
35.0761
34.8531
34.1384
1051.24
432.618
154.868
66.969
37.7865
24.5859
17.9152
14.9668
15.7642
18.1985
15.3796
14.6817
10.955
7.52185
7.35366
7.84394
8.615
7.5604
6.36964
5.70856
5.39778
5.28998
5.34811
6.15516
14.725
32.3961
25.3804
23.1892
23.2194
23.8667
978.847
246.929
55.2399
39.244
30.1643
22.7351
17.3757
14.9168
15.5465
18.7559
15.3912
12.8041
9.28838
6.74334
6.71774
6.48627
6.10229
5.3108
4.7167
4.35298
4.22275
4.31705
4.58102
5.22671
8.46061
31.3431
36.3353
28.8075
29.0425
30.2751
809.901
172.675
45.3632
41.4661
36.0378
28.3991
20.9826
16.4758
15.6541
19.0754
18.1142
14.7957
11.8051
8.84043
7.69571
6.42494
5.21372
4.40131
3.87607
3.56405
3.44202
3.50599
3.75134
4.25315
5.62293
15.0577
32.6059
35.272
35.3619
34.2227
694.095
130.29
47.8005
50.9708
48.158
39.6224
29.6323
22.2482
18.7481
21.4731
19.5645
16.1209
14.3648
10.7255
8.35261
6.51177
5.15538
4.25298
3.65442
3.27671
3.11415
3.15001
3.35426
3.73688
4.45813
7.56795
15.6141
17.1212
20.3468
25.0076
605.896
103.103
55.1563
62.5262
61.4519
53.4656
42.7615
33.6125
26.5505
23.2241
19.2926
14.8666
13.9792
11.0285
8.72159
6.97676
5.7024
4.77248
4.09698
3.60601
3.30427
3.2109
3.30432
3.55969
3.95766
4.97851
7.56306
8.02887
8.57299
10.0953
544.47
93.2564
65.3354
73.0936
69.3751
63.011
53.9477
45.1683
36.0945
27.802
20.9961
15.3226
13.5143
11.1454
9.21284
7.64573
6.4375
5.50772
4.82582
4.28133
3.85007
3.6055
3.57927
3.7646
4.1133
4.68046
5.6906
6.29166
6.77189
6.98325
495.731
129.056
91.0615
109.668
101.893
80.6281
63.2226
52.2789
40.0251
29.1287
21.5564
17.497
15.0626
12.2505
10.223
8.73948
7.58567
6.6761
6.0285
5.41393
4.75242
4.25232
4.08066
4.26451
4.77944
5.51098
6.31385
6.93536
7.34667
7.46992
447.524
165.84
113.627
158.005
180.859
144.565
105.046
75.7029
46.5097
26.3925
18.4766
17.1207
17.3191
14.1269
11.6782
9.87303
8.60984
7.76419
7.18437
6.5537
5.71036
4.89312
4.55095
4.69672
5.24755
6.04601
6.78781
7.37008
7.76224
7.9198
396.395
198.58
127.065
109.542
127.922
151.788
156.431
140.653
96.2183
48.2504
27.0892
20.2504
18.1469
15.6628
13.152
10.9436
9.18134
7.81267
6.76954
5.96119
5.29732
4.77256
4.52436
4.70562
5.25553
6.01764
6.72467
7.3205
7.78681
8.04136
404.855
306.903
228.077
169.695
128.716
100.537
80.9885
70.5649
65.6412
54.0122
40.0787
29.4109
22.246
17.2871
13.6486
10.9287
8.8915
7.35536
6.18653
5.2934
4.64074
4.21715
4.03506
4.21595
4.84303
5.77561
6.66032
7.33328
7.82932
8.12392
557.48
375.063
261.549
190.351
148.928
123.211
120.233
126.156
115.606
47.7318
32.6107
28.0298
23.5567
21.0558
19.1341
25.3971
25.3266
15.7115
10.0669
8.42817
7.76438
7.34331
7.03396
6.84439
6.80799
6.88997
7.02084
7.19497
7.50207
7.87897
524.865
253.202
199.974
225.999
221.476
192.022
171.144
143.926
97.5552
42.7733
30.5768
24.5939
19.7264
16.0824
13.5937
14.606
16.4024
16.0773
15.9322
14.8497
12.6315
10.3165
8.57891
7.38706
6.67332
6.31178
6.24981
6.4585
6.89953
7.51007
571.177
230.577
194.326
187.842
180.68
167.95
156.227
123.716
69.6379
36.3749
26.4133
20.5258
15.9911
12.2873
9.6609
8.61651
8.79799
8.84548
8.59412
7.97714
7.30921
6.60953
5.98085
5.5009
5.18154
5.14115
5.45667
5.9731
6.49498
7.00837
627.236
215.458
155.383
149.595
146.992
132.813
116.584
85.2437
47.4714
30.0139
22.2186
17.1024
13.0615
9.79492
7.4718
6.05422
5.48104
5.4285
5.59219
5.9567
6.14881
5.89327
5.35584
4.78783
4.46562
4.60449
5.1802
5.71545
6.01473
6.1931
696.473
237.017
141.272
127.358
115.282
97.8969
79.5639
54.3619
34.5677
24.4667
18.5227
14.1859
10.917
8.22031
6.26917
5.1103
4.75104
4.96813
5.19066
5.74556
5.95588
5.59537
4.97653
4.47117
4.29843
4.80188
6.02492
6.52857
6.71692
6.57216
781.251
285.358
131.855
109.982
94.6601
75.0923
54.9581
37.5406
26.785
20.144
15.6124
12.1683
9.47605
7.18712
5.61197
4.81715
4.66723
4.79531
5.54026
6.37651
6.32908
5.87841
5.35682
4.94462
4.97903
6.77722
10.5017
10.5662
10.8311
11.5429
879.29
372.154
132.891
106.453
86.3148
61.812
41.6108
29.1387
21.7786
17.0435
13.6105
10.8887
8.54397
6.61832
5.47866
5.00645
4.94781
5.51418
7.28215
7.84751
7.34743
6.79536
6.205
5.76328
6.40148
12.3036
22.7984
20.8841
18.6884
25.2459
977.357
555.342
166.518
119.307
86.146
55.4528
36.0349
24.8208
18.7016
15.2072
12.5916
10.4426
8.47523
6.85022
6.10356
5.88445
6.42245
8.56857
9.51449
8.07496
7.39454
6.94546
6.41107
6.12741
8.52265
22.8198
42.5458
34.0352
27.7454
39.619
1038.69
874.866
432.108
178.034
96.9167
56.4381
35.0133
23.1226
17.3078
14.735
12.8914
11.3849
9.84775
8.05515
7.24643
7.67018
10.4101
10.9448
9.03473
7.48772
6.829
6.45045
6.10128
6.28562
11.9757
35.9563
44.1217
39.3096
35.9495
29.593
962.651
782.467
532.686
271.835
111.107
52.5748
30.7925
20.7583
16.1169
14.8743
14.4487
13.9417
11.5885
9.09176
7.75884
9.12225
10.4058
9.17793
7.75021
6.72899
6.09154
5.63706
5.47584
6.21673
16.7127
34.9109
26.6344
19.8395
18.486
16.5966
906.861
442.83
219.456
96.2347
49.7318
29.9757
20.5763
15.8284
13.8844
14.4856
15.3984
14.5024
11.5491
8.83785
7.32153
7.33525
8.33986
8.09139
6.74501
5.7953
5.30363
5.05878
5.06173
5.92692
16.8858
34.2957
21.3905
18.3841
15.3244
13.3749
833.912
225.757
72.3653
47.0878
32.9945
23.3679
17.3272
14.0412
12.822
14.2117
15.1896
13.5694
10.7569
8.33024
6.93532
6.13159
5.87026
5.369
4.7822
4.36808
4.16692
4.15571
4.34048
5.02391
8.96956
35.5746
34.2095
25.0701
21.8386
18.689
705.195
156.661
57.1633
45.4053
35.2098
25.9362
18.7803
14.6579
12.9528
13.9917
14.3833
13.3115
11.0681
8.70511
7.16441
5.99806
5.03204
4.34646
3.8937
3.62494
3.49771
3.51135
3.69549
4.17725
5.67515
17.07
34.7938
37.0125
35.5445
33.6301
613.304
123.225
55.1571
52.8168
45.342
34.8223
24.7867
18.5498
15.1566
14.4218
13.7794
12.742
11.3386
9.19551
7.45251
6.0387
4.91521
4.11947
3.60095
3.28044
3.12791
3.14251
3.32296
3.69421
4.4618
8.11301
16.7351
17.8495
26.3065
32.5325
539.163
117.335
61.7533
67.3674
63.5133
51.6647
37.8661
28.2404
21.4904
17.507
14.8224
12.766
11.1682
9.37079
7.76457
6.40935
5.31375
4.49264
3.89683
3.45349
3.17273
3.08973
3.19065
3.44398
3.86971
5.02693
7.81504
8.44288
8.87468
12.8601
480.393
131.039
74.0336
83.2353
85.2187
73.7193
58.4082
45.5167
33.9185
24.8995
18.7476
14.5227
11.8258
9.80782
8.19872
6.86471
5.7841
4.96275
4.34864
3.86766
3.52103
3.36409
3.39001
3.56838
3.88543
4.43359
5.4568
6.08344
6.44236
6.66382
430.71
154.252
96.0445
100.834
103.889
94.3253
79.383
65.829
50.1561
35.3338
25.1393
18.1767
13.9295
11.1439
9.15707
7.64349
6.47076
5.58615
4.9219
4.39644
3.9909
3.78546
3.79808
4.01403
4.42137
4.99541
5.7292
6.38931
6.88937
7.05651
380.982
169.831
110.297
111.955
122.653
112.715
93.1771
76.8608
59.5937
42.1289
30.1301
21.8863
16.7032
13.2052
10.6685
8.77231
7.36677
6.32884
5.58896
5.01571
4.50427
4.22118
4.24664
4.57957
5.20114
6.06386
6.9229
7.63625
8.14717
8.25383
329.135
181.827
119.891
95.6939
93.3895
96.7235
97.1255
92.9767
75.0972
49.0083
31.664
22.9717
18.2008
14.7954
12.086
9.90365
8.19601
6.89979
5.94151
5.23111
4.71958
4.4285
4.4554
4.85954
5.62358
6.6014
7.48167
8.18306
8.71017
8.92813
322.938
246.803
186.565
140.463
107.229
83.472
66.2554
54.984
48.4447
41.1558
32.7309
25.4869
19.9218
15.6803
12.4236
9.95948
8.12872
6.77189
5.7501
4.98069
4.46118
4.21102
4.21439
4.54252
5.28681
6.30166
7.23473
7.94714
8.5026
8.90819
467.166
317.295
224.965
164.29
126.898
103.527
94.2008
91.9876
80.4159
53.0936
32.9266
23.8418
18.6768
15.3734
13.4646
12.9377
14.2464
17.3312
16.5666
13.8192
11.5759
10.0462
9.0007
8.27912
7.8367
7.7005
7.79326
8.03777
8.37976
8.66778
460.006
241.116
174.156
172.334
169.053
150.152
130.416
109.688
77.6045
46.2717
29.651
21.8383
17.07
13.6746
11.2793
9.80521
9.40507
10.213
10.8471
10.5351
9.41764
8.07844
7.0139
6.23594
5.83377
5.74769
5.95886
6.41837
7.03647
7.54465
509.317
234.998
174.977
163.09
157.073
142.326
124.213
91.7121
58.6849
36.3449
24.9034
18.8191
14.7752
11.6164
9.20512
7.52618
6.54898
6.19287
6.04033
5.77203
5.4
5.03904
4.76129
4.61565
4.60071
4.81173
5.24159
5.70355
6.18281
6.72662
564.557
236.317
158.134
146.254