/*--------------------------------*- C++ -*----------------------------------*\
| =========                 |                                                 |
| \\      /  F ield         | OpenFOAM: The Open Source CFD Toolbox           |
|  \\    /   O peration     | Version:  2512                                  |
|   \\  /    A nd           | Website:  www.openfoam.com                      |
|    \\/     M anipulation  |                                                 |
\*---------------------------------------------------------------------------*/
FoamFile
{
    version     2.0;
    format      ascii;
    arch        "LSB;label=32;scalar=64";
    class       volScalarField;
    location    "20";
    object      nut;
}
// * * * * * * * * * * * * * * * * * * * * * * * * * * * * * * * * * * * * * //

dimensions      [0 2 -1 0 0 0 0];

internalField   nonuniform List<scalar> 
90398
(
0.132403
0.0674174
0.0453105
0.0346508
0.029887
0.00803853
0.00461417
0.00318994
0.00415601
0.00506739
0.00567875
0.00657793
0.00776461
0.00911491
0.0108773
0.0122333
0.012234
0.0118193
0.0118266
0.012252
0.0126533
0.0129908
0.0134621
0.0141498
0.0148142
0.0152703
0.0152405
0.015187
0.0144053
0.0144226
0.0610972
0.0644777
0.0592012
0.0341146
0.0125287
0.0058046
0.00382178
0.00352834
0.00429363
0.00535115
0.00685601
0.00848458
0.0098006
0.011373
0.0137601
0.0154228
0.0157384
0.0158958
0.0154718
0.0146887
0.0142665
0.014564
0.0155018
0.0166294
0.0170326
0.0167956
0.0166465
0.0172156
0.0166419
0.0161528
0.0593055
0.088628
0.0517312
0.0321632
0.0219995
0.011148
0.005078
0.00436605
0.0045437
0.00471544
0.00631421
0.00871355
0.0105196
0.0135821
0.0174263
0.0194092
0.020036
0.0200704
0.0181706
0.0163275
0.0159677
0.0169381
0.0186944
0.020358
0.0210374
0.0215692
0.0227271
0.0244934
0.0240148
0.0239064
0.0667808
0.0830368
0.0486104
0.037887
0.0301737
0.0200131
0.00921613
0.00614305
0.00503526
0.00403623
0.00552317
0.00825165
0.00891582
0.0111961
0.0146088
0.017336
0.0205191
0.0210302
0.0180767
0.0161596
0.016025
0.017071
0.018543
0.0197375
0.0204964
0.0218679
0.0247613
0.0288389
0.0312938
0.0351547
0.0763643
0.0810634
0.0562693
0.0508829
0.0476438
0.0351515
0.0171001
0.0087199
0.00564335
0.00356939
0.00494527
0.0076618
0.0081283
0.0100495
0.0132923
0.0167009
0.0218455
0.0207555
0.0180716
0.0173442
0.0180471
0.0195772
0.0210058
0.0220476
0.0236917
0.0271227
0.0323049
0.0386207
0.0436053
0.0622198
0.0889873
0.0874231
0.0727929
0.0799364
0.0809878
0.0627088
0.0317579
0.0122626
0.00658009
0.00316782
0.00455589
0.00627952
0.00791745
0.0103817
0.0138432
0.0173038
0.0207849
0.0197449
0.0197552
0.0212056
0.0235134
0.0270591
0.0305312
0.0331707
0.0352938
0.0373261
0.0406143
0.0427995
0.0423276
0.068058
0.102589
0.0992118
0.10138
0.129584
0.130811
0.12089
0.0669533
0.019729
0.00740296
0.00342504
0.00412997
0.008189
0.00783159
0.0113718
0.0150494
0.0167749
0.0186305
0.0201844
0.0224311
0.0239646
0.0271091
0.033907
0.0440538
0.0465933
0.0396794
0.0367793
0.0388607
0.040495
0.0400359
0.0618619
0.115572
0.114723
0.144663
0.176477
0.182908
0.180759
0.126396
0.0495144
0.0125711
0.00100482
0.00106986
0.00249812
0.00371634
0.0063849
0.0149726
0.0155213
0.0187074
0.0208632
0.0233706
0.0252288
0.0277361
0.0337145
0.0428888
0.0412088
0.0339633
0.0338326
0.0392254
0.0441235
0.0462926
0.0601885
0.124837
0.130591
0.206854
0.204417
0.207073
0.192249
0.148969
0.0913557
0.0116218
0.00116929
0.000791404
0.00133983
0.00280448
0.00550418
0.0129949
0.0161575
0.0196303
0.0210626
0.0266364
0.0303453
0.0339541
0.0375557
0.0392101
0.0330885
0.0298236
0.0331991
0.0425626
0.0548592
0.061232
0.0757335
0.12199
0.133061
0.229073
0.235485
0.22015
0.216896
0.202127
0.207836
0.0302822
0.00117734
0.000608455
0.000428003
0.000916204
0.00244993
0.0149068
0.0169997
0.0186585
0.0200745
0.0241283
0.0301872
0.0367957
0.0383208
0.0347569
0.0292398
0.0278245
0.0341286
0.0466284
0.0682728
0.0773183
0.0889858
0.0999408
0.113425
0.165592
0.166923
0.168677
0.157636
0.125121
0.094283
0.0231027
0.00489617
0.000715834
0.00151614
0.0032812
0.0196713
0.0162814
0.0181581
0.0210821
0.0250273
0.0331842
0.038598
0.0400255
0.0361106
0.029543
0.0279176
0.0346225
0.0437515
0.0602938
0.0672245
0.112352
0.0656566
0.0706406
0.0904863
0.106328
0.105333
0.0899156
0.0628158
0.0420809
0.00905574
0.00632407
0.0013156
0.000608771
0.00159135
0.00240097
0.0182398
0.0235883
0.0276643
0.0304129
0.0345813
0.0403904
0.0475363
0.0615324
0.06628
0.0401788
0.0303427
0.0362891
0.0440421
0.0501655
0.0538378
0.0992524
0.0424228
0.042776
0.0455119
0.0511988
0.0506153
0.0441689
0.0355528
0.0279123
0.0199066
0.0079143
0.00850586
0.00281336
0.00325757
0.00384769
0.0174516
0.0243929
0.0284874
0.0330731
0.0410882
0.0478509
0.0560943
0.0598754
0.0538072
0.0482856
0.0341575
0.0310861
0.0399882
0.0511567
0.0575118
0.0714046
0.0310757
0.030895
0.0291812
0.0296738
0.0290781
0.027249
0.0248602
0.0226521
0.0182364
0.010653
0.00647097
0.010251
0.00651606
0.0110348
0.0167442
0.0222248
0.0272146
0.0341135
0.0438445
0.0562856
0.067267
0.0520189
0.0359886
0.0318914
0.0320678
0.0337862
0.0397624
0.0517251
0.0627951
0.0677122
0.0259047
0.0284985
0.0270351
0.0277745
0.027388
0.0265635
0.0258271
0.0253707
0.0184594
0.00666228
0.00582413
0.00983037
0.00698748
0.0111434
0.016114
0.0199566
0.023666
0.0297241
0.0357807
0.038458
0.0355395
0.031687
0.0312245
0.0316313
0.0326141
0.0375645
0.0413812
0.0483681
0.0630552
0.0728898
0.0235675
0.0313747
0.0310318
0.0329004
0.0321009
0.0311757
0.0291362
0.0216639
0.0101112
0.00532384
0.00578457
0.0107667
0.00638231
0.00912564
0.0130866
0.0173565
0.0186135
0.0212049
0.025328
0.0253605
0.0212739
0.0193022
0.0233902
0.0282632
0.0339347
0.0398888
0.0408189
0.0439442
0.0570932
0.0657144
0.0229231
0.036493
0.0355221
0.0271123
0.0234132
0.0197677
0.0118583
0.0081391
0.00657296
0.00508119
0.00638258
0.0122027
0.00553822
0.00764071
0.0100448
0.01271
0.0140214
0.0157959
0.0171095
0.0157568
0.0116744
0.0118665
0.0165035
0.0226332
0.0298206
0.0370643
0.0396233
0.0429576
0.0459977
0.0391931
0.0237494
0.0356625
0.0411606
0.0119871
0.00674154
0.00543109
0.00540567
0.00521029
0.00534931
0.00536089
0.00752873
0.0362862
0.00644544
0.00596231
0.00746506
0.0104074
0.0110708
0.0115522
0.0128945
0.0123812
0.00960602
0.00992911
0.0141682
0.0219073
0.030206
0.0400555
0.0426964
0.039062
0.0327342
0.0261792
0.0270349
0.0311001
0.030016
0.0206089
0.0159555
0.0118845
0.0103182
0.00805344
0.00726958
0.00647174
0.00909546
0.0220366
0.0147439
0.0106131
0.00990229
0.0104102
0.0107926
0.0121763
0.0138058
0.0134874
0.0100778
0.00900281
0.0117084
0.0176022
0.0299082
0.0390296
0.0349854
0.0287214
0.0235234
0.019659
0.0761608
0.0491633
0.0375683
0.0296573
0.0255455
0.0233059
0.0221958
0.022802
0.0279823
0.0289193
0.0250834
0.0196258
0.0167201
0.0154864
0.0146788
0.0136436
0.0126763
0.0121151
0.0116216
0.0109175
0.0106347
0.0112186
0.0126786
0.0170676
0.0319521
0.0509069
0.0382206
0.0282665
0.0215709
0.0175457
0.285855
0.222197
0.210113
0.169375
0.113371
0.0968044
0.0957659
0.0737771
0.0410324
0.0433712
0.0495401
0.0453459
0.0417576
0.0400125
0.0354247
0.0304023
0.0263236
0.0242695
0.023345
0.0230304
0.0229498
0.0233237
0.0245658
0.0269054
0.0293663
0.0304035
0.0310019
0.0328335
0.0346219
0.0385614
0.239687
0.196299
0.106013
0.0994382
0.0809282
0.0634581
0.0661541
0.0895742
0.052678
0.0548442
0.0516859
0.0594973
0.0695226
0.0664536
0.0565309
0.0464376
0.0447718
0.0439509
0.0477583
0.051208
0.0476825
0.0472315
0.0486183
0.0508473
0.0518296
0.0528459
0.0541528
0.0536869
0.0540975
0.0576186
0.245226
0.147732
0.0921511
0.0690394
0.0583688
0.0583366
0.0772645
0.0740193
0.0580693
0.0491136
0.040005
0.0421834
0.051244
0.0631173
0.0700198
0.0664833
0.0548004
0.0481359
0.0451047
0.0462704
0.0460995
0.0464904
0.0488335
0.0513366
0.0533123
0.055187
0.0568622
0.058326
0.0601262
0.0618995
0.235575
0.158761
0.13277
0.18052
0.160613
0.103995
0.0813073
0.0760239
0.0577431
0.0456545
0.0344783
0.0356445
0.0382975
0.0386105
0.04366
0.0462136
0.0416133
0.0377966
0.0425257
0.0447535
0.0416431
0.0410082
0.041655
0.0431437
0.0456467
0.0490973
0.0518146
0.0531403
0.0547942
0.0569496
0.240038
0.227876
0.367782
0.266008
0.162472
0.119106
0.0892529
0.0731266
0.0554001
0.0435976
0.031226
0.0297971
0.031867
0.0320591
0.0360313
0.0430435
0.0346258
0.037475
0.0481944
0.0436984
0.042315
0.0430726
0.0453528
0.0491631
0.053939
0.0585157
0.0613284
0.06193
0.0651604
0.0693256
0.256791
0.374354
0.442407
0.25766
0.20027
0.137378
0.0884985
0.0697397
0.0568458
0.0428852
0.0251667
0.0240027
0.0253455
0.0278279
0.0360089
0.0423758
0.0355032
0.0511684
0.0491555
0.0474039
0.0508524
0.0568857
0.0629937
0.0571916
0.0508633
0.0533898
0.0610698
0.0708366
0.0810714
0.0776403
0.281971
0.546872
0.38094
0.289047
0.272048
0.241665
0.115178
0.0680814
0.0524179
0.0363455
0.0242171
0.0178643
0.0217126
0.0249643
0.0327882
0.0375032
0.042294
0.0533606
0.0498061
0.0527272
0.0631654
0.07396
0.0751422
0.0717416
0.0707927
0.0788301
0.0908829
0.0873742
0.0915546
0.100336
0.312218
0.555361
0.407569
0.323536
0.366426
0.44763
0.299527
0.130902
0.0539766
0.022011
0.0138629
0.0106664
0.0129578
0.0157551
0.0371207
0.0475283
0.0521628
0.0492389
0.0466978
0.0558945
0.0696244
0.0825225
0.0911714
0.0958768
0.0922312
0.100692
0.111414
0.105645
0.0973506
0.111209
0.338094
0.500385
0.508444
0.363205
0.456602
0.568452
0.545529
0.396989
0.213387
0.0117512
0.00556375
0.00738933
0.0098007
0.0137877
0.0442647
0.0377177
0.0423637
0.0395153
0.0430677
0.0555119
0.0717242
0.0866423
0.0965487
0.10117
0.0988498
0.110148
0.131734
0.141777
0.129026
0.11352
0.336777
0.455953
0.547998
0.444423
0.489817
0.583852
0.539085
0.502539
0.367851
0.00837792
0.00115937
0.000430969
0.000873515
0.00121931
0.0201184
0.0279916
0.0280646
0.0304825
0.0397849
0.0569725
0.0751564
0.0888279
0.0976652
0.101774
0.105939
0.120803
0.150269
0.176604
0.171003
0.139797
0.348787
0.469142
0.465914
0.361038
0.482206
0.548043
0.441561
0.325657
0.181393
0.0453151
0.00374281
0.0159103
0.0165308
0.0198646
0.0284141
0.040031
0.0575291
0.075353
0.0752134
0.0847844
0.0871
0.0796326
0.117479
0.138184
0.131934
0.129406
0.124269
0.354257
0.529653
0.52712
0.476428
0.511518
0.467328
0.287705
0.142953
0.0553957
0.0425613
0.0177672
0.00368606
0.00214065
0.00846045
0.0252042
0.0372664
0.0502094
0.0531224
0.0565285
0.0574616
0.053565
0.0513141
0.0609051
0.0770388
0.0764882
0.0955317
0.131493
0.149432
0.162742
0.131598
0.280485
0.412631
0.380917
0.343144
0.29673
0.211431
0.147645
0.0979435
0.0496474
0.0262719
0.012172
0.0450089
0.0150315
0.00480037
0.0447889
0.0453061
0.0436676
0.044978
0.0465988
0.0459542
0.0421567
0.0424652
0.05134
0.0677211
0.0653467
0.0676792
0.0977497
0.125271
0.107997
0.10559
0.215511
0.251888
0.235454
0.215757
0.198315
0.163008
0.116058
0.0638168
0.0254572
0.011972
0.00722347
0.0553977
0.043163
0.0217572
0.0513488
0.0429737
0.0412472
0.0413022
0.0450476
0.0468356
0.0449894
0.0439583
0.0473205
0.0540142
0.0622942
0.0668511
0.0865831
0.107458
0.0911108
0.0907461
0.194461
0.178375
0.149116
0.138401
0.141428
0.146019
0.0984178
0.0494179
0.0177106
0.0092306
0.00683096
0.0532084
0.0644745
0.0578159
0.0563564
0.0522896
0.0484748
0.0462904
0.0480638
0.0471099
0.0427084
0.0414127
0.0424914
0.0488862
0.0575605
0.0666621
0.0771538
0.0883406
0.0712762
0.065592
0.191416
0.143967
0.102443
0.099984
0.107924
0.108472
0.0646124
0.0283643
0.0117684
0.00756304
0.00669956
0.0385154
0.0570299
0.0536475
0.0592291
0.056239
0.0599265
0.0537791
0.0498872
0.0492155
0.0439063
0.0468043
0.0483043
0.0553001
0.0666513
0.0749402
0.0771195
0.073957
0.0647325
0.0641085
0.205675
0.128439
0.0855992
0.0903207
0.0827021
0.0516759
0.0271695
0.0146549
0.00859165
0.00651623
0.00639266
0.0286576
0.0394607
0.0653614
0.0786297
0.0700024
0.0584817
0.0439095
0.0475517
0.0559012
0.0693658
0.0515155
0.0546511
0.0627257
0.0785179
0.0852825
0.0729844
0.0635644
0.0672844
0.0766083
0.226067
0.131506
0.0773674
0.122585
0.144622
0.0949376
0.0411986
0.0131897
0.00782829
0.00620476
0.00620118
0.0312245
0.0301087
0.0323963
0.0375996
0.0380764
0.0381492
0.0406931
0.0419796
0.0377477
0.0330815
0.0422149
0.0514791
0.0547573
0.0611294
0.0688759
0.0721837
0.0726586
0.077013
0.0823069
0.256341
0.149338
0.118514
0.0698859
0.0894687
0.138177
0.130886
0.0829793
0.0303467
0.0119085
0.00826184
0.025009
0.047909
0.0475416
0.0490062
0.0496644
0.050114
0.0495309
0.0463683
0.0413051
0.0392567
0.0404858
0.0419955
0.0443118
0.047178
0.054029
0.0654619
0.0754797
0.0754483
0.0781915
0.299305
0.244337
0.276981
0.261939
0.232695
0.185918
0.135206
0.124515
0.109971
0.0497635
0.031012
0.0343627
0.0382135
0.0409859
0.0426071
0.0437165
0.044722
0.0455044
0.045951
0.0461257
0.0463971
0.0472058
0.0483044
0.049741
0.042884
0.0399642
0.0423441
0.0469208
0.0509062
0.0599903
0.4791
0.385696
0.313864
0.266262
0.236827
0.200439
0.199557
0.146108
0.137167
0.112136
0.101476
0.112921
0.105535
0.100285
0.0871837
0.0822267
0.0768714
0.0706692
0.0651987
0.0621391
0.0604024
0.0593295
0.0588079
0.0590339
0.0601071
0.061639
0.0632098
0.0652459
0.0666304
0.0691353
0.432693
0.320132
0.282639
0.259193
0.209666
0.178691
0.17836
0.145183
0.131913
0.118536
0.0983654
0.0898571
0.100672
0.110412
0.107627
0.0992022
0.0828317
0.0652604
0.060128
0.0664103
0.0662362
0.0653082
0.0667929
0.0701995
0.0746456
0.0778581
0.0808633
0.0763198
0.0691105
0.0692112
0.452732
0.303467
0.254777
0.206579
0.168675
0.154735
0.160265
0.159173
0.135156
0.104743
0.0815992
0.0695584
0.0716222
0.0862975
0.106521
0.108462
0.105693
0.116994
0.0987063
0.0847609
0.0779377
0.0749953
0.0735825
0.0722328
0.0711337
0.0708844
0.0716874
0.0737437
0.0774899
0.0797922
0.489352
0.342177
0.281062
0.233712
0.190188
0.172042
0.168386
0.168602
0.126076
0.0890873
0.0682467
0.058946
0.0556648
0.0571054
0.0661617
0.0798582
0.0810341
0.0904161
0.0753594
0.0661805
0.0605688
0.0568988
0.054151
0.0525545
0.0523714
0.0537986
0.0570589
0.0632652
0.0741876
0.0809722
0.540426
0.417493
0.361596
0.306237
0.219069
0.181503
0.168547
0.152458
0.108334
0.0780828
0.0574962
0.0510189
0.0469031
0.0470242
0.0505488
0.0537155
0.0832858
0.0715955
0.0656646
0.0600819
0.0558579
0.0525959
0.0504912
0.050269
0.0520322
0.0558882
0.0620631
0.0723808
0.07385
0.0838953
0.600274
0.522693
0.45591
0.286495
0.191993
0.165247
0.153657
0.130071
0.0928433
0.0634241
0.0489302
0.0461103
0.0420359
0.0408363
0.0419136
0.0533773
0.0756218
0.0721408
0.0701132
0.06645
0.0626909
0.0608942
0.0612266
0.0632343
0.0661574
0.0709417
0.0784454
0.0763177
0.0856675
0.126486
0.663324
0.64374
0.44106
0.219887
0.166428
0.146208
0.136211
0.115731
0.0824385
0.0558701
0.0447112
0.042197
0.0399491
0.0373349
0.047675
0.0683537
0.0735443
0.0788687
0.0795239
0.0749928
0.0739575
0.0766325
0.0798889
0.0830292
0.0851792
0.0905225
0.100426
0.0899646
0.110491
0.175361
0.713439
0.762847
0.424429
0.194263
0.150652
0.14278
0.134858
0.114478
0.082918
0.0571668
0.0259141
0.0220694
0.0263161
0.0255557
0.071369
0.0741746
0.074553
0.0841424
0.0852948
0.0841095
0.0885568
0.0937281
0.0977566
0.100708
0.100554
0.108711
0.130754
0.136354
0.143809
0.175651
0.717436
0.819389
0.456817
0.200513
0.148363
0.150942
0.155642
0.1289
0.0741997
0.0307255
0.0142906
0.00793088
0.0108617
0.0126401
0.0695278
0.0756023
0.0751951
0.0790673
0.0911799
0.101247
0.107035
0.108938
0.110472
0.110915
0.109273
0.124412
0.162397
0.167846
0.185643
0.18749
0.646894
0.623421
0.373324
0.23259
0.143123
0.131771
0.124513
0.106267
0.0505389
0.0195645
0.00413845
0.000619434
0.00143887
0.00315867
0.0383272
0.0496842
0.0598271
0.0735087
0.0958099
0.110575
0.114801
0.115761
0.115991
0.115561
0.113036
0.13914
0.184159
0.189953
0.196471
0.211419
0.630491
0.529313
0.18226
0.0991006
0.0867682
0.0915091
0.0892248
0.0834226
0.0481812
0.0195604
0.0186479
0.0171965
0.0181499
0.0323664
0.0551089
0.0755553
0.0833419
0.0865823
0.104101
0.108028
0.112136
0.113577
0.0878894
0.147547
0.166213
0.17846
0.182928
0.185073
0.567859
0.465327
0.164007
0.0914185
0.0782846
0.0703968
0.0628732
0.0668404
0.0682155
0.0546769
0.0261893
0.00486387
0.00285004
0.00703652
0.0454624
0.067039
0.0690069
0.0608408
0.0567425
0.0601
0.0636129
0.0681002
0.0782635
0.0854054
0.0844553
0.117541
0.158736
0.177908
0.178423
0.181084
0.438409
0.306772
0.165171
0.094365
0.0752129
0.0658114
0.0562311
0.0481398
0.046261
0.032387
0.0132622
0.0117006
0.0260343
0.0316779
0.0679426
0.0591355
0.0527666
0.0517611
0.0568484
0.0607395
0.0612179
0.0675142
0.0762861
0.0724981
0.0697024
0.0932
0.131264
0.145374
0.142122
0.130877
0.391548
0.223397
0.147911
0.0892562
0.0733678
0.0638801
0.0514962
0.0404863
0.0319611
0.0192132
0.0105267
0.0584146
0.0789781
0.0668674
0.0764059
0.0684816
0.0625811
0.0589154
0.059255
0.0585255
0.0575647
0.0588389
0.0613922
0.0642938
0.0709365
0.100018
0.121273
0.127768
0.125261
0.12186
0.362554
0.195962
0.130954
0.0962508
0.0827786
0.0626057
0.040483
0.0291956
0.0236933
0.0168195
0.0106012
0.0753766
0.0915869
0.082736
0.086245
0.0813768
0.0767147
0.0743625
0.0711121
0.0662037
0.0611833
0.0589549
0.0601397
0.0648631
0.0750373
0.0931167
0.104458
0.105322
0.0924414
0.0916238
0.334363
0.179834
0.112816
0.0790952
0.0611557
0.04296
0.0254331
0.0164781
0.0156787
0.0137176
0.0103102
0.0592872
0.0747686
0.0806196
0.084889
0.0826015
0.0857704
0.0869194
0.0850956
0.083857
0.0761863
0.0697976
0.0662311
0.0668232
0.0724979
0.0928144
0.103212
0.102689
0.111419
0.0950453
0.317657
0.176008
0.119459
0.0900865
0.053952
0.0269871
0.0141927
0.0110923
0.0108937
0.0107819
0.0099622
0.0483959
0.061831
0.0699075
0.0792821
0.0908036
0.0966519
0.0959128
0.0942583
0.0819768
0.0778099
0.0804794
0.0763228
0.0776306
0.0856191
0.0979055
0.104634
0.108708
0.110786
0.0903021
0.306818
0.20971
0.18127
0.175995
0.145893
0.0935372
0.049418
0.0174206
0.00969025
0.00917992
0.00920122
0.0395912
0.055299
0.0621645
0.0686316
0.0739943
0.078684
0.0816336
0.0822764
0.078161
0.0724506
0.0679674
0.0654543
0.069209
0.0781217
0.0886613
0.0894668
0.0919261
0.0946775
0.0880681
0.298744
0.237341
0.204762
0.1978
0.207277
0.221191
0.164545
0.105373
0.0382013
0.0152595
0.0105524
0.0262994
0.0463272
0.0534248
0.0547353
0.0539801
0.0550373
0.0560786
0.0567917
0.0570556
0.0570922
0.0566623
0.0566506
0.0595882
0.0675077
0.078552
0.0868055
0.0900858
0.0924705
0.0912406
0.314234
0.291985
0.263712
0.234419
0.210153
0.19268
0.179631
0.170214
0.115872
0.0590069
0.0377469
0.0375178
0.0387176
0.039609
0.039529
0.0392294
0.0392232
0.0394569
0.0397756
0.0402705
0.0412899
0.042915
0.0449624
0.0487385
0.0574931
0.0708831
0.0851286
0.084096
0.0878265
0.0978515
0.477826
0.387099
0.315221
0.266043
0.233308
0.203306
0.201828
0.209964
0.164445
0.16974
0.158723
0.170725
0.185237
0.196966
0.167703
0.0914715
0.0776946
0.0713844
0.0674199
0.0659975
0.0645577
0.0634348
0.0632009
0.0644328
0.067419
0.0716175
0.076323
0.0817223
0.0882112
0.091768
0.437524
0.311975
0.282533
0.273909
0.236113
0.228065
0.225819
0.184584
0.169253
0.161143
0.144051
0.147644
0.151848
0.160008
0.166358
0.159556
0.13982
0.127345
0.108784
0.0961957
0.0855903
0.0823897
0.0852
0.0920521
0.0951662
0.0962754
0.0974238
0.0990854
0.10143
0.102191
0.453
0.27763
0.250235
0.218167
0.195033
0.195245
0.193685
0.178749
0.178512
0.148141
0.135598
0.126201
0.114042
0.114274
0.12915
0.153134
0.145989
0.107253
0.110722
0.111346
0.102256
0.0978444
0.0934418
0.0879243
0.0830774
0.0803949
0.0807358
0.083861
0.0896453
0.0929053
0.479159
0.297526
0.242438
0.206737
0.185232
0.179074
0.176933
0.178413
0.163365
0.137526
0.126854
0.107921
0.092991
0.085648
0.0877347
0.0965238
0.0991149
0.0920953
0.0898826
0.0766268
0.0698126
0.0650542
0.0604698
0.0568154
0.0554131
0.0574986
0.0634291
0.0732979
0.0881388
0.0952117
0.520031
0.357191
0.277307
0.203678
0.175259
0.167302
0.165119
0.159149
0.141779
0.128265
0.113615
0.0949104
0.0808793
0.0729924
0.0716655
0.0788372
0.0743949
0.08129
0.071032
0.0649348
0.0595299
0.0551982
0.051981
0.0507941
0.0524179
0.0581346
0.0677084
0.0808689
0.108445
0.124272
0.569151
0.436811
0.286203
0.189376
0.16914
0.159648
0.148039
0.133534
0.122199
0.115476
0.101806
0.0880767
0.0747939
0.0692158
0.0713459
0.062715
0.0631462
0.0751879
0.0765016
0.0730121
0.0673449
0.0626227
0.0602943
0.0602353
0.0628476
0.0710104
0.0832384
0.0972739
0.136418
0.1725
0.621022
0.529193
0.267185
0.181258
0.166858
0.14733
0.127713
0.111073
0.104427
0.102255
0.0878303
0.0692731
0.0617182
0.0631315
0.0798544
0.0816297
0.0764728
0.0859153
0.0907134
0.0842491
0.0785506
0.0763337
0.0759664
0.07687
0.0802271
0.0939159
0.115518
0.125996
0.152409
0.103768
0.660077
0.648297
0.272721
0.185852
0.1558
0.127118
0.107683
0.0963988
0.0928625
0.087421
0.0463715
0.0293915
0.0331864
0.0332145
0.0790508
0.0816672
0.087225
0.104221
0.0992143
0.0941065
0.0928368
0.0927937
0.0930468
0.0938005
0.0980176
0.119635
0.158124
0.168473
0.16922
0.135165
0.653421
0.749866
0.380862
0.207084
0.142755
0.110251
0.0928689
0.0853943
0.0831482
0.0601077
0.031784
0.0103977
0.0149946
0.0140052
0.0818011
0.0956478
0.100629
0.105808
0.102377
0.104847
0.10551
0.103908
0.102156
0.102248
0.108556
0.140999
0.194437
0.228155
0.197347
0.165981
0.574793
0.516371
0.365775
0.213803
0.12682
0.0898994
0.0769273
0.0750798
0.075005
0.0406171
0.0294323
0.00241407
0.00405963
0.020859
0.0809191
0.0945847
0.099851
0.0994289
0.0999663
0.101265
0.10164
0.101466
0.101351
0.103568
0.116895
0.15751
0.202864
0.223627
0.211153
0.189526
0.552412
0.361772
0.150968
0.0965058
0.0731499
0.0623608
0.0603301
0.0644521
0.0740386
0.0455549
0.0288791
0.0017718
0.00537859
0.00949503
0.0778367
0.0940858
0.0970718
0.0940912
0.0933065
0.0922178
0.0922904
0.0946381
0.0978216
0.101924
0.10453
0.156923
0.156582
0.149154
0.149473
0.14335
0.499388
0.291838
0.0801904
0.0658303
0.0606463
0.0564264
0.0540457
0.0592491
0.0742151
0.0665213
0.0217415
0.00177281
0.00543285
0.00568632
0.0748851
0.0891751
0.089355
0.0854745
0.0827782
0.0816483
0.0838633
0.0892113
0.0952642
0.0962266
0.100237
0.156982
0.179401
0.172918
0.167606
0.16177
0.409103
0.224307
0.070551
0.0609203
0.0597916
0.0570752
0.0538128
0.0539234
0.0617292
0.0804711
0.0863629
0.0210726
0.0306376
0.0278964
0.0897917
0.0877898
0.0838
0.078318
0.0745463
0.0730129
0.0743007
0.0786506
0.0852516
0.0781455
0.0844569
0.131344
0.16576
0.184082
0.175295
0.165038
0.370189
0.174941
0.0701579
0.0589328
0.0583572
0.0561945
0.0536381
0.0521052
0.0534742
0.0683616
0.111765
0.0922117
0.0955716
0.0936659
0.0892153
0.0818303
0.0743854
0.0689708
0.0655548
0.0642733
0.0658935
0.0706893
0.0780193
0.0762003
0.077585
0.110546
0.137862
0.144138
0.146215
0.144117
0.342978
0.150545
0.0748461
0.0568717
0.0518005
0.047852
0.0471986
0.0480216
0.0497735
0.0610747
0.0845554
0.0697734
0.0951751
0.0829444
0.0780088
0.0729011
0.0679265
0.0640282
0.0614703
0.0602629
0.0610282
0.0646747
0.0714171
0.0806549
0.0841313
0.0997942
0.115147
0.118734
0.121149
0.122697
0.318692
0.140586
0.0812009
0.0630123
0.0463218
0.0349086
0.0321032
0.0362811
0.0409618
0.049625
0.0595231
0.0539547
0.067086
0.0675226
0.0690951
0.0676666
0.0656487
0.0636369
0.0626243
0.0619217
0.0612238
0.0625533
0.0676648
0.0771445
0.0897284
0.101604
0.112069
0.118748
0.122606
0.122079
0.301965
0.151432
0.112081
0.102521
0.0743566
0.0458297
0.0277313
0.01858
0.0173932
0.0195757
0.0208939
0.0451675
0.0564945
0.058255
0.060399
0.0625289
0.0637709
0.0647265
0.0666619
0.0673806
0.0644039
0.0622879
0.0650302
0.0744995
0.0904969
0.107193
0.119319
0.126572
0.130169
0.129602
0.287073
0.195626
0.175325
0.173822
0.152835
0.112729
0.0730393
0.0411988
0.0176368
0.0120993
0.0134643
0.0378753
0.0512849
0.0531955
0.0518606
0.0541555
0.0576675
0.05945
0.0616977
0.062503
0.0605159
0.0575868
0.0590974
0.0674075
0.0815654
0.0979335
0.110909
0.119305
0.123731
0.12473
0.27446
0.217195
0.187443
0.183138
0.208645
0.213056
0.177983
0.121436
0.0624138
0.0273117
0.0172425
0.031123
0.0449589
0.0467049
0.0462196
0.0453972
0.0452918
0.0456364
0.0462968
0.0473181
0.0483048
0.0489361
0.0509818
0.0580104
0.0707498
0.0873215
0.102257
0.113187
0.119884
0.122115
0.282203
0.259764
0.234095
0.208914
0.188159
0.171543
0.158701
0.15089
0.123651
0.0784609
0.0545546
0.0467982
0.0435184
0.0418086
0.040539
0.0394909
0.0387452
0.0383191
0.0381796
0.0383431
0.0390229
0.0404361
0.0430633
0.0493474
0.0619762
0.0797117
0.0978259
0.112377
0.121756
0.12523
0.457694
0.374283
0.308168
0.259915
0.225819
0.198073
0.190182
0.209264
0.194593
0.149979
0.135751
0.149963
0.157474
0.168024
0.193202
0.179628
0.103152
0.0768109
0.0686282
0.0670756
0.0664972
0.0669746
0.0690221
0.07311
0.0797503
0.087913
0.0956389
0.102627
0.110081
0.116157
0.42271
0.306692
0.272254
0.267035
0.244143
0.230336
0.228277
0.212541
0.180896
0.143136
0.137072
0.143068
0.14409
0.146073
0.162285
0.181846
0.169823
0.168381
0.155096
0.143329
0.122743
0.113849
0.113597
0.11395
0.113017
0.111456
0.111571
0.113707
0.117501
0.121652
0.434372
0.278297
0.245028
0.226677
0.212383
0.210598
0.209355
0.196094
0.17019
0.137642
0.134485
0.135776
0.131073
0.125879
0.129022
0.142566
0.142397
0.141799
0.138991
0.12888
0.124896
0.117508
0.108575
0.0979639
0.0894337
0.0858401
0.0880131
0.0945053
0.102696
0.109055
0.454953
0.270653
0.22465
0.203931
0.194593
0.189408
0.185724
0.176771
0.149407
0.130814
0.130033
0.125819
0.118754
0.110009
0.104659
0.107136
0.110288
0.105333
0.105376
0.0944633
0.0864685
0.0787658
0.0702958
0.0634294
0.0605833
0.0632162
0.0713627
0.0827031
0.0936958
0.100174
0.484866
0.310481
0.228657
0.190991
0.178213
0.169856
0.163422
0.149949
0.129144
0.121282
0.118882
0.113943
0.108208
0.100281
0.0937735
0.0924486
0.0958438
0.092499
0.0793634
0.0710313
0.0645181
0.0589721
0.05439
0.0520784
0.0532271
0.0599193
0.071741
0.0823163
0.0968631
0.110792
0.523765
0.36725
0.223091
0.178812
0.16597
0.154318
0.13973
0.122736
0.111361
0.108471
0.10679
0.103512
0.0994605
0.0927693
0.0884753
0.088638
0.0867191
0.0786753
0.0771899
0.0736073
0.067836
0.0626054
0.0592078
0.0580697
0.0606747
0.0727551
0.0923596
0.098314
0.120641
0.171326
0.566567
0.440362
0.221518
0.173851
0.159573
0.138132
0.11613
0.100875
0.0953078
0.0952908
0.0933518
0.0893688
0.0801329
0.0811016
0.0838146
0.0843421
0.0802297
0.0824451
0.0890534
0.0832502
0.0773962
0.0737143
0.0715774
0.0712128
0.0764755
0.100713
0.135572
0.134436
0.152094
0.235561
0.598551
0.555277
0.240359
0.18176
0.153161
0.121909
0.0989835
0.085222
0.0819192
0.084593
0.0782547
0.0611852
0.0615928
0.0692814
0.0826706
0.0855398
0.0903408
0.101476
0.0983278
0.0910067
0.0889684
0.0872319
0.0856358
0.0855807
0.0960258
0.132467
0.183511
0.203242
0.177162
0.192565
0.589923
0.683225
0.39738
0.223103
0.154229
0.11532
0.0915586
0.0759273
0.073947
0.0783876
0.0506667
0.0294436
0.0371313
0.0398764
0.0848387
0.0992697
0.106724
0.107144
0.0984026
0.0948256
0.0954202
0.0944908
0.0928565
0.0944746
0.112063
0.158946
0.214243
0.241216
0.210036
0.162693
0.516675
0.475846
0.389266
0.253385
0.148708
0.098184
0.0756294
0.0645525
0.0659292
0.0753553
0.0534098
0.0275508
0.0317929
0.0425364
0.0838846
0.103285
0.10204
0.0994814
0.0918875
0.08899
0.0889934
0.0898937
0.0913863
0.0976793
0.125919
0.168854
0.189558
0.173608
0.156532
0.134241
0.490982
0.308613
0.174672
0.112118
0.082025
0.0651606
0.0554637
0.0522861
0.0596782
0.0751955
0.0518234
0.0255137
0.0298144
0.0398779
0.0823737
0.0909543
0.0967723
0.0914288
0.0851496
0.0826416
0.0833161
0.0859027
0.0894091
0.0977951
0.13373
0.163991
0.137998
0.122498
0.111556
0.101592
0.443598
0.220704
0.0900504
0.0757001
0.0666232
0.0587972
0.0527665
0.0519963
0.0595801
0.0772633
0.0374691
0.0218374
0.0251017
0.0301253
0.0806907
0.0866476
0.0868119
0.0825206
0.0793554
0.0783975
0.0800408
0.0839255
0.0887185
0.0954727
0.115021
0.175632
0.181524
0.157695
0.144351
0.133559
0.375834
0.173175
0.0767504
0.0738652
0.0699585
0.0640052
0.0570514
0.0535405
0.0572811
0.0753536
0.0711254
0.0621645
0.0608645
0.0635623
0.0872977
0.0878949
0.0843322
0.0809111
0.0786922
0.0782593
0.0800007
0.0837785
0.0889408
0.0955161
0.0942348
0.14887
0.185359
0.197601
0.180371
0.159874
0.34176
0.143467
0.075697
0.0778707
0.0766872
0.0717365
0.0642627
0.0582204
0.0569672
0.0700937
0.0791789
0.085994
0.0918719
0.089051
0.0866037
0.0821557
0.0772348
0.073322
0.0707775
0.0701645
0.072452
0.0777487
0.0851526
0.0938204
0.0874574
0.123321
0.154282
0.158454
0.170677
0.163163
0.316664
0.127351
0.0797036
0.0823144
0.0813613
0.0772053
0.0701636
0.0634609
0.0588193
0.0602533
0.0637793
0.06699
0.0777063
0.0778161
0.0759134
0.0724558
0.0686187
0.0651689
0.0626021
0.0615614
0.0631192
0.0680622
0.0761802
0.0864795
0.0969201
0.107614
0.125206
0.126647
0.127649
0.132505
0.295885
0.127499
0.0906833
0.0886414
0.0827954
0.0781682
0.0707118
0.0633104
0.0572324
0.053609
0.0535238
0.055854
0.0609243
0.0630452
0.0636796
0.0622708
0.059853
0.0573852
0.055665
0.0550824
0.0563487
0.060592
0.0685403
0.0801272
0.0934543
0.105499
0.116549
0.121194
0.122663
0.119639
0.278119
0.164893
0.119435
0.118982
0.107533
0.0888989
0.0707986
0.0596507
0.0497362
0.0427331
0.0417188
0.0493
0.0524747
0.0534489
0.0544958
0.0545891
0.0535339
0.0522072
0.0516321
0.0515878
0.0522212
0.055252
0.0626993
0.0758221
0.0939447
0.112442
0.125582
0.132012
0.133307
0.129831
0.262281
0.188914
0.16536
0.163752
0.156386
0.133729
0.101233
0.0729189
0.0466931
0.0301686
0.0272942
0.0410755
0.0474107
0.0474039
0.047803
0.0478714
0.0474899
0.0474331
0.048347
0.0494173
0.0495538
0.0509608
0.0572974
0.0702112
0.0895343
0.111035
0.126927
0.135842
0.13885
0.1372
0.248529
0.1992
0.171724
0.162292
0.172109
0.178947
0.164878
0.130735
0.083709
0.0454933
0.0318206
0.0386252
0.0428563
0.0439321
0.0438691
0.0432525
0.0425354
0.0420016
0.0418382
0.0421967
0.0431694
0.0452867
0.0508902
0.0625008
0.0803688
0.101643
0.1197
0.132251
0.139169
0.140595
0.252978
0.230297
0.207581
0.186234
0.167766
0.152437
0.140028
0.131687
0.116812
0.0864628
0.0646735
0.0544381
0.0490517
0.0458518
0.0436052
0.0418477
0.0404373
0.0393474
0.0385584
0.0381288
0.0384386
0.0401802
0.0445087
0.0545136
0.0720645
0.0952302
0.117096
0.133193
0.142935
0.146395
0.433475
0.356612
0.297495
0.251824
0.217737
0.190849
0.17717
0.184405
0.184788
0.138145
0.123992
0.127851
0.132163
0.140421
0.14666
0.185891
0.194583
0.135328
0.0981057
0.0874296
0.0854393
0.0870556
0.0909851
0.0970399
0.105556