/*--------------------------------*- C++ -*----------------------------------*\
| =========                 |                                                 |
| \\      /  F ield         | OpenFOAM: The Open Source CFD Toolbox           |
|  \\    /   O peration     | Version:  2512                                  |
|   \\  /    A nd           | Website:  www.openfoam.com                      |
|    \\/     M anipulation  |                                                 |
\*---------------------------------------------------------------------------*/
FoamFile
{
    version     2.0;
    format      ascii;
    arch        "LSB;label=32;scalar=64";
    class       volScalarField;
    location    "20";
    object      nut;
}
// * * * * * * * * * * * * * * * * * * * * * * * * * * * * * * * * * * * * * //

dimensions      [0 2 -1 0 0 0 0];

internalField   nonuniform List<scalar> 
84826
(
0.15656
0.0643241
0.0378
0.0291086
0.0281852
0.0327873
0.0218256
0.00569691
0.00514765
0.00445336
0.0039603
0.00399008
0.00425323
0.00456656
0.00483962
0.00523084
0.00554181
0.00574794
0.00599652
0.00628283
0.00657708
0.00630484
0.0063483
0.00641354
0.0065146
0.0066414
0.00672285
0.00676891
0.00669677
0.00688671
0.0373354
0.0365129
0.0288043
0.0159217
0.0105888
0.0139034
0.00826531
0.00697088
0.00609651
0.00514344
0.00456057
0.00453473
0.00489234
0.00539054
0.00541686
0.00609547
0.00674387
0.00733887
0.00806698
0.00854733
0.00866455
0.00877538
0.00978974
0.0100274
0.0101159
0.0103073
0.0105314
0.010683
0.0104308
0.0101402
0.035219
0.0454461
0.0283597
0.0180242
0.0124292
0.0104731
0.0104622
0.0102655
0.00908682
0.00732605
0.00585015
0.00527109
0.00540972
0.0062484
0.00604957
0.00684508
0.00773534
0.00865722
0.00969356
0.010119
0.0109173
0.0130689
0.0133903
0.0120976
0.0114278
0.0114406
0.0119507
0.0128613
0.0135989
0.0148875
0.0391809
0.0468921
0.042196
0.0294747
0.0187633
0.0143903
0.0134991
0.0144023
0.014528
0.0118969
0.0082738
0.00649976
0.00615416
0.00709173
0.0074066
0.00793725
0.00909589
0.0100119
0.0108269
0.0117371
0.0146442
0.017376
0.013347
0.0109923
0.0101313
0.0100229
0.0103883
0.0111878
0.0121596
0.0155399
0.0438604
0.0521159
0.0598779
0.0447923
0.02746
0.018572
0.0155662
0.0167871
0.0194451
0.0177029
0.0115369
0.00824671
0.00741327
0.00846986
0.0091132
0.00976481
0.0110175
0.0116749
0.0121972
0.0145743
0.0208516
0.0165804
0.0115581
0.00968692
0.00903928
0.00895477
0.00919974
0.00972376
0.0103045
0.0127267
0.0463312
0.0545918
0.0747036
0.0662355
0.0396831
0.0250182
0.0184867
0.0172422
0.0179216
0.0169632
0.0130008
0.00939528
0.00864331
0.0103215
0.0116226
0.0120724
0.0126603
0.0133727
0.0147449
0.0201917
0.022373
0.0142497
0.0104735
0.00911317
0.00870183
0.00873283
0.00902431
0.00954065
0.0100699
0.0123258
0.0427762
0.0486674
0.0664822
0.0619848
0.0493039
0.0345169
0.0243116
0.0188717
0.0145503
0.0122077
0.011027
0.00932913
0.00997731
0.011824
0.0128395
0.0141887
0.0143862
0.0158489
0.0194172
0.0260459
0.0193237
0.0130915
0.0104008
0.00936841
0.00916351
0.00938549
0.00987347
0.0106292
0.0114551
0.0148146
0.0351188
0.0385928
0.0455681
0.04065
0.0367725
0.0351046
0.0314386
0.0250492
0.0144993
0.00897375
0.00340058
0.0031854
0.00584539
0.00578763
0.0141252
0.0154347
0.0164426
0.020267
0.0274449
0.0259121
0.0179257
0.0137498
0.0118042
0.0110153
0.0109558
0.0114057
0.0122665
0.0135819
0.0150573
0.0201429
0.0263833
0.0295549
0.0292452
0.0286865
0.0285089
0.0273963
0.0251994
0.0242977
0.0326263
0.0377185
0.00433915
0.00321489
0.00940414
0.00856005
0.0158602
0.0140892
0.0177657
0.0251283
0.0273099
0.0217129
0.0177254
0.01564
0.0146289
0.0143247
0.0146047
0.0154061
0.0165998
0.0178613
0.0173611
0.0145914
0.0230168
0.0240371
0.0209653
0.0211651
0.0220879
0.0237833
0.0243465
0.025505
0.0292258
0.029532
0.00841042
0.00127704
0.00331856
0.00858194
0.0145559
0.0126983
0.0164757
0.0177442
0.0154835
0.0135041
0.0119948
0.0109089
0.0103084
0.00993346
0.00978801
0.00968035
0.00949093
0.00913167
0.00834752
0.00735786
0.0222959
0.0200951
0.0158196
0.0177996
0.0186234
0.0200773
0.0224696
0.0298
0.040017
0.0406107
0.0146181
0.000664466
0.00853556
0.0119972
0.0109318
0.0101205
0.0100619
0.00977249
0.00912873
0.00847137
0.00797301
0.0075266
0.00700841
0.00663732
0.006185
0.00586646
0.00571509
0.00552981
0.00560524
0.022567
0.0172534
0.0150208
0.0158734
0.0169862
0.0197407
0.0246183
0.0327091
0.0438496
0.0477136
0.0142373
0.0014237
0.00397703
0.00358019
0.0193503
0.0127447
0.00927097
0.0100501
0.00984694
0.00925093
0.0085891
0.00842494
0.00800601
0.00734432
0.0070027
0.00622351
0.00563844
0.00534133
0.00511472
0.00518574
0.0229473
0.0159941
0.0119236
0.0129035
0.0147986
0.0189571
0.0237374
0.0311103
0.0454551
0.0648611
0.00435785
0.00362945
0.0047427
0.00765674
0.0130427
0.00954576
0.00898243
0.00915505
0.00895222
0.00868933
0.00807373
0.00723664
0.006834
0.00644939
0.00639241
0.00554574
0.00527573
0.00493462
0.00471579
0.00479801
0.022073
0.0175882
0.00921356
0.00924133
0.00997337
0.0131347
0.0183432
0.0221161
0.0272849
0.0275723
0.00958769
0.00752999
0.00681636
0.00960989
0.0090796
0.00850916
0.0089412
0.00891012
0.00855721
0.00798481
0.00732856
0.00671415
0.00616598
0.00573157
0.00522492
0.00507134
0.00481453
0.00446383
0.0042558
0.004223
0.0205255
0.0261868
0.0157426
0.0115656
0.00963528
0.00905642
0.0109638
0.0134562
0.0155418
0.0142535
0.00741122
0.00711191
0.004674
0.00581423
0.00737046
0.0074571
0.00782975
0.00813569
0.0079826
0.00760994
0.00704385
0.00642704
0.00583567
0.00529904
0.00481525
0.00445864
0.00420683
0.0040351
0.00381178
0.00368836
0.0197354
0.0231565
0.0283839
0.0242103
0.0179282
0.0126839
0.00986209
0.00977144
0.0100592
0.0100486
0.00753333
0.00667997
0.00396311
0.00425798
0.0052679
0.00593328
0.00653045
0.00711617
0.00724464
0.00706818
0.00670662
0.00613126
0.00557806
0.00509617
0.00468749
0.004321
0.00399714
0.00375482
0.00354026
0.0034514
0.0338699
0.0368121
0.0353768
0.0331683
0.0322244
0.0272156
0.0169129
0.0103722
0.00875681
0.00937928
0.00862379
0.00862094
0.00371847
0.00328671
0.00360308
0.00417385
0.00508823
0.00568592
0.00617116
0.0063634
0.00607589
0.00564252
0.00517586
0.00476891
0.00440708
0.00407424
0.0037812
0.0035482
0.00335803
0.00328891
0.084408
0.0577655
0.0440323
0.0407612
0.0434848
0.0468396
0.042796
0.0257504
0.0139517
0.0114868
0.0105121
0.011858
0.00489857
0.00350962
0.0038652
0.00372215
0.0044058
0.00508224
0.00556235
0.00553345
0.00542574
0.0049777
0.00461973
0.00432547
0.00404232
0.00377046
0.00353116
0.00333865
0.00318571
0.00314133
0.0989523
0.069359
0.0511861
0.0454509
0.0478776
0.05591
0.0664446
0.060135
0.023703
0.0158826
0.0141292
0.0147091
0.012211
0.00763098
0.00740686
0.00616384
0.005901
0.00487563
0.00489255
0.00498315
0.00502176
0.00469403
0.00436119
0.00407004
0.00379986
0.00355587
0.00334702
0.00318518
0.00305975
0.00303928
0.0652723
0.0625843
0.0486114
0.0445917
0.0486765
0.0564776
0.0562855
0.0430713
0.025865
0.0182109
0.016383
0.0178423
0.0145779
0.00581461
0.00376196
0.00478717
0.00447761
0.00405773
0.00413629
0.00448507
0.00466214
0.00468808
0.00440548
0.00411923
0.00383899
0.0035986
0.00340266
0.00324756
0.00312735
0.00311436
0.233389
0.195222
0.188181
0.145072
0.137647
0.135354
0.139672
0.0493332
0.0238768
0.0232525
0.0240281
0.0228931
0.0223332
0.0235381
0.0474217
0.0515373
0.0531564
0.0514335
0.0503759
0.0544423
0.0447414
0.0295883
0.0224538
0.0192795
0.0179021
0.0175023
0.0175462
0.0178842
0.0180808
0.0207086
0.180662
0.113098
0.0861959
0.0953015
0.0748367
0.0647317
0.0663029
0.0394704
0.0406938
0.0478149
0.0343823
0.0257562
0.0210708
0.0233221
0.0495377
0.0475455
0.0451943
0.0470522
0.0545669
0.0680089
0.0520501
0.0322316
0.0244641
0.0219029
0.019711
0.0184956
0.0179147
0.0178185
0.0177829
0.0193923
0.150083
0.0965632
0.0681245
0.0743276
0.0657836
0.0515406
0.0486667
0.0611118
0.0863063
0.066726
0.0438749
0.0269303
0.017301
0.0155927
0.037471
0.0498867
0.0442112
0.0466948
0.0557844
0.0620001
0.039656
0.0282248
0.0263453
0.0242936
0.0207357
0.0190201
0.0181487
0.0176769
0.017464
0.0171689
0.139756
0.261355
0.129908
0.126097
0.129087
0.106306
0.0956139
0.0957437
0.0877817
0.0727756
0.0703394
0.0407293
0.0207068
0.0141722
0.0306538
0.0481146
0.0440532
0.0452993
0.0480281
0.0449618
0.0277035
0.025717
0.0281702
0.0228767
0.0191805
0.0173778
0.0165417
0.0162167
0.0162315
0.0162841
0.142203
0.305809
0.163412
0.166134
0.144786
0.105695
0.087498
0.0832759
0.0729809
0.0649666
0.0588368
0.050153
0.0236352
0.0150744
0.0326548
0.0401023
0.0390372
0.0395125
0.0402711
0.0314085
0.0242724
0.0259395
0.0286072
0.02145
0.0178564
0.0160645
0.0152798
0.0150834
0.0152893
0.0155996
0.140357
0.256302
0.264245
0.224616
0.166886
0.110487
0.07677
0.0619994
0.0662853
0.0620122
0.0541217
0.0476893
0.0193315
0.013977
0.033029
0.0362727
0.0326319
0.0356887
0.0351379
0.0250989
0.0251765
0.0284843
0.0278394
0.0210434
0.0172887
0.0154051
0.0145939
0.0144589
0.0147999
0.0152402
0.135536
0.200789
0.280055
0.269921
0.190086
0.123101
0.080279
0.0526211
0.0447716
0.0526798
0.0609712
0.0345672
0.0125923
0.0119127
0.0338593
0.0336908
0.034334
0.0384484
0.030772
0.0248344
0.0271474
0.0326808
0.0290248
0.0226626
0.0184376
0.0162879
0.0153837
0.0153565
0.0160577
0.0169891
0.128126
0.17467
0.2353
0.263998
0.210118
0.135023
0.0935913
0.0630585
0.0427588
0.0469684
0.0396692
0.0238282
0.00929743
0.0131335
0.0376218
0.0388779
0.0473472
0.0394813
0.0282936
0.0284213
0.0313713
0.0347875
0.0327567
0.0269409
0.0227816
0.0202122
0.0192162
0.0194023
0.0207058
0.0214114
0.112668
0.16178
0.206987
0.211965
0.181041
0.144968
0.108828
0.11015
0.0902275
0.0901654
0.0368976
0.0225189
0.00738138
0.0112206
0.0280724
0.0333617
0.0463477
0.0350792
0.0322256
0.0325897
0.0307752
0.0286903
0.0272415
0.0263839
0.0258047
0.0254147
0.0249796
0.0236188
0.0217503
0.0207185
0.10229
0.109737
0.143886
0.129498
0.104222
0.0735395
0.0567458
0.0496948
0.0457354
0.0404147
0.0308521
0.00103548
0.000650944
0.00674682
0.0261361
0.026917
0.0368091
0.0439311
0.0434903
0.0361439
0.031958
0.0292174
0.0269357
0.0251197
0.0237244
0.0227306
0.0221803
0.0222404
0.023055
0.0317132
0.0984425
0.0631599
0.119991
0.117869
0.10838
0.0870977
0.0672527
0.0681552
0.0844285
0.0680476
0.0400715
0.00479864
0.0239259
0.030938
0.0280501
0.0275065
0.0259828
0.0260094
0.0264165
0.0270433
0.0284327
0.0296793
0.0314713
0.0326937
0.0323117
0.0300856
0.0267583
0.0251916
0.0931487
0.0538431
0.0996402
0.107319
0.103541
0.0934002
0.0902891
0.106374
0.092727
0.0386811
0.019379
0.00211213
0.00208931
0.00694349
0.0369509
0.0254764
0.0391009
0.0368784
0.0331896
0.029156
0.0250915
0.0238582
0.0248653
0.0236934
0.0246249
0.0263871
0.0270572
0.0268627
0.025674
0.0260924
0.0902054
0.0500561
0.0980853
0.105302
0.098945
0.0979726
0.10421
0.103169
0.0737529
0.0382409
0.0498057
0.030831
0.02361
0.0155086
0.0257839
0.0278658
0.0325404
0.0334607
0.0328084
0.0315766
0.028203
0.0251717
0.0237981
0.0201286
0.0190886
0.0208923
0.0238368
0.0231027
0.0220183
0.0235781
0.0985102
0.0461788
0.0633486
0.106032
0.0808575
0.0886129
0.103502
0.0962894
0.0586274
0.0168298
0.00798663
0.0324247
0.0366824
0.0271712
0.0271411
0.0284217
0.0298494
0.030023
0.0308438
0.0310075
0.0295181
0.0280713
0.0259398
0.0239606
0.0213002
0.0208889
0.0198899
0.0190078
0.0199865
0.022747
0.107551
0.0584921
0.0495768
0.0630002
0.0644577
0.0734583
0.093911
0.0798514
0.0414531
0.0134947
0.00596818
0.0322115
0.0279122
0.0325924
0.028203
0.0292048
0.0274378
0.0276437
0.0296778
0.0305223
0.0302934
0.0285097
0.0258917
0.0234611
0.021332
0.0200389
0.0199704
0.0208073
0.021505
0.0240512
0.104977
0.11354
0.0705672
0.0674754
0.0693385
0.0659832
0.0724871
0.0742773
0.027894
0.0141126
0.00596245
0.0367425
0.0220626
0.0368513
0.0305696
0.0287274
0.0264132
0.0276216
0.0286278
0.0303754
0.0301246
0.028045
0.0257294
0.0237999
0.0223207
0.0213799
0.0210989
0.0214265
0.0217223
0.0239171
0.118731
0.132697
0.181982
0.124359
0.100548
0.0883551
0.0694957
0.0715459
0.0459361
0.0171151
0.00706784
0.0263123
0.0226805
0.0299631
0.0345728
0.0335782
0.0272909
0.0270061
0.0279393
0.028346
0.0289849
0.0277084
0.025654
0.023863
0.0225618
0.0217114
0.0212905
0.0213548
0.0214294
0.0233276
0.143837
0.165098
0.21081
0.195347
0.17429
0.146436
0.120383
0.0746256
0.0660512
0.0296974
0.00989071
0.0200446
0.0228484
0.0274248
0.0295308
0.0328723
0.0229071
0.023587
0.0280692
0.0291717
0.0279741
0.026818
0.0258522
0.0243568
0.0229179
0.0218465
0.0211939
0.0209851
0.0208271
0.0223936
0.17344
0.176354
0.209098
0.198453
0.175157
0.147129
0.130583
0.106633
0.0863224
0.0517549
0.0218777
0.0326217
0.0292564
0.0241801
0.030363
0.0386435
0.0251409
0.0224081
0.0316851
0.0348247
0.0329438
0.0302698
0.0279982
0.0258915
0.0238598
0.0222028
0.0210985
0.0205492
0.0200813
0.0213589
0.161422
0.223202
0.213169
0.180858
0.136772
0.12289
0.11264
0.100211
0.103817
0.0595765
0.0473703
0.0470947
0.0537679
0.0283735
0.0451243
0.0361851
0.0247692
0.0256435
0.0355132
0.0375612
0.0357907
0.0364439
0.031138
0.0255083
0.022784
0.0209462
0.019759
0.0191561
0.0186788
0.0197072
0.516684
0.389776
0.314624
0.283054
0.266067
0.242108
0.230267
0.248427
0.107543
0.0724199
0.0656192
0.0628818
0.059092
0.0512026
0.0533222
0.0595338
0.0703464
0.0763959
0.0677037
0.0598732
0.0623449
0.0557131
0.032556
0.0295449
0.0274034
0.026004
0.0250136
0.0242552
0.023778
0.0232066
0.400577
0.256385
0.264306
0.276904
0.27755
0.258162
0.230858
0.197761
0.130771
0.0857727
0.0709891
0.0562977
0.0465159
0.0484281
0.0628444
0.0620348
0.0584082
0.0572274
0.0573513
0.0585402
0.0670624
0.0726281
0.0491457
0.0295807
0.0238313
0.0211701
0.0198128
0.0190451
0.0186228
0.0181491
0.367706
0.220307
0.175352
0.154437
0.145687
0.135079
0.126178
0.128783
0.134996
0.12856
0.108662
0.0830933
0.0566727
0.0462806
0.061218
0.0635435
0.0571827
0.0513323
0.0506109
0.0553942
0.0678094
0.0684419
0.0433442
0.0328422
0.0236291
0.0194171
0.0173888
0.0164227
0.016051
0.015853
0.362208
0.261169
0.165011
0.145361
0.131929
0.128037
0.136771
0.149513
0.154967
0.14793
0.114904
0.105705
0.0929942
0.0709946
0.0554146
0.0582696
0.0566491
0.0500025
0.0464265
0.0505463
0.0700742
0.0461628
0.0416636
0.0332827
0.0236874
0.0188761
0.0163885
0.0151614
0.0146791
0.0145245
0.386623
0.264905
0.176628
0.124459
0.112518
0.10246
0.0976622
0.101145
0.112669
0.13633
0.103883
0.0913424
0.0840749
0.0711798
0.0527647
0.0533352
0.0529942
0.0499111
0.0448422
0.0480033
0.0715162
0.0383526
0.0436643
0.032984
0.0237795
0.0185254
0.0155463
0.0139419
0.0132069
0.0129455
0.394368
0.309998
0.160755
0.114516
0.0991338
0.0835657
0.0687342
0.0591527
0.0564499
0.0675699
0.101239
0.0836891
0.0758449
0.0636106
0.0522789
0.0511675
0.0464023
0.050511
0.04243
0.0559717
0.051558
0.038628
0.0449015
0.0344599
0.0254344
0.0195208
0.0159801
0.0140919
0.0133552
0.0133601
0.393885
0.297481
0.161979
0.106212
0.0897199
0.0722175
0.0554643
0.0447146
0.0370947
0.0367003
0.0826939
0.090002
0.0761432
0.0631487
0.0583954
0.0542554
0.0472204
0.0517458
0.0460825
0.0683692
0.0414448
0.0420008
0.0485358
0.0387043
0.0301773
0.0234396
0.0193302
0.0173167
0.0169459
0.0177302
0.380242
0.245569
0.147947
0.103878
0.0871001
0.0699034
0.0535701
0.0458007
0.0399902
0.0282972
0.0642122
0.0594887
0.057658
0.0660987
0.0574073
0.063017
0.0565357
0.0597057
0.071727
0.0546133
0.042604
0.0426836
0.0461703
0.045371
0.0371473
0.0304409
0.0257726
0.0233636
0.0230411
0.0242141
0.336418
0.205634
0.124937
0.110758
0.092737
0.0732914
0.0553096
0.05034
0.0526104
0.0292448
0.04423
0.0165136
0.0291337
0.00750679
0.0229001
0.0354362
0.0509724
0.0648343
0.0762415
0.0533398
0.0472239
0.0459215
0.0447956
0.0442526
0.0444186
0.0388436
0.0346086
0.0312657
0.0300278
0.0305318
0.289491
0.186451
0.13062
0.12772
0.107523
0.0786911
0.0549055
0.0485965
0.0478306
0.0423623
0.0354484
0.0018571
0.00283127
0.00637515
0.0151754
0.019384
0.0358687
0.0517722
0.0511607
0.0463791
0.0474978
0.0495864
0.0509117
0.050288
0.0478138
0.0440824
0.040358
0.0379888
0.0370757
0.0364118
0.269748
0.161737
0.148364
0.154394
0.140841
0.103585
0.0555634
0.0356662
0.0315763
0.0284617
0.0219859
0.0293997
0.0144209
0.0195858
0.0314796
0.0430223
0.0396788
0.0346866
0.0330717
0.0321318
0.0313079
0.0305811
0.0305575
0.0310164
0.0318874
0.033246
0.0352456
0.0407769
0.258125
0.160326
0.158738
0.178169
0.180912
0.149042
0.109833
0.094127
0.107603
0.0297859
0.0133642
0.00518048
0.00455153
0.0081202
0.0384841
0.0493216
0.0512818
0.0495504
0.0436988
0.0399274
0.0379763
0.0363402
0.0343198
0.0321331
0.0306472
0.0301413
0.0302503
0.0311225
0.0322696
0.0353023
0.252417
0.163212
0.165001
0.189656
0.202786
0.16695
0.148685
0.145336
0.120578
0.0265093
0.0082691
0.0314543
0.0462113
0.0219288
0.0391426
0.0425169
0.046735
0.0514706
0.0534794
0.0503105
0.044863
0.040621
0.0361325
0.0318745
0.02818
0.0263039
0.025938
0.0270149
0.0285361
0.032968
0.256027
0.168485
0.177071
0.195732
0.198845
0.164747
0.146598
0.152757
0.114978
0.0209427
0.00618155
0.0523284
0.0754941
0.0564911
0.0444305
0.0425384
0.0435143
0.0444939
0.0455792
0.0459328
0.0442076
0.0410101
0.0371203
0.0334618
0.0299742
0.0274024
0.0265897
0.027391
0.0283034
0.0320185
0.255111
0.176711
0.193569
0.206312
0.204544
0.163894
0.141056
0.158193
0.109695
0.0240193
0.00502465
0.0432607
0.0663982
0.0629538
0.053288
0.0426351
0.0410578
0.0399766
0.0403187
0.0421288
0.0429656
0.0413489
0.038179
0.0348567
0.0319176
0.0296435
0.0285245
0.0287548
0.0289853
0.0319112
0.268358
0.213634
0.196307
0.215551
0.210994
0.179958
0.150883
0.151305
0.108013
0.029734
0.00620515
0.0369485
0.0533548
0.06408
0.0508855
0.0416415
0.0390015
0.0369491
0.0359042
0.0372
0.0387419
0.0388929
0.0372143
0.034606
0.0320154
0.0300615
0.0289831
0.0288614
0.0287549
0.0311648
0.284324
0.234057
0.22991
0.228354
0.206985
0.185201
0.164892
0.132215
0.0853457
0.0329863
0.0113938
0.0427052
0.0486775
0.0513726
0.0500135
0.0426281
0.0382079
0.0339899
0.032107
0.0319301
0.0327573
0.0338608
0.0342146
0.0333615
0.0317278
0.0300942
0.0289448
0.0285449
0.0281101
0.0300452
0.290365
0.258311
0.237982
0.216627
0.195374
0.176702
0.158023
0.135735
0.102677
0.051107
0.0178255
0.0307517
0.0395768
0.0439328
0.0468841
0.0473482
0.0404346
0.0340661
0.0328873
0.0310819
0.0301845
0.030262
0.0306019
0.0304951
0.029846
0.0288758
0.0279765
0.0275359
0.0269773
0.0286068
0.269687
0.272632
0.245056
0.221426
0.200356
0.183594
0.164255
0.141098
0.116736
0.0649484
0.032927
0.0356788
0.041352
0.0469449
0.047572
0.0488799
0.0486704
0.0443239
0.0381337
0.0365806
0.0334788
0.031716
0.0310159
0.0304494
0.029532
0.0283834
0.0272728
0.0265754
0.0257482
0.0271211
0.188282
0.21889
0.243879
0.219982
0.203823
0.176023
0.167498
0.141213
0.112979
0.0776542
0.0543756
0.0554752
0.0552883
0.0564509
0.0527466
0.0541978
0.0521644
0.052713
0.0458161
0.0385666
0.0368479
0.0350893
0.0336562
0.0324261
0.0302566
0.0280005
0.0262987
0.0253294
0.0244771
0.0259317
0.503146
0.387755
0.323332
0.297851
0.282028
0.255063
0.22952
0.228273
0.258225
0.188025
0.134372
0.118159
0.106701
0.0924721
0.0830892
0.0818118
0.0860061
0.095904
0.108024
0.100167
0.0868721
0.089183
0.0611606
0.0299924
0.0276593
0.0264244
0.0254358
0.0246691
0.0242545
0.0238456
0.41767
0.262435
0.311967
0.344172
0.359196
0.337
0.29063
0.256259
0.240402
0.177195
0.135898
0.12312
0.11011
0.103696
0.104337
0.0952883
0.0874811
0.0816167
0.08081
0.0801948
0.0772806
0.0855669
0.0817166
0.0431125
0.0270558
0.0236119
0.0216393
0.0204922
0.019906
0.019498
0.397398
0.21931
0.206502
0.195435
0.18732
0.180945
0.187827
0.200928
0.195841
0.169293
0.157399
0.149031
0.13966
0.123484
0.111999
0.101217
0.0904531
0.080249
0.0720678
0.0659663
0.067234
0.0797291
0.0794833
0.0538787
0.0314087
0.0247419
0.0211955
0.0194434
0.0187671
0.0186546
0.402989
0.254301
0.202405
0.18597
0.179005
0.174469
0.177213
0.1845
0.182639
0.169864
0.152045
0.14454
0.140064
0.120684
0.101084
0.0934922
0.0844355
0.0811896
0.0701435
0.0592448
0.0610658
0.0897642
0.0723053
0.0518296
0.0349159
0.0264705
0.0220637
0.0198436
0.0189274
0.0186417
0.407611
0.294519
0.185336
0.163146
0.155461
0.14492
0.134011
0.125692
0.121594
0.136847
0.150136
0.135479
0.127646
0.101709
0.0918933
0.0826796
0.080077
0.0824292
0.0697535
0.0550116
0.0611628
0.0802637
0.064242
0.0493164
0.0366478
0.0278472
0.0225819
0.019493
0.0177219
0.0166198
0.41193
0.320393
0.171622
0.148183
0.137018
0.121104
0.0978594
0.0765279
0.0608871
0.0576846
0.111535
0.118258
0.115993
0.0948628
0.0867134
0.079124
0.0789209
0.0810643
0.069421
0.0538712
0.0691559
0.0702756
0.0591752
0.0488143
0.0390613
0.0295943
0.022971
0.0187204
0.0160843
0.0145142
0.413624
0.326056
0.155772
0.133709
0.120926
0.103974
0.0786989
0.0563365
0.0380608
0.0269331
0.0706732
0.0977359
0.101438
0.0890557
0.0893179
0.0878995
0.0841174
0.0786624
0.0726229
0.0538216
0.076858
0.0671127
0.059875
0.0520619
0.0432394
0.0337862
0.0258824
0.0209221
0.018218
0.0170832
0.401172
0.289565
0.145019
0.13017
0.116615
0.100721
0.0781736
0.0622183
0.0409637
0.0228325
0.0396851
0.0525904
0.0730482
0.0461715
0.0572344
0.0704912
0.0745492
0.0753108
0.0703833
0.0552169
0.0741186
0.0730721
0.0638594
0.0585032
0.050088
0.0416625
0.0331356
0.0277059
0.0249898
0.0242673
0.368352
0.227253
0.146618
0.138217
0.124712
0.113152
0.0986425
0.0899953
0.0527466
0.0269549
0.0246164
0.019798
0.0346247
0.00554466
0.0194671
0.0363877
0.0519874
0.0649638
0.0711557
0.0604152
0.0610638
0.0641616
0.0688486
0.06569
0.0575
0.0503741
0.0444991
0.0390338
0.0348554
0.0329102
0.345555
0.192497
0.161024
0.154947
0.140261
0.132905
0.130931
0.117199
0.0634166
0.0268136
0.031655
0.00457404
0.0184658
0.00300816
0.00748101
0.014826
0.0292308
0.0460458
0.0609188
0.0604634
0.0539425
0.0536663
0.0574851
0.0628333
0.0660236
0.0595683
0.0547074
0.0508428
0.0473284
0.0436559
0.324754
0.184551
0.177816
0.176271
0.156707
0.146548
0.151651
0.152121
0.0809104
0.023331
0.0321613
0.00721973
0.0112233
0.00610706
0.00899364
0.0137196
0.0287821
0.0443217
0.0547891
0.0613812
0.0557719
0.0519404
0.0515751
0.053811
0.0587934
0.0646689
0.0601959
0.0561982
0.0530473
0.0504883
0.305219
0.190988
0.189047
0.198556
0.17258
0.15366
0.143747
0.135584
0.122997
0.0171451
0.00688002
0.0112924
0.00329939
0.0165859
0.0689013
0.0675666
0.0656586
0.063609
0.0621378
0.0615042
0.0616381
0.0556361
0.0511642
0.0486206
0.0473495
0.0467046
0.0463988
0.0468188
0.0475869
0.0500349
0.290616
0.202828
0.204482
0.221473
0.188905
0.162652
0.148215
0.137455
0.128617
0.113856
0.0357393
0.0141023
0.0392185
0.0274358
0.0684774
0.0675018
0.0678986
0.064826
0.0622547
0.0605213
0.0593868
0.0541013
0.0495291
0.0459399
0.0432273
0.0412145
0.0399882
0.039977
0.0398589
0.0429253
0.283684
0.216116
0.226015
0.24219
0.20397
0.17197
0.153797
0.141104
0.129362
0.109794
0.0639817
0.0675571
0.0760458
0.0716622
0.0675532
0.0663559
0.0679838
0.0646329
0.0617898
0.0595132
0.0578176
0.0539871
0.0496413
0.0459663
0.0429303
0.0404222
0.0390294
0.039229
0.0392726
0.0426587
0.28554
0.246401
0.248116
0.254105
0.212721
0.179673
0.159286
0.143818
0.124206
0.0958221
0.0619665
0.0627511
0.0714116
0.0738227
0.0722662
0.069563
0.0667303
0.0629433
0.0598272
0.0587573
0.0568013
0.0552944
0.051516
0.0470537
0.0431274
0.0401683
0.038451
0.0381437
0.0376532
0.0403396
0.297452
0.255175
0.26017
0.246984
0.211268
0.182365
0.162201
0.14211
0.113389
0.0746513
0.0241306
0.0403858
0.0562552
0.0636611
0.0648279
0.0641365
0.0633021
0.0571117
0.0516035
0.0508342
0.0520536
0.0525149
0.0507139
0.0472373
0.0433939
0.0402153
0.0381005
0.0373464
0.0364582
0.0385187
0.314237
0.266098
0.258178
0.232497
0.203868
0.182331
0.16426
0.13588
0.0979187
0.0571364
0.0249234
0.0369726
0.0462427
0.0554442
0.0583255
0.0584811
0.0596711
0.0502301
0.0426188
0.0406715
0.0412786
0.0428285
0.0439369
0.0435153
0.0416589
0.0393236
0.037293
0.0362462
0.0351173
0.0368251
0.327544
0.280766
0.260523
0.233042
0.20897
0.192342
0.174961
0.14136
0.104537
0.0582902
0.0302106
0.0365249
0.0442395
0.0520324
0.0572669
0.0573123
0.0596387
0.0476254
0.040252
0.0374391
0.0362264
0.0362416
0.0368662
0.0373311
0.0370914
0.0362421
0.0351141
0.0343187
0.0332569
0.0349236
0.325094
0.288826
0.266321
0.242803
0.223692
0.212371
0.195038
0.153334
0.117659
0.0716367
0.0441877
0.0455346
0.0513679
0.058266
0.0640554
0.0637635
0.0645308
0.0498872
0.0431715
0.0399168
0.0371275
0.0356914
0.0350549
0.0346346
0.0340309
0.0331566
0.0322588
0.0316133
0.0306619
0.0322801
0.22485
0.289752
0.258783
0.234914
0.184906
0.191423
0.18976
0.14464
0.110201
0.0797174
0.0607138
0.059934
0.0624504
0.0691415
0.0732229
0.0720444
0.0683936
0.066474
0.0454194
0.0417642
0.0392569
0.0370255
0.0355599
0.0341944
0.0326915
0.0312283
0.0301327
0.0296025
0.0289663
0.0308746
0.478735
0.371707
0.316238
0.296619
0.279477
0.25354
0.225899
0.209082
0.217641
0.242664
0.255469
0.191856
0.143467
0.122849
0.115708
0.110469
0.107199
0.104525
0.0996974
0.100636
0.116834
0.122739
0.114748
0.0665188
0.0323068
0.0285116
0.0271441
0.0264108
0.0262459
0.0262155
0.414391
0.267207
0.335948
0.395852
0.425426
0.394649
0.333762
0.266486
0.25161
0.243324
0.212413
0.173309
0.139701
0.125129
0.120693
0.115504
0.109279
0.101191
0.0957467
0.0977328
0.107334
0.10203
0.108807
0.0847787
0.0427234
0.027955
0.024647
0.0230858
0.02232
0.0219043
0.39469
0.232906
0.250193
0.233074
0.218425
0.211436
0.219845
0.231356
0.227321
0.209428
0.17531
0.153278
0.139165
0.131689
0.116875
0.107912
0.0998763
0.0934601
0.0908203
0.0927118
0.0913166
0.0844224
0.0944497
0.0853924
0.0553581
0.0312188
0.0258384
0.0232269
0.0220167
0.021724
0.39631
0.252713
0.232711
0.223574
0.213443
0.202059
0.202857
0.20788
0.202656
0.183376
0.153308
0.136001
0.131415
0.127319
0.113439
0.104292
0.0970237
0.0908549
0.0880912
0.0899745
0.0783839
0.0739095
0.0940169
0.0790007
0.0537537
0.0347165
0.0281915
0.0252922
0.0242224
0.0244053
0.398979
0.296387
0.216814
0.212355
0.202117
0.186153
0.169404
0.153667
0.139539
0.134274
0.14304
0.13103
0.12632
0.119571
0.110556
0.102794
0.0958006
0.0890919
0.0857944
0.0864785
0.0693199
0.0717006
0.0899746
0.0698949
0.050393
0.0375779
0.0315017
0.0287472
0.0275866
0.0272328
0.403155
0.31113
0.192304
0.18814
0.175804
0.157694
0.130287
0.102465
0.0786405
0.0597693
0.100598
0.115795
0.118377
0.111239
0.105381
0.0996732
0.0935931
0.0869991
0.0839785
0.0813971
0.0663371
0.0732224
0.0792677
0.062856
0.0502336
0.0428993
0.0371545
0.0329646
0.0298395
0.0274002
0.406399
0.299852
0.173106
0.166649
0.150934
0.132811
0.102041
0.0688698
0.0423448
0.0263449
0.0578224
0.0907392
0.104591
0.0930156
0.0961999
0.0953721
0.0907098
0.0850133
0.0826369
0.0838062
0.0655773
0.0738642
0.0744575
0.0627952
0.0562547
0.0516366
0.0445477
0.0370426
0.0308834
0.0263402
0.397497
0.262231
0.163779
0.156784
0.1386
0.119998
0.0864825
0.0512183
0.027644
0.0154572
0.0294629
0.0918631
0.11021
0.0540292
0.0741252
0.0851671
0.0868097
0.084031
0.0827673
0.0855522
0.0661921
0.0724068
0.0787395
0.0699501
0.0648888
0.0596662
0.0526469
0.0435764
0.0355328
0.0298636
0.370164
0.227536
0.164733
0.157393
0.138409
0.12281
0.0947135
0.0618625
0.0367495
0.0147855
0.0174661
0.0502727
0.0492343
0.00756577
0.0297783
0.0543272
0.0716696
0.0778742
0.0808796
0.0848866
0.0753128
0.0714736
0.0788561
0.079787
0.0713379
0.065172
0.0603753
0.0554872
0.049815
0.0436515
0.347481
0.210437
0.177425
0.167558
0.146314
0.134915
0.122995
0.0988308
0.0550881
0.0143335
0.0236698
0.0473003
0.035964
0.00265592
0.00871312
0.0218544
0.0437067
0.0598538
0.0686193
0.0750639
0.0811432
0.0748894
0.0692588
0.0716723
0.0786634
0.0707717
0.0647529
0.0608902
0.0583424
0.0556613
0.327416
0.208814
0.194758
0.183624
0.156846
0.143433
0.140681
0.146553
0.114743
0.0150386
0.0139657
0.0343292
0.039281
0.00482168
0.0135879
0.0264441
0.0455412
0.0585818
0.0646661
0.0679265
0.0708055
0.0736106
0.069558
0.0660003
0.0663243
0.070107
0.0693237
0.0642755
0.0601561
0.0570362
0.310728
0.218313
0.212676
0.200969
0.167532
0.149747
0.142189
0.137146
0.13559
0.0284703
0.0107062
0.0159928
0.0359047
0.024995
0.0769968
0.0743818
0.0721653
0.0699788
0.068139
0.0671329
0.0669643
0.0672518
0.0677488
0.0623959
0.0589179
0.0567061
0.0556586
0.0558519
0.0553052
0.0612592
0.299754
0.231884
0.233922
0.217426
0.177775
0.15677
0.145726
0.138362
0.134001
0.1322
0.00768496
0.01671
0.0456828
0.0603487
0.0786625
0.0776958
0.0737514
0.0700236
0.0671414
0.0652125
0.0640911
0.0634384
0.0629696
0.0623146
0.0582193
0.0550239
0.052521
0.0511363
0.0489662
0.0508065
0.295363
0.245733
0.254921
0.228674
0.187071
0.164401
0.151639
0.143718
0.137251
0.133285
0.0291396
0.0618712
0.0840349
0.0717552
0.0847829
0.0800677
0.0748028
0.0702455
0.0666956
0.0641154
0.0623383
0.0611296
0.060231
0.0595755
0.0576491
0.0543556
0.0519061
0.0508399
0.0489568
0.0502246
0.299551
0.265234
0.261484
0.231069
0.194505
0.172462
0.159696
0.150044
0.136254
0.122486
0.114278
0.109589
0.101864
0.0940457
0.0868468
0.0805803
0.07499
0.0702461
0.0664024
0.0634191
0.0611668
0.0595525
0.0584514
0.0576827
0.056235
0.0522735
0.049486
0.0481173
0.0462139
0.0476362
0.3091
0.270918
0.257676
0.227907
0.199869
0.181814
0.170245
0.154515
0.123359
0.0948732
0.0818289
0.0888373
0.0915935
0.088561
0.0831619
0.0782247
0.0737502
0.0695442
0.0657181
0.0624494
0.0597233
0.0576339
0.0561833
0.0552933
0.054763
0.0520322
0.0483833
0.046387
0.0440771
0.0450235
0.319489
0.279976
0.261601
0.23447
0.211013
0.196797
0.185678
0.153888
0.104505
0.0672231
0.0502882
0.0654915
0.079811
0.0829909
0.079535
0.0761762
0.0736366
0.0620738
0.052732
0.0499902
0.0507185
0.0531994
0.0548734
0.0534463
0.052655
0.0503233
0.0469475
0.0447451
0.0422724
0.0431266
0.325476
0.290939
0.276074
0.25041
0.229141
0.218648
0.206228
0.152397
0.106136
0.0632874
0.0454836
0.0582604
0.0744815
0.0832694
0.0820479
0.0795483
0.071687
0.0533454
0.0464315
0.0433029
0.0423377
0.0429647
0.0444899
0.0459466
0.0463683
0.0454641
0.0437746
0.0423094
0.0402839
0.0415232
0.315847
0.292242
0.277142
0.254997
0.239134
0.235535
0.216919
0.150656
0.11453
0.0768229
0.056361
0.0655619
0.0786385
0.0880438
0.0920546
0.0818769
0.0642407
0.0512982
0.0453602
0.0416778
0.0398419
0.0393778
0.039807
0.0404494
0.0406581
0.0401256
0.0390671
0.0381126
0.0366496
0.0381413
0.225465
0.280453
0.251739
0.20563
0.160912
0.213504
0.192205
0.13798
0.106459
0.0821076
0.0675713
0.0766285
0.0909277
0.0958201
0.109951