/*--------------------------------*- C++ -*----------------------------------*\
| =========                 |                                                 |
| \\      /  F ield         | OpenFOAM: The Open Source CFD Toolbox           |
|  \\    /   O peration     | Version:  2512                                  |
|   \\  /    A nd           | Website:  www.openfoam.com                      |
|    \\/     M anipulation  |                                                 |
\*---------------------------------------------------------------------------*/
FoamFile
{
    version     2.0;
    format      ascii;
    arch        "LSB;label=32;scalar=64";
    class       volScalarField;
    location    "20";
    object      omega;
}
// * * * * * * * * * * * * * * * * * * * * * * * * * * * * * * * * * * * * * //

dimensions      [0 0 -1 0 0 0 0];

internalField   nonuniform List<scalar> 
84826
(
411.875
323.949
288.643
254.992
230.885
210.771
87.3447
77.44
71.2602
65.347
60.603
57.2269
54.7717
52.7592
51.0933
50.3919
49.2143
47.8126
46.5305
45.2192
43.8214
41.8477
39.1186
36.2897
33.8582
31.773
29.9842
28.4436
27.1407
26.0118
254.526
257.099
234.975
174.516
133.953
130.353
95.1464
89.3907
80.2637
72.084
65.3253
60.7773
57.9421
55.4236
52.324
52.135
51.9474
51.7786
51.6996
50.5736
47.091
43.8496
41.4201
38.9515
36.4579
34.0647
31.8772
29.9479
28.3136
26.9302
283.054
289.666
245.005
188.227
152.183
131.785
117.089
104.298
92.5308
81.7044
71.2897
64.424
61.2827
58.8267
52.1572
52.7292
53.4778
54.2398
54.4678
52.6422
49.8
47.2647
45.0439
42.4976
39.7619
37.0122
34.4015
32.0399
30.0128
28.3081
307.801
320.218
292.955
238.725
186.994
153.944
133.668
119.727
108.658
94.5391
79.2466
69.0891
64.8707
62.654
51.4661
53.9396
54.7835
55.7443
56.0761
55.3546
53.4364
51.5509
49.2928
46.5734
43.5909
40.5257
37.5269
34.7196
32.2307
30.1065
333.677
356.419
343.812
291.093
227.666
177.887
146.891
127.599
118.077
104.847
86.476
73.9398
68.9389
67.2275
55.6927
58.8197
57.5639
58.1549
59.0315
59.7481
58.1767
56.2518
53.7854
50.8611
47.6788
44.3989
41.1466
38.0212
35.1255
32.5198
358.007
389.325
390.381
342.975
271.568
206.092
162.275
130.251
115.629
103.57
89.461
77.7169
73.2631
73.7835
64.6203
66.9044
62.6271
62.1776
64.1905
65.2167
63.2564
60.8071
58.0594
54.9612
51.6437
48.2325
44.8357
41.5377
38.4109
35.469
371.027
400.814
409.026
380.711
317.987
246.543
188.046
136.632
106.972
96.3609
86.9118
79.2948
77.3984
83.4249
79.6354
74.9069
68.5614
68.3154
71.2763
70.7379
67.8734
64.669
61.5352
58.3385
54.9796
51.5014
47.9921
44.5375
41.2175
38.0528
357.638
376.893
382.726
370.452
333.623
286.471
233.844
165.949
111.433
95.4859
153.763
140.926
159.683
192.527
94.2823
80.4888
74.6931
76.4717
77.7885
75.179
71.2888
67.3459
63.675
60.258
56.9356
53.4758
49.872
46.2019
42.5689
39.0287
313.753
322.138
322.082
319.429
312.122
292.146
266.016
231.683
203.359
220.99
174.29
164.377
204.948
248.417
106.087
83.9686
82.2323
82.1775
79.7588
75.745
71.3243
67.0901
63.2192
59.6846
56.3576
53.0178
49.4634
45.6662
41.7508
37.8606
272.066
260.341
262.726
261.324
258.487
258.886
265.046
272.915
283.854
295.808
395.623
353.379
514.365
718
110.589
84.0373
77.4386
73.9443
70.2477
66.2762
62.413
58.9918
55.9768
53.1616
50.4969
47.7178
44.7112
41.6201
38.4663
35.1315
233.63
186.149
178.854
176.339
169.958
166.104
170.186
190.981
210.065
239.322
386.935
363.697
908.47
89.2313
64.3351
56.7877
53.7293
51.2356
49.1964
47.7641
46.5432
45.1147
43.0042
40.8711
38.9727
37.1244
35.2403
33.3986
31.5513
206.767
168.43
167.201
163.979
162.593
161.391
159.774
159.096
159.877
191.612
366.946
404.02
443.597
542.378
80.5817
57.8937
48.6424
45.4721
43.5895
42.4497
42.1215
42.3267
42.3181
40.6581
38.6536
36.7538
35.1345
33.571
31.9964
30.3334
188.21
155.475
155.109
152.471
153.174
156.9
155.437
147.57
144.308
159.347
222.498
136.705
176.33
195.388
68.4721
54.2495
47.5915
43.3365
40.223
38.3034
37.5857
37.7962
38.0646
38.6888
38.329
37.8291
36.0799
33.4353
31.3281
28.9367
173.779
140.832
131.63
129.131
127.409
130.842
139.157
135.164
125.221
121.295
91.003
64.4157
70.7162
71.3378
61.1823
52.7962
48.6535
44.8876
41.1292
38.0235
35.5257
33.8579
33.2
33.4101
34.5216
35.0778
33.1689
30.1328
27.5315
25.3652
158.522
141.856
127.307
120.046
109.557
103.33
106.262
114.331
109.96
102.913
78.2041
58.805
56.4067
57.9222
55.7499
51.5308
48.8074
45.8548
41.6786
38.2429
35.59
33.572
31.9717
30.6869
29.573
28.4007
27.1093
25.7101
24.331
23.0373
141.216
142.968
147.925
137.46
121.164
104.519
93.9899
95.3811
96.8385
92.6868
74.7788
56.9451
48.9153
49.6429
48.504
48.6173
48.7229
45.3916
41.3534
38.5508
35.9704
33.4031
31.3205
29.6172
28.1459
26.795
25.5094
24.2874
23.1349
22.046
170.303
172.795
166.221
152.357
137.842
122.295
103.851
88.3064
88.5623
87.409
73.6168
59.6138
45.1035
43.0749
41.6455
41.3676
42.7139
41.4064
39.0542
37.0953
35.2341
32.916
30.4333
28.4821
26.9011
25.5343
24.3144
23.223
22.246
21.3356
197.914
188.878
174.899
160.727
148.037
135.605
120.818
104.179
86.4764
82.7797
72.9126
66.2289
51.6471
41.7702
38.4993
38.0284
38.7238
38.9727
37.6109
35.4702
33.3266
30.9019
28.862
27.163
25.7277
24.4919
23.4066
22.4473
21.6125
20.8408
168.683
184.014
179.633
168.885
156.507
143.512
129.832
113.639
94.0989
81.8596
72.3673
66.0264
59.0149
50.4067
43.0369
38.7431
38.7617
38.5878
37.0516
35.1103
33.194
30.7355
28.5591
26.8048
25.352
24.1245
23.0659
22.1427
21.3492
20.6285
117.364
155.578
162.533
159.215
150.451
138.47
124.32
111.421
98.2292
84.7741
74.9001
67.8008
60.6691
51.4197
38.507
39.0369
39.1745
38.4508
36.8457
35.1633
33.6477
32.1471
29.7054
27.4801
25.7964
24.4228
23.2639
22.2706
21.4234
20.6706
1063.29
931.842
838.18
834.537
797.154
752.148
806.562
273.569
139.428
124.089
126.29
129.725
121.117
91.9006
54.7339
54.5727
53.9351
53.0762
52.0118
50.7649
52.662
60.1884
66.5784
67.2185
65.4275
61.5124
56.3635
50.6868
45.2546
39.8794
881.268
543.594
705.305
753.052
598.953
501.906
363.755
191.769
151.643
144.557
153.306
167.539
177.896
149.384
57.5486
59.4409
60.9282
60.1519
58.417
57.6535
62.0167
77.4595
81.1881
76.6037
71.9849
67.0468
61.6958
56.0593
50.5939
45.1834
773.571
472.526
426.244
323.643
293.346
280.374
252.792
213.605
189.2
180.43
181.142
199.307
229.878
222.103
60.1846
57.6873
59.0409
57.8286
56.3903
57.4689
67.4539
96.0259
96.5129
89.2089
82.1313
75.6119
69.3204
63.1689
57.4681
52.1625
734.811
455.565
421.787
360.621
314.172
285.788
263.719
246.72
233.239
213.822
198.557
211.708
262.967
291.73
70.8016
59.4466
57.4956
55.1792
54.9815
60.3611
84.4417
111.266
111.422
103.446
94.768
86.5963
78.9012
71.6983
65.3308
59.881
730.807
527.421
456.424
395.814
351.237
316.926
295.518
280.434
271.836
245.195
212.647
218.351
296.049
364.339
87.8868
65.2714
59.5447
54.8266
54.7697
68.9399
103.445
123.847
124.459
116.749
107.07
97.3289
87.9457
79.2181
71.6489
65.4796
747.162
624.101
498.622
459.911
411.502
374.178
353.861
331.651
315.598
281.073
218.337
229.601
378.491
487.118
99.809
72.1745
64.2406
55.5195
57.7112
85.5198
120.801
134.873
135.151
128.604
118.836
107.931
96.814
86.1417
76.6732
68.7227
767.237
715.991
573.101
559.208
490.089
456.337
442.439
402.096
379.548
310.458
238.096
289.827
591.323
735.116
107.971
82.8137
63.9269
55.1867
69.9459
108.775
133.698
141.969
141.616
136.803
129.405
119.014
107.253
95.3117
84.3755
74.6301
766.779
755.002
711.038
733.227
614.497
582.767
576.72
459.653
412.078
355.934
241.286
285.88
693.92
1040.17
152.365
97.9601
66.5835
67.928
98.8533
124.29
136.001
140.775
141.667
139.784
135.311
128.365
118.447
107.025
95.929
84.5213
709.68
690.454
784.068
852.293
774.052
802.094
833.777
639.456
456.888
536.41
369.919
296.809
724.026
1410.15
255.897
124.628
89.099
92.3476
104.158
113.036
119.957
124.786
127.104
126.911
124.471
119.653
112.685
101.337
88.6538
73.2864
632.142
520.226
532.787
581.279
611.462
819.523
1157.57
1441.12
1855.43
2787.78
6234.4
1716.42
842.325
13383.7
339.202
146.208
92.0668
80.5654
80.0571
82.1091
82.9611
82.2665
80.4359
78.1524
75.0674
70.7076
64.9061
57.7942
50.5694
42.2909
575.383
391.487
306.952
317.756
326.853
394.484
582.365
824.384
968.927
1781.6
4654.62
12757.1
214.869
117.406
72.9813
62.7109
61.3638
59.6405
57.3854
54.9664
51.0394
47.8721
44.3279
40.6022
37.7561
35.9654
35.1439
34.2556
535.649
330.404
287.425
307.701
311.094
295.053
269.905
269.878
337.113
754.089
2034.91
8543.83
315.296
6372.05
130.503
68.8201
49.3357
43.8228
42.6621
43.3565
45.3409
47.0368
46.1925
47.079
45.9183
41.7231
37.7863
35.0393
32.9096
30.2006
498.531
298.546
277.374
298.337
333.65
325.825
291.974
264.789
270.076
539.178
1402.37
415.802
239.208
161.612
87.3728
62.0717
48.9508
42.2587
38.4312
36.3214
36.0822
37.2316
38.3473
43.2157
47.8207
45.9205
41.5988
39.4506
37.1972
32.5559
461.54
298.944
296.273
291.328
333.269
359.652
346.111
332.776
378.882
703.061
1552.59
205.775
182.164
134.328
94.6156
67.7355
54.5997
47.0805
41.643
37.5563
34.6825
32.6598
31.7678
31.9747
33.5286
34.6788
36.2645
37.2903
35.0486
29.8715
431.62
279.937
341.459
315.936
319.156
353.068
387.372
389.167
443.878
690.624
1150.16
170.334
166.615
141.674
108.316
78.4184
64.3342
54.5464
47.3064
41.8176
37.5185
34.3905
32.3202
31.0422
30.3595
29.9367
29.3644
27.934
25.657
22.6295
423.331
269.444
266.48
312.291
299.789
318.983
377.578
409.257
443.177
620.097
864.883
145.445
152.831
132.338
123.957
101.316
83.7391
64.9475
55.3236
47.6249
42.001
37.9402
34.9761
32.7137
30.786
29.0588
27.364
25.4296
23.3228
20.8507
422.991
327.71
283.412
275.103
276.066
270.199
289.025
379.877
433.73
547.749
644.511
148.152
156.821
152.096
140.4
124.312
89.2519
68.5593
59.2233
52.2822
45.8159
40.9605
37.1653
34.0264
31.2914
28.8228
26.5373
24.3089
22.1909
19.962
382.429
364.885
331.363
294.63
264.545
238.341
221.25
219.78
319.551
447.991
498.99
127.225
128.496
181.144
157.666
171.655
100.68
64.5475
54.5488
49.2863
42.7122
39.1042
36.039
33.0723
30.3035
27.7713
25.4512
23.2803
21.3027
19.3107
271.984
321.713
303.81
271.47
243.201
221.312
204.746
183.579
174.385
281.53
321.739
152.369
101.808
88.643
114.686
193.173
115.309
56.8751
45.0333
41.7563
37.5253
34.1239
32.3567
30.5146
28.5634
26.5544
24.5954
22.6959
20.9442
19.1451
122.618
209.852
215.805
206.088
197.273
189.666
181.59
154.907
122.032
166.243
192.404
125.318
85.3657
74.8053
215.114
188.189
81.4983
46.675
39.4889
37.154
33.4368
30.133
29.3001
29.1403
28.5953
27.5298
26.0102
24.2596
22.4986
20.5846
1139.75
959.705
914.491
946.155
940.49
877.411
892.477
792.683
269.512
129.493
120.284
113.652
103.348
81.2655
59.8512
57.4976
56.9287
58.6045
61.2192
61.939
58.306
54.0633
57.4818
64.2659
64.3481
61.2937
56.4391
50.7956
45.3499
39.9527
925.525
570.288
815.128
858.925
740.322
656.003
561.741
385.301
187.392
145.823
138.792
135.008
129.774
106.12
61.0399
57.3668
57.3008
59.8347
62.3272
62.4907
59.4264
57.4225
66.6593
73.7886
73.3161
70.0974
65.3411
59.8156
54.3353
48.8366
818.266
445.816
385.248
328.865
311.307
296.4
278.113
246.111
205.733
174.433
158.183
146.044
143.117
129.332
68.5477
57.3073
52.9312
53.6924
56.5341
57.0901
54.9347
57.5909
75.0805
86.5697
86.0728
81.7965
76.2484
70.3773
64.916
59.8555
785.61
432.725
335.267
280.842
265.427
260.122
266.565
270.74
255.988
221.327
186.72
158.366
139.409
125.379
80.491
58.9986
50.2372
48.4281
50.4842
52.3871
51.6535
63.1092
86.0694
98.9153
99.2388
94.1312
87.546
80.9535
75.1753
70.2836
783.279
480.489
339.755
269.296
260.598
257.803
265.748
278.06
279.148
242.756
195.167
156.831
134.211
116.643
85.8484
60.2091
49.3307
45.4249
46.3163
48.3274
51.538
71.5085
96.4758
108.76
108.622
102.306
94.5197
87.0943
80.8659
76.0341
785.896
502.817
367.585
280.851
272.16
277.809
301.403
328.811
335.991
289.556
200.572
148.309
125.261
114.531
90.5476
62.6189
50.4474
44.5379
44.8418
46.5892
56.6652
82.5138
105.626
114.368
112.712
105.835
98.0712
91.0354
85.3642
81.4587
786.562
512.998
375.415
294.283
285.766
305.568
363.129
428.05
433.233
370.366
228.865
155.486
135.471
129.809
104.988
68.9987
53.3329
45.9073
45.0167
49.18
68.6905
94.207
109.24
113.585
111.284
106.616
101.218
96.0744
91.6875
88.2873
772.216
507.339
348.997
309.429
300.914
342.722
455.659
574.468
521.529
464.231
258.19
156.423
168.129
402.194
134.886
84.5662
59.1904
49.6164
48.2774
60.0562
79.2158
92.454
99.0056
100.966
100.157
97.5013
93.2856
88.0211
82.4883
75.7124
725.423
459.503
317.303
320.759
320.707
400.42
618.638
826.252
648.118
484.751
342.58
194.227
217.723
4753.63
193.994
112.468
68.671
55.9772
56.4272
63.2979
67.5889
69.7921
70.9193
71.0195
69.6811
66.7224
61.6698
58.3737
55.5834
51.6926
675.438
400.965
295.716
304.797
319.81
449.868
845.419
1310.19
1478.12
1498.23
934.774
2901.22
477.032
32782.4
275.031
146.774
79.7554
59.8573
54.4657
52.1025
49.855
47.7958
45.925
44.1954
42.7976
41.7777
41.2589
41.4007
41.8138
43.0904
630.07
367.12
299.416
298.666
291.174
344.243
621.323
1124.29
1512.12
2337.36
8144.05
22390.1
323.074
144.412
75.5856
53.472
45.9112
42.7674
40.5897
38.6643
36.7907
35.1205
33.6569
32.4807
31.6661
31.1937
31.0521
31.1989
588.976
358.094
319.374
322.408
296.493
257.873
232.921
269.992
411.644
976.678
2531.2
40115.2
246.295
1975.3
74.6308
50.7324
40.8475
35.6715
32.9755
31.4379
30.3566
29.4808
28.6621
27.8789
27.0351
26.0067
24.8961
23.7386
22.6633
21.7161
552.11
353.603
340.146
352.226
329.723
274.866
226.931
197.901
186.937
485.138
2625.28
805.696
194.627
103.375
65.1657
49.1096
39.6749
33.6447
29.7505
27.2571
25.6855
24.6687
24.0837
23.8649
23.8201
23.5018
22.7628
21.5292
20.005
18.2645
520.235
360.11
371.387
370.458
355.253
294.751
250.13
235.958
240.018
585.379
2155.31
249.538
190.558
112.497
71.1338
52.731
41.875
35.1822
30.6945
27.4946
25.1776
23.491
22.306
21.4808
20.8895
20.361
19.7124
18.7416
17.5339
16.0966
497.484
355.428
398.291
382.256
349.83
297.148
266.154
284.216
322.847
646.491
1484.95
215.614
192.517
134.452
80.1253
58.3441
45.1545
37.4329
32.3324
28.5678
25.731
23.5962
21.9824
20.7549
19.7487
18.8654
18.0075
17.0447
16.007
14.8387
487.698
354.465
341.747
369.985
328.687
279.346
258.313
311.719
387.184
581.749
991.866
186.628
177.735
151.269
95.1115
66.2511
49.7544
40.7001
34.9665
30.6308
27.2399
24.5893
22.5269
20.9156
19.6195
18.515
17.5026
16.4899
15.4796
14.389
472.461
374.873
346.487
332.496
295.25
252.67
221.572
267.149
395.398
448.377
567.102
180.714
170.01
156.096
105.909
73.3466
53.5027
44.2765
39.0429
34.4535
30.3564
26.9042
24.114
21.8897
20.1195
18.6669
17.4184
16.2746
15.2202
14.1489
423.656
379.175
337.52
297.268
257.588
223.222
195.037
182.525
245.72
357.556
390.372
172.758
136.682
134.035
103.388
77.506
55.544
45.4744
43.1892
40.0412
35.2607
30.6479
26.8061
23.7637
21.3552
19.4347
17.8487
16.4802
15.2904
14.1497
317.473
348.355
318.497
275.584
236.394
209.331
188.093
166.271
151.779
217.663
251.941
161.287
115.017
94.8534
88.3182
73.0331
53.1748
40.1151
39.104
39.8267
35.983
31.5302
27.6793
24.5448
22.0252
19.9858
18.2965
16.8421
15.5895
14.3993
161.778
255.993
241.919
206.995
186.082
175.294
164.511
144.956
119.751
147.883
167.419
124.239
93.5099
80.4586
91.2454
74.5112
51.6671
34.7876
31.3076
31.8808
30.7121
27.9274
25.5366
23.467
21.6351
20.1051
18.7329
17.4376
16.2314
15.0045
1129.82
941.534
920.906
964.427
972.414
908.849
858.144
824.976
669.268
251.781
134.605
112.643
92.5616
76.2462
63.5979
58.8082
55.7764
54.5086
56.092
63.9752
69.4362
64.9794
54.725
54.8428
56.4718
54.5539
50.6394
45.8059
41.0721
36.3027
938.803
585.183
876.609
934.222
838.447
760.36
705.397
594.987
397.921
191.927
147.015
128.784
109.115
89.427
69.9553
61.0766
55.6957
54.0327
54.3546
59.9325
63.5002
60.2543
56.2985
60.0303
64.1152
63.6691
60.6326
56.1945
51.5075
46.6859
819.753
432.476
392.643
350.63
327.747
315.719
320.052
324.333
268.876
202.378
183.42
158.027
131.036
107.633
81.101
64.8903
54.8785
49.3811
48.448
52.5072
54.8772
54.0224
53.6811
62.0318
73.6105
75.2384
73.0401
69.2653
65.3706
61.6506
779.47
406.234
309.985
281.234
267.495
265.693
283.138
306.517
301.014
251.414
204.378
171.208
143.357
117.059
84.1385
63.9257
51.4291
44.9045
43.2487
46.2125
48.5736
48.5597
53.2986
67.119
82.1029
87.3861
86.7256
83.7998
80.637
77.4006
774.092
447.321
302.346
267.801
253.25
248.641
257.665
277.993
295.386
254.54
196.554
157.264
130.481
109.267
80.7681
60.4683
48.5548
41.7344
39.939
41.9446
43.6674
45.4235
55.2094
72.8977
89.7194
96.6491
96.1526
92.7162
88.7341
84.4176
776.655
509.401
305.175
268.669
252.109
249.906
265.45
305.184
356.897
317.71
207.455
150.555
119.415
101.351
78.5788
59.7573
47.4751
40.3267
38.4618
39.8148
41.1809
45.3235
58.971
78.0917
92.7614
98.4981
96.7538
92.4581
87.9804
84.0192
775.163
543.024
296.853
263.29
248.402
254.211
290.036
366.641
466.929
457.107
262.342
173.53
137.847
115.351
89.7609
64.6976
49.7795
41.2123
38.6391
39.6842
41.3691
47.4998
61.3768
76.9113
87.4937
91.585
91.3886
90.2343
89.5224
89.8973
756.863
494.806
284.501
260.255
244.82
252.612
299.225
402.891
554.078
601.89
342.706
197.276
163.762
170.616
132.258
80.0331
57.2776
45.5427
41.834
42.1926
43.5462
48.7192
57.1498
66.0703
73.3918
78.373
83.0327
86.8602
90.2245
93.7674
718.5
416.302
281.66
264.149
243.42
242.756
283.282
414.602
579.745
712.323
515.173
290.514
238.868
779.159
242.291
117.381
71.5865
53.2876
47.056
45.2579
45.0321
45.9262
47.7198
50.7352
54.7667
59.4186
63.7103
67.0543
69.5559
72.7597
681.005
383.678
298.867
278.37
247.629
233.043
260.819
450.265
658.024
1028.72
1082.93
1414.94
839.815
9898.38
423.508
189.074
92.6793
58.3216
46.1679
41.8553
40.1246
39.0854
38.2765
37.8854
38.264
39.5045
41.5373
44.0672
46.8961
49.784
644.433
381.478
327.952
303.371
258.189
223.813
214.03
266.389
478.456
1259.17
2274.3
36479
1491.21
16623
589.762
214.209
84.6168
49.7455
38.2801
33.5921
31.2692
29.824
28.7259
27.8101
27.1541
26.8698
27.071
27.7637
28.9341
30.71
608.924
391.374
354.128
332.95
272.355
221.819
183.656
150.342
134.559
1091.37
4431.62
13085.6
212.706
1726.46
63.5133
48.0077
38.795
32.951
29.2213
26.8063
25.1706
23.9339
22.8941
21.9677
21.1572
20.477
19.9597
19.5877
19.3623
19.3544
577.907
402.163
385.279
364.603
286.538
225.505
182.625
149.863
134.188
134.815
600.707
830.105
167.156
82.2343
56.2364
44.058
36.321
31.0862
27.4473
24.877
23.0154
21.5908
20.4318
19.434
18.5247
17.67
16.863
16.0827
15.3697
14.6819
554.247
411.721
420.099
392.757
296.764
229.273
184.64
156.512
153.391
149.784
307.093
196.231
124.691
82.117
57.7005
43.6886
35.351
30.1325
26.575
23.9856
22.0209
20.4787
19.2214
18.144
17.1677
16.2537
15.3702
14.4863
13.643
12.8129
536.714
420.92
436.194
398.547
298.145
231.589
187.427
165.426
184.662
188.832
299.63
192.013
130.339
87.5815
60.5748
44.5837
35.3572
29.8229
26.1298
23.4262
21.3484
19.7127
18.4001
17.3053
16.3478
15.4736
14.6318
13.7906
12.9741
12.1525
520.646
423.86
407.165
366.433
288.922
227.041
185.815
173.388
227.277
249.939
408.32
205.67
136.704
94.9569
65.9421
47.3491
36.6119
30.5253
26.5585
23.5999
21.2969
19.4597
17.9864
16.784
15.7735
14.8905
14.078
13.287
12.5269
11.7564
488.464
420.158
376.65
318.106
259.637
212.798
179.738
176.932
250.6
304.028
313.114
184.374
132.35
98.974
72.5446
51.8398
39.1243
32.6793
28.7471
25.5589
22.8068
20.4979
18.6129
17.0866
15.8383
14.7869
13.8781
13.0429
12.2702
11.5071
420.245
399.135
348.509
289.645
237.47
201.618
177.504
158.071
178.888
250.891
261.214
165.533
123.77
100.552
80.0914
57.8662
41.9557
35.4792
32.7475
29.7939
26.4559
23.351
20.7127
18.5604
16.8251
15.4052
14.2228
13.2004
12.3029
11.4571
299.006
341.678
306.908
254.372
213.179
192.503
180.172
153.719
133.869
165.464
181.891
138.02
109.903
97.4634
89.4106
66.621
43.7654
35.1131
34.4977
32.7581
29.3524
25.8656
22.793
20.2349
18.148
16.4389
15.0092
13.7886
12.7357
11.7642
143.273
229.593
205.246
173.574
162.556
161.864
155.066
131.362
110.854
127.576
136.358
110.901
94.8414
93.412
96.4619
72.1648
41.181
29.4683
30.785
30.8323
28.6145
25.9261
23.4486
21.2608
19.3559
17.6857
16.1873
14.827
13.6082
12.4606
1090.47
905.319
895.457
942.401
954.495
888.989
811.525
750.467
684.281
564.611
308.941
173.713
118.052
88.0194
74.884
67.6129
63.2784
59.1098
56.5005
55.5504
59.4169
68.9535
71.4801
56.6084
49.0373
46.495
43.0316
39.0175
35.131
31.1116
936.744
603.597
950.77
1039.6
946.879
848.092
792.742
695.666
561.727
411.302
256.207
182.652
135.204
102.664
88.5037
78.0819
70.9604
62.6059
55.7178
52.7726
54.3395
60.3524
64.1195
54.886
51.7187
52.3321
50.7899
47.4791
43.6677
39.4295
818.641
456.152
446.673
395.132
364.998
358.702
385.697
431.621
402.63
313.26
239.92
202.781
160.816
129.671
99.0986
80.1175
66.0326
55.7499
49.054
46.3359
47.5617
52.6687
55.4296
49.7347
50.5577
58.2696
60.3214
58.9509
56.4545
53.5171
764.917
400.968
331.636
307.961
291.261
287.596
308.686
338.48
341.088
291.202
230.118
187.062
152.112
121.489
90.3397
71.8705
58.5658
48.8786
42.9315
40.9698
42.5329
46.5287
47.7763
46.2486
52.297
64.7967
71.6238
73.6254
73.8694
73.3627
753.743
440.728
320.575
301.816
281.063
270.617
272.386
285.522
304.685
265.714
201.853
160.512
128.523
101.956
80.1938
64.2977
52.4948
43.8109
38.7617
37.5611
39.0781
41.3231
42.4901
45.0515
55.7961
71.5638
83.0413
88.3282
90.7475
90.802
751.829
466.872
316.457
300.185
274.77
260.999
264.035
299.711
364.708
351.845
214.56
152.893
117.796
93.3422
74.9469
60.6594
49.4369
41.1578
36.5245
35.5428
36.6245
38.0089
39.7334
45.4913
59.4688
76.6179
90.7071
96.4012
97.8694
95.8965
746.689
462.198
308.787
292.736
265.306
257.987
283.999
364.267
473.048
526.997
302.121
186.426
142.245
114.004
83.522
63.9051
50.3969
41.1796
36.0376
34.5979
35.3921
36.6131
38.8417
46.3828
60.6915
76.3246
88.4401
93.108
93.2405
90.5025
731.183
428.343
302.363
288.561
259.88
255.878
297.543
401.975
550.663
723.398
482.397
236.572
225.86
237.124
120.027
76.613
55.8738
44.1589
37.7316
35.474
35.8697
36.8784
39.1194
45.2479
54.8086
65.2153
74.2159
80.4278
83.3266
83.4538
708.105
403.068
301.8
289.859
256.873
243.031
269.545
349.039
494.76
1012.5
784.302
345.542
329.751
860.702
241.142
106.481
64.675
48.2133
40.226
36.7903
36.2152
36.8511
37.9771
39.9592
43.1533
47.6634
54.7343
62.1609
68.8833
72.7849
679.722
396.718
317.421
299.096
258.174
227.945
220.765
256.569
398.72
1308.02
1217.93
537.688
379.225
2054.74
508.228
183.972
80.3327
50.8169
39.7132
34.7534
32.8661
32.7949
33.0719
33.1838
33.4333
34.4554
36.9456
40.8318
45.8541
51.1962
649.871
403.77
344.894
315.206
264.628
221.771
192.261
176.222
246.981
1295.73
2921.48
683.512
230.173
2311.43
377.088
140.091
67.2646
44.5299
35.1292
30.346
27.749
26.3899
25.7523
25.4567
25.3372
25.4561
25.8487
26.5765
27.7218
29.7163
621.198
418.855
374.949
332.333
270.989
219.791
182.493
151.53
136.154
845.075
3697.52
1006.09
189.671
116.532
64.0928
48.6613
39.7934
33.8667
29.6443
26.5946
24.3852
22.7574
21.5248
20.5739
19.8451
19.3008
18.9041
18.6177
18.4535
18.4164
595.885
434.676
408.963
347.053
274.565
217.413
175.601
143.763
123.569
127.993
1790.1
517.4
153.705
78.2503
54.6811
43.0541
35.8254
30.8769
27.2479
24.512
22.4069
20.737
19.3643
18.1933
17.1687
16.264
15.4685
14.7647
14.1671
13.6328
573.286
447.964
435.42
352.53
274.009
214.425
170.256
139.291
122.516
116.311
406.997
160.377
89.1196
63.865
49.0124
39.3843
32.9947
28.5811
25.3191
22.8167
20.843
19.2483
17.9301
16.797
15.7794
14.8434
13.9741
13.1565
12.4151
11.7272
552.761
455.075
426.49
345.956
267.083
207.013
164.416
137.003
128.577
128.636
128.179
109.82
83.9127
62.7834
47.3392
37.3181
30.9967
26.7989
23.7538
21.4061
19.5317
18.0166
16.7714
15.7191
14.7969
13.9519
13.1552
12.3871
11.6659
10.9671
522.208
447.207
388.419
317.332
249.016
195.5
158.818
136.968
142.174
153.653
149.592
124.226
93.8134
68.5929
49.4909
37.3218
30.2992
25.9554
22.8981
20.5308
18.6278
17.0824
15.822
14.7773
13.8886
13.1032
12.3844
11.6996
11.0537
10.4191
467.257
424.77
361.213
290.035
227.639
183.546
156.002
139.74
162.01
189.21
181.197
137.246
104.94
79.1678
55.4813
39.4559
31.2232
26.7286
23.6002
21.0444
18.8897
17.0993
15.6363
14.4439
13.4612
12.6284
11.8966
11.2254
10.6057
10.002
373.953
377.933
327.834
259.636
204.789
174.076
157.553
137.584
140.372
180.208
176.075
133.132
112.934
94.1835
65.263
42.6579
32.9798
28.998
26.1359
23.3241
20.6908
18.4031
16.5005
14.9525
13.6982
12.6668
11.7954
11.0313
10.3544
9.71648
238.875
291.768
255.185
203.221
171.107
161.9
151.969
130.376
118.785
133.335
139.321
119.101
116.063
113.574
78.1796
42.8886
31.6273
29.4173
27.4018
24.7393
21.9691
19.4605
17.3296
15.577
14.1493
12.9751
11.9899
11.135
10.3867
9.69283
99.4229
166.648
142.491
128.261
131.81
139.308
131.603
113.949
103.957
111.709
116.666
110.545
126.518
139.852
78.384
32.8484
26.9725
27.6687
26.7907
24.5745
22.1648
19.9456
18.0118
16.3565
14.9396
13.7129
12.6332
11.6653
10.7991
9.99572
1035.5
860.483
841.732
877.529
886.508
829.205
750.963
677.531
613.246
545.119
464.286
408.695
244.448
148.641
116.51
96.5822
83.3367
76.7492
69.1825
61.4451
55.8713
55.9927
63.8566
68.5386
60.2411
48.0135
40.8149
35.6629
31.606
27.8064
928.783
617.921
986.784
1143.37
1054.85
915.93
828.931
715.109
597.444
490.574
412.151
340.187
229.952
185.021
147.577
116.319
91.6557
76.3416
64.9341
56.3716
50.8363
50.211
56.3087
60.1588
55.3088
46.9845
42.1808
38.488
35.113
31.4555
828.102
513.662
557.914
499.131
443.077
434.627
468.784
500.711
474.889
400.128
330.349
260.719
202.764
166.105
123.687
97.142
78.3021
64.6968
54.8424
47.8261
43.8575
44.2022
49.6793
52.5621
48.5843
43.7026
43.7003
43.218
41.7121
39.1111
760.412
404.825
360.587
343.551
331.152
329.72
351.155
373.872
372.521
325.409
259.207
207.586
165.865
130.283
101.294
80.3869
65.2714
54.2581
46.3051
41.0362
38.7073
39.9343
44.0881
45.6171
42.8923
41.4038
46.7033
50.8584
52.7353
52.9569
737.976
424.846
352.086
342.297
323.732
313.403
302.421
295.303
300.993
264.849
205.246
163.543
130.786
104.281
83.4038
67.7019
55.933
47.0116
40.5035
36.5509
35.3785
36.7918
39.2293
39.8918
39.0576
41.7553
51.3092
61.1218
67.6893
71.9255
730.974
431.309
349.044
343.395
315.279
289.132
273.882
293.713
366.045
366.119
219.215
151.329
115.854
92.2288
74.7218
61.3775
51.0977
43.0751
37.2275
33.9011
33.0842
34.128
35.4739
36.0188
37.004
43.2621
55.1167
70.3431
81.4847
88.075
725.218
415.736
340.264
335.391
298.165
274.693
282.956
367.361
507.362
569.842
357.045
194.015
136.438
102.405
78.652
62.4662
50.9066
42.3049
36.2344
32.7295
31.5841
32.1304
33.0813
33.7248
35.9614
43.2478
56.3214
72.3077
86.7913
93.9588
716.368
397.586
330.587
327.253
286.904
269.416
305.489
450.387
621.056
755.838
636.35
234.965
211.77
144.837
95.613
70.2886
54.8406
44.3692
37.273
32.9944
31.2101
31.3506
32.115
32.6979
34.5847
40.4956
51.1677
64.1998
77.5229
86.411
705.541
400.884
324.944
324.104
281.374
258.84
292.859
447.078
670.664
969.972
1034.82
290.286
279.514
248.309
113.08
77.8116
59.2217
47.2788
39.2063
33.9908
31.2698
30.5776
30.8792
31.2929
32.2619
35.1658
40.7904
48.3924
57.4054
65.7909
686.451
410.39
329.886
323.886
279.758
244.212
236.783
310.183
544.039
1148.76
1831.09
384.083
287.916
481.325
132.766
79.408
58.6406
46.7559
38.8899
33.5331
30.0813
28.2742
27.7795
28.082
28.7477
29.8471
31.6783
34.3817
38.075
42.9905
663.008
427.558
357.753
328.334
281.322
236.347
205.213
190.484
218.104
850.492
2506.98
473.913
225.309
139.216
89.1921
63.9409
50.1663
41.3389
35.1393
30.6698
27.4749
25.3102
24.0893
23.6297
23.6579
23.9517
24.3805
24.917
25.6554
26.903
636.329
449.28
389.376
335.122
280.863
229.579
190.723
162.07
150.665
160.451
2121.02
617.509
189.202
100.993
67.4336
51.4586
42.1341
35.7975
31.1261
27.5893
24.8757
22.7693
21.1487
19.9426
19.0928
18.5103
18.115
17.8231
17.6235
17.5959
610.915
460.948
407.384
339.604
276.905
221.412
178.155
146.663
126.127
116.582
629.366
222.161
101.406
69.4662
54.0576
44.1363
37.1782
32.0635
28.1221
25.0623
22.6562
20.7234
19.1359
17.8063
16.6761
15.7089
14.8825
14.1648
13.5541
13.051
583.23
468.191
408.33
335.812
266.887
208.276
164.148
133.913
115.628
103.335
104.149
84.959
68.7041
56.1391
46.3418
38.9149
33.2774
28.9712
25.5569
22.8567
20.7055
18.9643
17.5256
16.3049
15.238
14.2843
13.418
12.6188
11.9014
11.2434
548.804
464.849
392.002
318.929
248.256
190.5
149.678
124.643
113.547
106.971
96.3399
83.8218
66.7529
52.2733
42.0723
35.0681
30.0364
26.2743
23.2888
20.9003
18.9724
17.3987
16.097
14.9971
14.0432
13.1891
12.4062
11.6702
10.9919
10.3478
496.701
442.994
372.659
295.015
223.43
170.613
137.619
121.836
121.751
123.019
112.692
93.2053
70.6955
52.0209
39.9236
32.5583
27.7362
24.262
21.5385
19.3302
17.5174
16.024
14.7948
13.7731
12.9073
12.1488
11.464
10.8244
10.2306
9.65894
416.527
399.747
339.882
261.361
193.573
151.871
130.952
125.17
130.94
139.754
131.575
106.377
79.2483
54.6553
39.5062
31.5041
26.8562
23.6056
20.9833
18.7724
16.8996
15.3341
14.0474
12.9934
12.1219
11.3828
10.7356
10.1463
9.60485
9.08471
301.964
325.738
278.359
209.747
158.853
136.925
127.257
119.39
120.81
135.336
135.902
117.389
90.2767
58.2031
39.2036
31.1103
27.2403
24.4609
21.8772
19.4872
17.3615
15.5459
14.0437
12.8191
11.8221
10.9974
10.2982
9.68335
9.13397
8.6183
165.026
218.588
186.997
145.793
125.138
124.353
116.395
110.219
106.627
112.629
121.194
118.379
96.4229
59.6594
36.5591
28.823
26.1788
23.9884
21.6604
19.3351
17.2045
15.3559
13.8198
12.5686
11.5528
10.7163
10.0108
9.39552
8.84922
8.33764
57.4348
103.165
92.4923
89.6447
99.5624
109.585
105.751
100.435
97.0563
102.686
113.975
104.177
81.5259
50.4384
29.7578
24.3384
23.4294
22.0038
20.0945
18.1762
16.4105
14.8655
13.5621
12.4701
11.5486
10.7542
10.0545
9.42319
8.85143
8.31158
967.629
809.696
768.339
774.608
777.981
737.83
674.227
605.525
543.303
483.41
422.185
372.453
318.446
305.192
256.567
179.806
132.182
105.625
86.865
72.8915
62.2901
54.8395
51.6178
52.7283
54.9605
53.1671
46.52
39.424
33.6452
28.8348
911.498
625.068
919.154
1145.68
1088.83
932.897
815.598
697.585
584.138
485.983
405.41
339.593
286.441
253.866
197.804
147.597
114.17
91.4757
75.2056
63.2373
54.4587
48.4657
46.0082
47.1305
49.7668
49.366
44.7208
38.7387
33.7106
29.3836
843.277
572.412
708.952
663.136
590.925
544.743
536.707
524.971
484.18
404.389
340.082
280.669
230.005
185.642
144.766
113.037
90.0632
73.2621
60.9432
51.949
45.5013
41.5583
40.5877
42.4766
45.1828
44.8754
41.6145
37.4695
33.9683
30.6711
775.209