/*--------------------------------*- C++ -*----------------------------------*\
| =========                 |                                                 |
| \\      /  F ield         | OpenFOAM: The Open Source CFD Toolbox           |
|  \\    /   O peration     | Version:  2512                                  |
|   \\  /    A nd           | Website:  www.openfoam.com                      |
|    \\/     M anipulation  |                                                 |
\*---------------------------------------------------------------------------*/
FoamFile
{
    version     2.0;
    format      ascii;
    arch        "LSB;label=32;scalar=64";
    class       volScalarField;
    location    "20";
    object      omega;
}
// * * * * * * * * * * * * * * * * * * * * * * * * * * * * * * * * * * * * * //

dimensions      [0 0 -1 0 0 0 0];

internalField   nonuniform List<scalar> 
90398
(
409.941
347.423
301.699
267.11
234.307
180.901
101.082
97.0556
98.0413
96.3948
93.2193
89.0115
85.0008
82.2384
82.2072
79.7545
75.1216
71.2378
67.5386
64.185
61.3669
59.1598
57.5887
56.7118
56.5369
56.7681
57.1548
57.4964
57.6351
57.1571
368.299
352.611
317.704
288.811
199.573
131.368
100.354
102.104
104.307
101.795
97.2984
94.2235
89.9026
85.4329
86.257
84.1663
79.7349
75.7283
71.8787
68.4326
65.5891
63.4439
62.0237
61.3609
61.3413
61.6373
62.0373
62.3131
62.3072
61.6602
423.092
402.889
357.348
324.552
278.897
199.678
121.501
109.898
108.167
97.6199
89.6202
87.523
85.7147
86.2462
88.7758
86.9432
82.8566
78.9884
75.2411
71.8671
69.0455
66.9145
65.5628
64.9576
64.9001
65.1001
65.4243
65.6341
65.5801
64.79
475.536
451.551
425.767
409.36
368.969
286.924
173.761
126.161
110.822
91.4638
81.1615
80.2605
77.2749
77.717
82.441
85.8106
84.3472
81.4927
78.2414
75.1379
72.3299
69.9154
68.2653
67.6886
67.9024
68.3239
68.5992
68.4731
68.0555
66.915
530.253
526.363
520.839
513.567
476.27
386.408
244.222
145.599
110.52
84.7064
75.6318
74.1784
71.2682
71.9698
79.8448
85.554
85.7582
83.815
81.3206
79.0857
77.0342
75.1149
73.7849
73.3649
73.6057
73.936
73.8815
73.1814
72.7639
71.5223
596.06
622.29
636.487
641.81
613.075
508.454
329.928
162.517
108.922
80.0033
75.2367
69.3771
67.5001
68.919
80.9346
86.0874
86.6838
85.7182
84.3313
84.0396
83.9565
83.158
82.1107
81.5154
81.5053
81.554
81.2064
80.1741
81.8749
83.3136
671.469
731.722
768.032
793.407
771.946
665.743
472.952
216.353
109.362
80.0562
77.8369
67.9069
67.2328
68.981
82.7019
85.3148
86.9742
87.3253
87.2355
90.4191
93.4597
93.3707
91.5707
90.0159
89.5997
89.573
89.6546
89.0549
93.3639
100.455
747.027
839.5
895.688
942.135
920.166
845.692
696.128
431.187
170.365
157.096
143.657
131.88
139.977
154.87
83.0442
84.4976
87.6365
88.8565
90.4576
98.0757
102.775
101.821
98.5625
96.2863
96.2176
96.7687
98.4178
99.4677
102.024
110.409
803.794
917.451
982.743
1035.49
1035.91
1005.81
932.733
798.923
809.814
177.309
155.344
127.899
139.364
158.348
83.8353
85.3089
89.379
90.9059
94.0792
103.721
107.95
105.833
101.686
99.7322
101.196
102.966
107.689
112.45
114.391
120.733
820.016
937.181
1005.21
1062.75
1090.14
1114.84
1121.1
1104.53
1505.13
961.904
279.868
232.824
259.778
315.396
101.008
96.2384
96.3551
96.1939
100.019
108.149
110.244
106.116
100.672
99.3597
102.931
107.82
118.381
129.624
137.61
147.636
808.47
905.718
980.449
1029.34
1037.76
1007.27
913.352
786.129
1404.3
2469.77
328.813
381.615
410.063
113.134
109.641
106.165
105.19
106.205
108.91
108.301
102.376
94.5355
92.9486
99.1968
108.984
129.163
148.789
165.364
179.072
662.377
732.576
782.937
829.71
815.104
753.087
640.985
530.732
908.65
679.191
454.353
283.61
296.725
308.584
104.252
105.968
104.576
102.763
100.886
97.8027
92.3466
85.2799
80.0515
81.2061
90.1804
102.304
121.942
143.302
160.633
173.825
541.589
577.141
599.015
611.074
596.887
556.469
492.96
421.52
319.735
535.181
285.601
175.01
165.103
170.092
94.5456
100.651
101.121
100.105
96.8321
91.2014
84.4747
78.8206
75.2075
75.2621
78.5101
86.9447
102.643
118.769
128.66
134.547
451.665
464.187
472.976
478.524
471.053
447.058
405.959
351.009
254.574
150.222
151.04
95.0069
97.9023
94.8249
93.5431
98.1337
98.0296
95.5827
90.7984
84.5603
78.1084
72.8448
69.6997
68.6384
71.09
78.4252
89.6276
100.6
106.777
110.916
393.254
390.611
390.244
391.216
385.425
368.34
335.788
280.944
184.879
134.183
135.027
82.6694
93.5689
92.8924
93.6671
96.6331
95.2727
91.4481
86.0442
80.0784
74.5178
70.7547
68.7536
68.1725
69.7011
74.4999
81.7918
89.0153
92.8831
94.5853
353.096
338.406
322.656
309.401
299.774
285.542
249.618
186.111
132.914
121.827
123.698
76.949
80.4691
84.9354
91.3519
93.1084
91.4485
87.3166
81.9492
76.4937
71.5923
70.0314
69.5868
69.5421
70.4157
72.9295
76.8685
80.9385
83.1703
83.2062
321.539
304.662
255.723
202.023
191.545
177.872
145.814
116.645
112.168
112.055
115.713
81.0796
73.8549
78.7137
86.0742
88.7637
86.3444
82.7864
77.3949
72.3023
68.2138
67.848
68.8992
69.5748
70.5625
72.0498
73.9134
75.8041
76.9893
76.5115
291.534
278.278
245.573
167.755
129.718
113.168
105.982
104.898
104.706
106.028
109.431
97.8699
81.2564
71.5762
75.8075
80.5668
80.0229
77.4777
72.6334
67.1024
63.2959
63.0162
66.5406
67.7854
68.9858
70.1674
71.1757
71.9875
72.4709
71.8045
260.202
249.312
230.202
206.956
182.804
167.738
134.065
129.089
135.399
119.369
107.996
100.432
92.2621
84.1878
76.3489
71.3129
68.5295
66.7229
64.4194
61.4427
58.2539
55.8361
55.9138
59.2059
62.2742
64.4579
66.1733
67.2632
67.8005
67.437
334.039
281.072
252.611
227.824
205.911
186.329
168.806
152.784
138.294
130.916
121.486
110.659
101.097
92.5131
85.0636
78.8523
73.7107
69.4945
66.0817
63.2724
60.7514
58.4207
56.3715
55.0095
55.2763
56.9522
58.997
60.6759
61.8988
62.3374
1607.4
1291.69
1007.48
846.416
753.335
844.27
881.412
318.746
263.464
211.94
168.167
143.045
128.248
124.437
127.049
128.535
127.213
125.517
124.278
121.425
115.757
107.766
98.9915
90.8215
84.3541
79.9834
77.2727
75.3027
74.0102
72.7943
1285.72
728.362
761.401
909.418
830.495
689.352
533.722
324.643
316.986
258.152
200.098
167.159
143.25
126.791
111.945
99.7096
93.7641
94.6308
99.133
101.724
99.6434
94.2313
88.1406
83.197
79.2196
75.6781
73.0394
71.4437
70.6616
70.2401
1261.1
739.862
797.617
641.575
469.924
395.886
372.895
363.346
349.337
281.571
200.277
153.571
129.178
118.073
112.37
107.401
101.059
102.534
112.18
119.074
118.952
112.066
102.246
93.6578
87.2778
82.6753
78.8767
75.4284
72.7555
71.3314
1307.99
801.002
725.098
626.859
538.557
453.41
422.511
404.658
386.189
320.612
204.68
133.614
107.035
96.3978
90.2799
88.4854
91.5186
109.354
123.222
129.073
127.988
121.586
112.694
104.45
98.0692
92.9522
88.4197
83.6452
79.3104
76.1215
1403.69
917.427
911.966
974.669
881.473
622.851
468.793
433.626
425.896
371.452
206.638
118.131
94.6197
83.0395
78.7445
82.2512
101.625
123.291
132.737
134.362
129.747
121.683
112.281
104.618
100.071
96.8155
93.0917
88.5604
86.0974
85.3315
1505.96
1102.04
1246.51
1339.02
1023.8
719.61
510.954
443.718
441.468
428.959
236.39
115.58
96.5229
83.45
79.4216
87.3265
116.674
132.597
139.359
137.851
128.781
119.085
111.856
107.843
105.131
101.665
97.8294
93.4368
99.1448
118.341
1605.55
1317.92
1617.59
1403.23
1126.23
975.369
671.953
474.415
407.934
448.003
230.984
137.893
112.737
92.4701
83.2313
97.6408
124.38
143.237
149.112
143.224
133.326
124.321
116.731
110.488
104.682
100.986
99.5063
97.3087
114.943
165.51
1696.55
1549.15
1960.31
1421.81
1467.7
1543.06
1084.26
759.519
396.417
459.347
257.526
164.104
136.554
108.962
93.303
105.364
142.1
164.603
167.974
158.571
143.558
128.588
117.508
110.005
103.692
104.161
108.777
106.932
126.306
175.242
1791.63
1808.06
2342.37
1687.25
2068.48
2241.94
1897.06
1587.18
1013.72
369.258
229.076
202.18
160.207
132.653
111.649
131.344
182.992
203.115
199.526
182.07
155.664
134.494
122.397
113.619
105.958
113.747
128.72
126.227
135.59
179.104
1938.06
2072.73
2783.72
2316.14
2579.56
2936.06
2862
2702.76
2668.94
525.708
388.303
692.783
331.986
523.178
460.078
267.504
269.49
263.941
235.102
194.454
157.44
136.693
124.188
113.228
106.734
129.92
160.248
169.518
172.693
207.062
2167.52
2338.13
2687.52
2091.16
2634.43
2972.06
2810.03
2370.28
2009.01
1416.09
19083.3
732.134
553.209
429.059
324.779
252.976
194.219
151.967
132.518
120.016
108.138
105.846
151.546
189.489
218.768
238.308
304.1
2505.67
2667.38
3321.86
2916.16
3145.86
3137.33
2525.94
1715.14
1197
987.477
6592.24
1917.17
346.247
1952.87
408.411
296.956
205.489
167.597
152.922
135.315
122.552
115.278
105.723
94.9928
93.0847
135.37
175.783
196.081
213.198
248.821
2465.12
2250.11
2968.7
2961.26
2709.14
2337.93
1936.21
1609.78
1308.91
1631.58
4110.9
708.264
585.515
2266.07
157.012
159.991
140.628
135.167
125.728
112.555
101.673
90.9426
81.0536
73.661
73.711
94.0696
135.49
159.451
165.582
156.528
2164.22
1482.98
1719.62
1799.67
1724.62
1571.93
1417.19
1358.1
1499.39
2738.19
5642.9
529.532
354.549
524.311
133.884
139.656
133.357
127.353
112.91
101.087
92.9111
85.6548
77.5449
68.8336
63.6
72.3325
95.1822
108.715
107.307
105.845
1901.82
1068.85
1190.82
1172.83
1074.25
1005.96
969.439
1084.04
1563.99
2653.26
4281.19
473.078
263.173
254.379
152.378
149.493
142.948
135.645
116.721
105.768
101.909
99.1702
90.228
77.9623
67.6608
66.6267
76.1069
83.9473
86.7111
90.4915
1679.76
755.767
763.393
733.701
747.683
751.43
807.794
1051.22
1591.19
2428.89
3257.9
336.189
238.735
216.276
172.576
156.963
142.438
132.875
116.17
104.24
108.999
107.859
94.3834
79.5862
69.9085
67.2257
70.9749
76.2488
79.9914
83.2996
1560.28
562.498
532.929
598.707
619.799
655.393
796.836
1085.42
1546.06
2138.32
2487.39
217.615
206.251
184.114
170.518
139.288
116.9
104.8
96.7799
90.0022
89.3351
97.8174
94.5678
81.0573
72.4475
69.4034
71.2227
75.0354
77.1611
78.5641
1523.62
543.724
462.015
913.237
1103.19
1036.99
1101.71
1223.72
1488.37
1845.13
1967.76
231.131
227.829
199.031
200.26
194.978
172.247
142.575
119.111
111.236
125.687
151.404
143.035
113.811
93.6305
81.5168
76.5342
75.5133
75.4308
75.7954
1534.1
712.338
472.27
522.622
796.716
1098.18
1559.08
1558.08
1559.95
1665.04
1628.39
428.01
322.662
319.392
309.103
284.438
277.012
261.972
228.128
198.804
184.762
167.686
152.954
140.141
118.743
101.035
89.3862
82.5443
79.0775
77.2501
1839.03
1481.97
1136.48
881.388
734.601
655.04
622.454
720.874
1025.44
1292.62
1281.56
841.999
600.826
462.998
369.721
303.637
258.03
223.926
195.445
170.434
149.223
132.283
117.903
106.024
98.3292
94.2856
90.5889
86.811
83.7593
80.7471
1656.36
1335.32
1092.05
953.152
860.423
849.921
889.793
421.146
293.236
266.05
218.177
181.191
154.401
130.216
124.776
125.615
126.113
123.611
121.179
118.042
112.268
104.02
94.8261
86.3057
79.685
75.456
73.165
72.5629
73.5763
74.4274
1393.54
819.161
893.52
1124.18
953.157
766.593
629.056
339.082
311.502
259.851
206.341
184.008
160.604
144.982
133.242
115.787
103.063
97.0093
90.6131
90.2308
89.6164
86.1703
80.741
74.9733
69.912
67.1947
66.2888
66.6174
68.2454
70.0069
1382.51
787.185
836.238
677.848
563.888
522.345
455.984
357.821
337.177
249.664
189.357
152.072
124.539
112.043
102.751
94.6501
84.2742
75.8743
73.5089
80.6563
84.2916
82.2647
78.5248
75.9357
74.5335
73.5109
72.2555
71.2969
71.5359
70.6535
1427.92
794.782
677.132
587.828
534.106
489.003
441.689
403.104
328.735
243.231
182.468
131.738
101.096
83.6357
75.0841
69.3329
63.8332
62.4795
79.0784
93.8228
100.491
100.429
96.8549
92.6477
88.5408
84.6865
81.405
79.8725
82.1791
81.5121
1530.46
912.037
828.51
731.975
573.362
496.463
448.568
395.496
307.834
246.502
176.637
115.762
90.2308
72.0556
60.4942
57.2942
57.5535
73.0522
96.4967
108.143
112.782
111.755
106.934
101.172
95.9284
92.0198
90.0859
91.1757
102.181
110.649
1641.36
1064.51
948.731
668.001
530.708
466.686
419.847
370.697
294.28
239.492
158.769
106.186
88.1708
71.7504
61.3681
61.1847
71.3392
95.8315
113.317
121.561
122.735
117.698
110.472
104.029
99.1175
96.1483
96.0303
99.569
122.596
156.312
1742.68
1200.39
876.475
606.402
532.715
469.652
407.11
351.749
274.754
214.916
149.148
109.823
96.233
77.506
66.5433
72.1995
87.3468
115.511
128.012
132.657
128.04
119.712
110.83
103.195
97.2909
96.2027
99.4145
102.327
143.489
213.945
1845.43
1374.62
871.177
630.604
567.124
541.262
458.36
354.412
256.147
190.669
139.736
119.899
111.189
82.6345
77.9315
84.6806
108.569
134.67
136.05
136.08
127.085
116.136
105.766
97.3539
91.3063
99.7061
114.616
110.066
147.317
201.523
1971.12
1664.39
1072.66
706.465
637.492
654.357
596.35
455.415
288.097
197.105
142.185
167.807
147.884
109.442
100.699
102.915
139.149
143.926
139.572
134.155
120.822
110.047
101.828
95.358
91.7018
114.661
146.469
142.221
153.253
194.145
2132.38
1983.13
1357.59
873.991
677.534
705.16
628.623
529.044
461.232
246.755
280.939
786.017
291.969
1036.07
213.668
165.191
156.298
144.639
136.398
123.144
108.672
100.152
95.1951
90.9445
91.4723
136.912
184.028
195.511
201.121
231.495
2319.52
1955.59
1034.03
655.83
608.309
640.486
571.166
455.886
387.617
370.58
4774
25020.6
599.417
281.356
164.347
130.961
118.557
103.625
91.1317
85.7773
83.9525
82.1288
87.6589
161.056
192.903
213.073
245.452
309.62
2581.17
1998
1043.88
742.597
674.787
610.598
536.22
473.835
411.467
418.945
2760.35
44495.6
215.16
20929.9
183.613
99.1572
91.7852
92.2446
88.4117
80.1189
74.3692
72.5214
72.1406
71.9915
75.7479
131.477
184.92
188.731
201.478
219.18
2554.52
1877.95
1339.03
1057.53
973.014
859.757
707.736
561.372
494.317
1085.04
4748.91
439.855
169.801
252.583
95.7521
89.8957
85.4344
80.3841
72.5417
65.4593
60.6377
57.86
56.601
56.9821
60.7183
84.0703
136.93
162.995
157.407
157.088
2283.41
1513.33
1440.72
1315.76
1293.68
1177.86
986.145
804.77
810.811
1916.56
4951.17
318.168
217.763
145.876
116.595
103.878
95.0843
86.9149
78.0535
70.5327
64.594
59.5921
55.5104
52.6361
51.841
60.882
87.1553
97.9614
98.0696
103.168
2029.25
1076.37
998.531
967.034
1002.82
1027.12
1021.05
1037.81
1248.72
2019.03
3669.33
372.924
238.151
175.214
153.723
135.35
126.7
114.835
101.391
90.7884
81.9367
73.0571
64.5909
57.6211
53.0141
54.1258
64.4382
70.6521
74.7803
81.4424
1861.45
802.252
716.847
744.207
777.877
837.02
962.239
1185.82
1473.58
2003.38
2853.15
411.959
257.521
230.655
210.896
180.621
174.369
167.415
144.086
130.003
113.097
94.5199
78.7749
67.0459
59.4428
56.8202
59.8783
63.9501
67.1305
73.0384
1777.54
650.843
661.186
786.266
769.084
790.069
921.78
1149.87
1454.26
1840.92
2147.85
323.275
265.73
271.314
242.554
203.686
176.99
159.312
131.422
117.116
123.399
112.454
91.4293
76.1895
66.54
62.0702
61.6665
63.1766
65.3989
70.2562
1739.69
677.089
599.3
1077.6
1256.13
1150.19
1158.57
1192.6
1353.09
1597.05
1642.37
293.567
265.66
260.682
267.969
253.119
240.823
219.478
177.042
145.269
136.545
125.86
102.61
84.9699
73.64
67.0993
64.3621
64.0288
65.1573
67.8423
1695.71
869.987
609.513
646.72
825.33
1087.63
1447.03
1523.91
1460.46
1476.76
1391.71
435.671
403.809
407.599
379.777
328.354
292.505
262.575
230.815
199.24
172.287
146.142
121.725
99.5808
84.1742
74.5467
68.9373
66.4526
65.979
66.9678
1890.93
1516.42
1204.52
965.38
812.444
716.748
654.437
690.405
899.698
1110.77
1094.24
802.202
612.294
491.864
401.271
329.656
274.821
232.37
198.368
170.759
148.511
129.826
112.489
96.4091
83.133
74.0621
68.7438
66.4303
65.697
65.9443
1566.01
1268.51
1051.84
919.071
840.678
802.095
905.525
565.731
285.446
282.725
235.591
207.953
182.164
163.414
143.248
120.598
116.758
118.432
115.124
110.014
104.402
97.3157
89.262
81.5516
75.3856
71.4372
69.4997
69.3403
71.2118
73.1687
1408.1
839.283
907.562
1163.33
1047.42
862.906
732.555
429.343
320.862
275.248
211.117
183.807
158.074
143.558
134.209
126.751
110.366
96.0065
83.5346
77.4532
76.2557
73.0403
68.2103
64.2187
62.8538
62.6075
62.5599
62.5067
63.1057
63.447
1423.34
774.114
852.112
757.784
685.816
637.798
533.913
414.521
362.87
252.011
193.349
153.295
123.979
108.559
98.1596
93.6189
85.468
79.3104
68.9794
67.8828
69.0222
68.4779
67.9573
68.5338
69.1889
69.0469
68.0607
67.057
67.3195
66.3191
1452.65
761.114
674.027
622.2
586.039
544.674
492.582
444.453
328.821
229.233
176.153
133.325
104.297
83.5608
71.2564
64.9864
60.2647
57.2409
63.2269
74.5233
81.4882
83.9426
83.7149
81.9383
79.3895
77.0792
75.3039
74.8318
76.9554
75.5514
1539.51
854.343
713.788
596.021
548.271
510.279
471.53
397.132
280.337
211.676
158.252
116.991
93.3872
73.7189
59.6623
51.5584
50.8907
59.065
78.5629
91.21
96.4408
97.1791
95.5199
92.2095
88.7849
86.713
85.9209
86.6364
93.052
97.7054
1638.81
958.995
698.6
567.031
526.959
483.663
426.134
339.544
251.486
193.244
142.272
106.896
88.6869
70.4474
57.003
54.0413
59.5572
75.3078
95.8432
105.234
108.579
107.679
103.189
97.7563
93.6115
93.0639
94.3252
96.9107
113.265
147.408
1737.61
1059.25
675.908
562.814
537.124
471.149
393.813
307.893
235.383
180.364
135.586
107.085
91.9012
72.3483
60.3789
63.204
70.1743
90.5741
106.01
112.758
114.727
110.467
103.168
95.8625
91.8691
97.9834
106.974
107.547
160.002
199.243
1848.35
1222.56
718.338
602.81
542.1
452.336
369.084
297.462
234.521
175.864
133.41
114.442
101.923
78.0757
72.855
76.2248
85.1956
103.982
104.818
111.315
109.96
103.846
95.8576
88.4116
86.7772
111.508
138.964
127.99
158.588
199.037
1987.51
1519.31
961.743
676.601
531.12
427.857
353.858
297.242
238.151
194.573
138.327
160.965
144.296
105.892
91.2169
96.5644
97.9422
103.163
100.747
100.912
97.5209
91.9997
85.9906
81.2831
86.86
137.845
180.216
160.143
165.9
197.03
2132.33
1781.82
1240.5
770.254
525.594
414.186
365.258
323.459
256.985
219.101
180.459
456.416
372.436
256.906
101.186
98.9122
99.7876
97.0215
92.904
87.8111
82.1605
77.4789
74.138
73.4894
88.366
167.989
206.035
203.369
217.085
248.484
2238.68
1469.45
854.906
581.382
461.043
394.67
365.86
324.877
279.357
253.583
294.54
1224.4
489.296
1419.05
105.28
99.7294
95.2811
86.9186
80.4525
74.0844
68.7713
65.5622
64.2449
65.4247
85.6039
179.865
189.892
194.589
223.804
264.72
2389.07
1340.75
635.783
537.124
482.678
421.699
365.184
326.479
300.799
309.338
403.256
685.63
213.107
136.054
85.9568
79.4081
73.7023
67.9101
62.9484
58.561
55.7864
55.0175
55.7036
57.8434
67.188
144.222
196.504
182.33
195.471
212.821
2346.03
1277.65
668.393
621.723
592.212
519.443
433.421
368.15
344.176
375.549
533.202
252.369
148.73
111.138
89.8029
77.6628
67.3666
60.1714
54.7437
50.4737
47.4666
46.0384
46.2685
48.1413
53.1652
86.6046
151.726
170.053
170.629
178.24
2172.25
1138.03
754.14
757.493
755.357
679.238
575.191
485.35
435.753
476.632
689.391
210.559
189.454
128.502
104.286
89.8391
78.1572
69.2234
62.0839
56.1432
51.4088
47.8923
45.7323
45.0635
46.3682
59.1312
91.9821
100.738
103.721
117.562
1992.41
924.474
768.683
811.328
838.006
795.431
726.989
654.132
601.698
646.269
764.027
248.989
210.245
153.5
130.925
118.016
106.398
95.231
85.1121
75.5314
66.569
58.8323
52.814
48.6925
46.4518
49.4932
61.3079
64.9558
69.6911
76.7057
1865.3
751.778
707.508
776.869
785.84
801.956
818.833
808.815
801.745
799.251
714.531
298.114
245.272
195.727
178.077
166.373
154.527
140.114
125.931
110.197
93.0794
77.488
65.4155
56.9652
51.8022
50.5365
54.1111
57.6428
62.0939
66.7656
1822.65
684.408
747.103
902.473
875.858
849.388
891.759
962.165
1030.6
1055.78
922.854
338.255
306.439
264.381
242.595
226.036
212.758
198.138
181.422
156.51
128.106
100.608
80.5516
67.2975
59.6119
56.3894
56.8061
58.9502
62.1247
65.5719
1765.72
783.466
661.91
1137.43
1268.18
1157.1
1127.1
1115.73
1091.38
1087.56
918.608
342.994
344.819
358.642
325.162
268.393
237.765
211.218
182.915
153.344
131.512
110.515
90.576
75.5102
65.476
60.0093
58.1632
58.5381
60.35
62.7057
1684.53
957.665
692.409
680.166
809.455
1026.79
1229.65
1376.55
1368.85
1260.97
1063.06
470.691
439.113
400.111
349.443
299.249
257.449
223.579
194.677
168.784
145.046
122.466
101.663
84.487
72.4322
64.734
60.6602
59.1162
59.3146
60.3341
1770.11
1446.82
1172.62
956.66
805.627
699.256
625.206
614.392
718.248
853.345
841.31
685.742
549.734
446.186
365.548
301.998
252.216
213.05
182
156.989
136.229
117.912
101.057
85.7962
73.6282
65.3251
60.3502
57.9075
57.2921
57.7412
1434.24
1166.02
971.029
841.618
769.441
730.202
803.695
729.26
391.212
303.654
243.541
217.929
180.775
160.063
149.254
141.087
119.681
109.02
104.166
100.772
95.6419
88.9978
81.8977
75.2729
69.6111
65.3711
62.6626
61.1779
61.2193
62.3902
1374.74
846.007
850.682
1064.11
1053.3
928.047
837.842
616.733
410.778
295.087
226.992
188.279
154.584
133.313
120.525
123.81
115.856
113.082
96.4671
82.6895
75.3214
72.5961
67.9505
62.9765
60.0264
58.6062
57.6033
56.8172
56.7766
57.3312
1426.54
786.98
847.164
820.863
795.95
758.045
685.912
559.797
406.651
265.878
203.507
158.769
126.298
103.867
88.0598
84.33
79.254
74.2775
67.4903
64.6546
63.0231
60.7507
59.9978
60.8299
61.3651
61.0937
60.3316
59.8798
59.8422
59.2634
1474.95
742.543
694.269
681.444
676.096
641.352
593.854
503.927
339.856
236.477
179.725
137.793
108.511
85.442
69.0206
60.4149
55.8402
53.9367
56.5289
66.2688
73.7612
76.9589
77.5214
76.0804
73.465
71.2303
69.6245
68.5467
67.3221
64.3165
1537.83
802.841
666.465
619.313
593.697
552.149
504.451
405.18
282.39
211.157
159.256
121.537
97.0407
76.2329
61.0147
51.4958
48.1773
52.2791
67.131
82.851
91.1266
93.02
90.9166
86.9729
83.13
80.9779
79.95
77.826
77.168
76.6486
1618.37
876.944
633.688
571.773
539.102
490.269
424.978
332.384
250.609
193.137
145.507
112.226
91.4838
72.1944
58.6096
51.2791
52.1204
62.3213
82.7166
95.8463
100.485
100.478
96.977
91.9044
88.0373
89.3461
93.3615
89.4693
91.8648
108.274
1709.89
968.03
627.937
558.943
525.352
454.182
373.595
296.967
234.639
182.733
140.127
111.364
92.7059
72.8527
60.7542
58.2222
62.7145
75.3972
94.2582
100.78
103.625
101.606
95.911
89.4452
87.6617
102.689
122.362
112.37
117.596
182.469
1821.97
1147.29
677.855
588.94
522.696
427.945
345.301
279.232
227.981
180.806
144.916
119.933
101.027
80.5178
70.5517
71.6868
79.6837
91.8782
93.4384
96.0654
97.5592
94.2743
88.0957
82.0373
86.9928
131.19
171.979
145.017
128.785
169.516
1968.21
1478.79
970.154
688.049
530.498
417.646
336.78
274.094
232.197
192.025
149.85
138.099
120.403
95.1178
83.8851
90.208
96.4295
94.9381
89.0902
86.3448
85.5131
82.332
77.7748
74.9216
93.3026
172.757
202.468
164.631
174.031
214.517
2095.61
1749.18
1298.92
861.622
562.258
417.415
339.767
284.813
249.951
218.064
179.342
194.125
157.544
112.887
90.7971
97.3014
93.6784
89.9305
82.8235
78.1347
73.9299
69.8318
66.6821
68.1746
105.217
199.974
210.854
202.041
222.659
254.306
2141.1
1401.82
886.623
597.309
460.67
377.312
323.007
286.247
264.153
242.016
212.751
232.239
166.709
112.584
89.2719
86.2405
89.0234
82.6916
74.8053
69.0761
64.7868
61.5811
59.8161
62.9394
110.11
197.548
183.919
189.302
208.141
234.926
2206.61
1118.83
613.434
518.414
452.76
386.67
329.294
286.881
260.934
242.753
224.787
215.619
149.034
103.306
83.2529
74.8581
70.2932
64.3572
59.4377
55.5245
52.7575
51.4391
51.6354
54.7456
72.2578
178.459
200.168
182.679
201.193
226.679
2154.95
997.114
591.048
561.375
515.131
443.7
367.783
307.726
273.285
253.145
222.157
182.824
145.938
109.481
88.1548
73.098
61.8236
54.3968
49.2561
45.5415
43.0249
41.8484
42.1779
44.5281
52.122
101.147
175.907
178.501
196.051
214.061
2030.94
908.149
631.472
654.557
627.98
552.332
461.112
382.138
329.104
306.349
247.093
187.466
156.357
120.443
96.4463
79.2613
66.7494
58.0041
51.6325
46.7005
42.9823
40.5153
39.3912
39.8302
42.945
61.3681
101.205
108.051
119.212
153.267
1913.37
809.6
692.018
759.603
755.296
692.512
609.454
529.656
451.391
385.44
302.49
221.923
179.898
141.725
114.889
96.2899
83.1028
73.2325
65.4447
58.5758
52.3497
47.176
43.375
41.1622
40.8342
46.2625
60.4052
63.3958
67.1607
76.1882
1840.14
731.431
720.479
824.599
837.91
806.095
762.924
713.442
630.666
518.607
392.276
274.332
221.822
176.784
144.675
122.782
107.555
95.978
86.6941
77.7259
68.3259
59.5046
52.2215
46.9829
44.014
44.365
48.8257
51.914
55.2074
58.3692
1782.44
782.668
762.435
921.714
947.551
906.964
892.992
876.418
804.748
681.643
516.706
354.908
287.046
229.201
187.593
160.096
141.698
127.877
116.759
104.946
91.0056
76.9622
65.0831
56.2436
50.875
49.012
50.2766
52.5358
55.1111
57.536
1706.28
877.864
687.147
964.908
1156.49
1081.03
1037.66
1038.18
996.074
874.831
676.941
416.811
365.3
298.01
244.299
206.241
181.298
163.687
148.6
132.619
115.236
96.0174
79.4267
66.8942
58.6094
54.4513
53.4779
54.2548
55.9038
57.7243
1594.97
996.888
739.937
674.97
743.265
848.23
948.767
1075.86
1149.44
1060.6
851.309
524.28
423.436
356.524
299.8
253.017
215.852
186.009
161.803
141.272
122.71
105.386
88.9042
75.289
65.3927
59.2037
56.1793
55.3532
55.9523
57.1954
1600.36
1332.64
1098.74
911.195
767.238
659.53
578.376
535.854
561.939
624.686
619.709
540.264
453.522
377.02
313.005
261.155
219.883
186.934
160.446
138.829
120.731
104.956
90.6577
77.3376
67.2041
60.649
56.8791
55.0577
54.7755
55.4932
1286.07
1051.74
879.173
755.889
683.98
645.591
678.628
684.125
625.614
345.519
263.006
219.238
178.24
149.947
130.466
136.624
130.158
116.099
102.613
96.3994
90.876
84.3519
77.309
70.5317
64.4962
59.7329
56.556
54.6977
54.0917
54.2082
1307.69
842.703
771.475
902.133
939.531
872.849
813.814
715.385
549.581
320.022
240.41
191.756
150.898
122.268
102.81
98.0895
98.4671
98.705
99.0608
95.8583
87.82
77.3968
67.4594
58.9431
53.7834
51.2882
50.0021
49.7033
50.2452
51.5162
1397.04
812.138
806.501
824.591
832.017
802.54
766.534
651.38
441.82
280.102
210.42
162.262
126.483
100.199
81.6212
71.3861
67.4867
65.4326
62.6702
58.969
55.7248
52.4632
50.5836
51.1472
52.1519
52.649
52.9048
52.9578
52.747
52.8463
1475.22
782.234
707.092
720.682
730.082
692.124
638.141
512.75
342.734
242.632
183.507
141.051
109.917
86.2407
69.2894
57.9209
51.5588
48.9017
49.0497
54.2837
59.743
63.1013
65.4414
65.9529
64.9865
63.9522
63.2584
61.6349
58.8112
55.9142
1548.33
807.675
663.567
653.528
627.271
571.995
503.795
389.856
283.502
214.649
163.902
126.222
98.7621
77.9456
62.6464
52.3902
47.27
48.1014
55.6973
70.2187
81.5562
85.8442
84.722
81.1602
77.4465
75.8261
76.2385
73.1548
68.6668
63.2049
1622.41
861.282
633.646
599.005
559.386
493.554
412.695
323.737
252.543
197.218
151.862
117.85
93.4403
74.2921
60.1294
51.5673
49.6978
54.5494
68.7473
85.8119
94.1842
95.5504
92.8535
88.1721
84.6057
88.833
98.8322
93.4763
88.6963
88.4206
1702.8
953.611
630.49
587.46
536.88
454.523
367.763
296.561
237.908
188.554
147.121
116.201
93.4227
75.0855
62.3514
56.5986
57.7764
65.9436
84.3104
96.3335
98.9329
97.4826
92.8901
87.3589
87.6008
112.848
145.516
130.618
114.69
125.864
1803.27
1140.28
690.916
618.324
539.81
438.465
353.283
286.653
233.1
187.357
149.921
122.404
100.908
82.2892
70.5199
67.2074
71.7197
86.5287
94.9293
91.2562
90.1652
87.9277
83.3915
79.3496
91.3061
156.962
207.221
143.236
134.509
176.153
1942.32
1466.49
1035.29
725.079
562.148
442.199
354.087
287.572
237.136
196.574
163.373
138.881
117.981
96.291
82.6775
81.4891
94.1551
98.2451
89.6275
82.8875
79.7133
77.1461
73.9031
73.276
105.699
208.362
217.892
204.793
237.88
264.994
2056.3
1759.48
1359.27
968.933
635.071
459.966
365.047
300.496
252.557
217.423
189.627
166.933
137.994
109.814
91.3505
91.5046
96.0594
90.308
83.3637
78.3171
74.0475
69.6017
66.4922
68.9474
128.281
214.557
202.877
200.694
220.087
240.152
2056.16
1483.26
1021.27
685.602
506.53
404.115
340.044
294.87
259.367
232.864
209.404
179.975
143.698
111.311
90.117
83.5835
86.8045
85.8407
78.2654
71.9912
67.4714
63.8574
61.7254
64.9212
123.713
205.041
180.103
185.919
193.759
207.484
2087.51
1105.37
657.216
537.514
454.048
381.67
324.967
281.451
248.441
227.707
203.793
171.972
136.866
106.294
85.1949
73.4317
69.0508
64.9435
60.5164
56.7745
53.9824
52.3564
52.2884
55.7414
76.7422
189.421
195.976
182.546
201.044
221.154
2037.12
961.237
611.545
546.91
478.435
403.387
335.865
284.675
248.524
226.109
193.394
163.549
134.251
105.958
85.0111
70.3518
59.6878
52.4172
47.4249
43.9165
41.4903
40.266
40.569
43.191
51.781
106.613
178.285
185.962
215.822
251.562
1943.83
868.356
612.564
599.116
547.138
466.251
383.444
320.81
275.273
243.538
206.066
169.274
138.398
111.059
89.9653
73.9152
61.6425
52.7151
46.3709
41.721
38.3442
36.2522
35.5732
36.5505
40.5923
61.4087
101.83
107.568
133.785
199.663
1849.84
831.231
655.191
690.348
661.227
578.638
484.345
409.497
347.511
295.355
242.837
196.268
158.501
127.577
103.989
86.2335
72.8219
62.8653
55.3874
49.2258
44.0184
39.9959
37.3208
36.1009
36.8546
43.681
58.6983
62.4905
65.6496
83.8918
1773.1
839.05
703.75
778.761
784.645
714.208
631.394
559.202
484.309
401.544
317.348
247.03
194.938
156.039
127.185
105.853
90.0717
78.5524
69.8361
62.3201
55.2176
48.9089
43.773
40.1246
38.4106
39.7807
44.8308
48.0995
50.5068
53.4673
1699.88
886.85
740.966
821.035
866.136
828.193
767.646
728.584
670.451
563.644
435.391
327.696
252.849
199.964
161.775
134.195
114.369
100.107
89.513
80.2962
70.9181
61.9112
53.9795
47.7347
43.809
42.6267
44.2857
46.8194
49.5614
52.0657
1602.77
941.146
715.001
769.311
867.534
855.507
819.029
820.553
810.082
721.082
565.335
423.524
327.64
259.507
209.289
172.554
146.346
127.581
114.293
102.94
90.3057
77.93
66.8461
57.8551
51.5646
48.5878
48.4853
49.9098
52.0269
53.8871
1467.97
996.086
761.065
663.515
654.729
671.58
696.679
754.599
806.998
766.213
636.488
476.568
379.404
310.331
256.241
213.656
180.857
155.56
135.904
119.812
105.367
91.611
78.3651
67.3558
59.3231
54.5601
52.5246
52.3009
53.257
54.5974
1418.9
1203.01
1008.05
844.161
714.446
612.851
532.107
475.386
457.144
469.549
461.379
418.331
363.62
309.369
260.681
219.843
187.002
160.863
139.867
122.615
108.006
94.9213
82.2757
70.6147
61.8755
56.3286
53.202
51.8032
51.8348
52.9248
1134.29
936.984
787.677
674.911
603.037
562.11
564.753
565.151
520.95
392.746
276.603
209.847
165.72
133.666
111.709
99.6641
97.6346
104.738
106.694
99.9371
90.6968
81.0514
71.7989
63.5525
56.5943
51.9073
49.4219
48.5371
48.6659
48.9306
1214.84
825.746
702.638
742.792
771.31
736.761
688.023
620.935
497.722
346.272
245.348
186.502
145.948
116.132
94.7815
80.7468
73.7439
73.4614
75.0203
73.6604
68.2878
60.7179
53.35
46.9698
43.4878
42.1848
42.2356
43.1436
44.4914
45.6159
1335.24
832.065
744.866
745.407
752.354
721.162
671.989
550.824
405.847
285.987
210.11
161.022
125.749
99.5131
80.2099
66.6539
57.9838
53.1494
50.0811
47.1652
44.1566
41.2951
39.6287
40.3313
42.0132
43.6086
44.8563
45.3004
45.2408
45.6854
1437.94
838.828
708.32
704.396
707.23
632.714