/*--------------------------------*- C++ -*----------------------------------*\
| =========                 |                                                 |
| \\      /  F ield         | OpenFOAM: The Open Source CFD Toolbox           |
|  \\    /   O peration     | Version:  2512                                  |
|   \\  /    A nd           | Website:  www.openfoam.com                      |
|    \\/     M anipulation  |                                                 |
\*---------------------------------------------------------------------------*/
FoamFile
{
    version     2.0;
    format      ascii;
    arch        "LSB;label=32;scalar=64";
    class       volScalarField;
    location    "20";
    object      p;
}
// * * * * * * * * * * * * * * * * * * * * * * * * * * * * * * * * * * * * * //

dimensions      [0 2 -2 0 0 0 0];

internalField   nonuniform List<scalar> 
90398
(
17722.7
-7781.8
-37644
-50391.5
-49263.8
-38809.2
-25482.7
-17773.9
-14867.1
-11782.4
-8811.99
-6970.07
-5895.1
-5211.88
-4669.01
-4231.34
-3901.85
-3564.8
-3197.29
-2849.25
-2491.69
-2100.66
-1701.74
-1338.42
-1013.95
-704.428
-403.11
-165.589
-8.45496
20.2633
10725.9
-22162.7
-45803.9
-52989.9
-51579.2
-42162
-28804
-19534.1
-15062.5
-11380.5
-8476.42
-6868.71
-5906.37
-5323.21
-4849.76
-4457.67
-4116.82
-3758.27
-3394.68
-3043.89
-2663.54
-2246.03
-1822.71
-1436.05
-1085.52
-755.176
-452.307
-230.811
-64.2711
-8.55187
2920.57
-32565.4
-48143
-54766.4
-53969.5
-43798.8
-29974.8
-19984.7
-14125.3
-9968.99
-7653.69
-6517.97
-5670.01
-5173.19
-4801.3
-4511.34
-4203.84
-3849.96
-3507.53
-3168.13
-2779.69
-2348.92
-1907.89
-1499.03
-1118.34
-768.754
-471.79
-270.433
-99.8093
-19.4958
1977.81
-32565.7
-47484
-57491.6
-56902.6
-44329.6
-28585.4
-18377.8
-12103.9
-8086.05
-6743.15
-6280.43
-5482.66
-5001.63
-4683.01
-4453.21
-4189.25
-3847.73
-3526.87
-3213.53
-2849.05
-2429.04
-1980.23
-1550.83
-1146
-791.699
-506.108
-299.442
-122.123
-29.9915
12702.5
-24890.5
-46932.6
-60186.5
-56737.6
-40816.2
-23999.5
-14540
-9364.6
-6015.3
-6011.62
-6254.37
-5388.25
-4911.43
-4632.06
-4446.84
-4215.29
-3865.24
-3542.24
-3246.95
-2905.75
-2493.72
-2034.2
-1590.62
-1167.74
-823.406
-563.778
-347.559
-141.264
-34.6108
35726
-13889
-46217.6
-58770.5
-49517.5
-32501
-18541.8
-10412.1
-6490.19
-4356.07
-6566.3
-6608.38
-5330.59
-4858.26
-4622.94
-4529.55
-4361.01
-3982.33
-3612.61
-3288.88
-2944.12
-2526.73
-2049.23
-1593.95
-1173.8
-847.937
-603.403
-389.12
-164.693
-33.9974
69518.1
-432.406
-43151.2
-50531.8
-36162.2
-22625.7
-14052
-7475.06
-5152.31
-5304.62
-10449.6
-7297.41
-5327.69
-4832.74
-4637.6
-4690.2
-4653.42
-4212.99
-3739.38
-3358.71
-3005.53
-2578.74
-2080.68
-1597.03
-1153.25
-813.322
-580.998
-380.256
-163.676
-27.1135
111227
16233.6
-35925
-35829.1
-19637.8
-11837
-9757.25
-10268.9
-13696.6
-2912.03
-12700.9
-9512.98
-5608.23
-4795.38
-4792.49
-4902.98
-4929.03
-4423.4
-3829.26
-3435.74
-3135.69
-2737.84
-2239.66
-1697.55
-1169.27
-756.936
-502.277
-316.2
-130.028
1.3694
155753
35172.9
-26830.6
-20613.1
-1367.75
4959.85
-1716.91
-31042.2
6048.93
-4822.37
-46785.1
-10574
-6401.59
-4882.12
-5002.15
-5062.57
-4968.38
-4458.9
-3770.1
-3391.13
-3194.75
-2902.2
-2479.26
-1915.75
-1285.86
-752.488
-430.427
-243.328
-99.4523
50.4561
199260
53022.3
-24314.6
-15003.5
10278.8
21676.4
16341.3
-52607.7
86241.5
102599
14623.3
-12950.1
-8252.95
-5598.72
-5263.99
-5129.45
-4807.25
-4331.65
-3662.46
-3288.47
-3061.7
-2833.8
-2498.26
-1989.45
-1341.57
-736.979
-350.725
-147.488
-50.4248
137.083
239890
69789.1
-24035.9
-25795.3
-6825.97
5355.69
4132.72
-59881.4
165927
647304
-12998.4
-8440.5
-6218.27
-5591.68
-5092.03
-4499.11
-4100.27
-3674.92
-3266.82
-2880.75
-2578.93
-2255.49
-1804.62
-1228.48
-650.248
-253.253
-60.8543
-24.71
203.75
263187
78768.6
-29575.5
-47935.8
-35088.4
-22813.2
-19842.8
-44055.7
31159.1
-31886.3
-21596.4
-17109.3
-8399.11
-6167.8
-5325.77
-4715.03
-4326.16
-3918.7
-3612.74
-3212.35
-2778.99
-2392.23
-2013.25
-1584.29
-1084.61
-553.149
-151.521
31.9574
34.3037
242.697
250909
70500.9
-30547.3
-54800.3
-47662.5
-36457.6
-29242.9
-26806.8
-29937.7
-2241.27
-18718.8
-15292.9
-8211.3
-5749.72
-5176.28
-4660.43
-4312.36
-3813.62
-3479.13
-3128.7
-2732.43
-2308.73
-1892.09
-1475.86
-1028.1
-563.561
-216.086
-70.0424
-86.6055
94.3369
201114
43709.4
-32304.4
-48766.4
-43175.8
-35458.9
-28312.6
-21873.1
-20500.4
-24124.6
-16871.5
-12762.7
-7603.67
-6134.76
-5362.7
-4877.03
-4334.99
-3786.66
-3449.84
-3148.76
-2772.02
-2325.37
-1880.53
-1457.51
-1032.46
-631.536
-348.154
-220.923
-195.18
-35.366
135473
10159.8
-38710.6
-43463
-36607.1
-30496.1
-25621
-21991.3
-20372.2
-17977.4
-10752.7
-12496.3
-7957.79
-6585.95
-5691.87
-5105.99
-4439.04
-3901.21
-3548.62
-3232.61
-2847.81
-2394.37
-1943.2
-1529.17
-1135.22
-779.581
-513.811
-351.801
-234.227
-69.2817
82840.4
-14726.3
-44369.6
-41916.2
-33872.7
-27862.7
-23457.8
-20465.5
-17734.3
-12485
-8925.07
-12001
-8524.61
-6896.37
-5886.88
-5133.91
-4485.11
-4000.93
-3630.84
-3287.7
-2898.05
-2458.88
-2014.63
-1611.59
-1238.18
-896.655
-615.552
-404.747
-219.395
-64.8565
55826.6
-22513.5
-45694.8
-41551.1
-32876.2
-26227.2
-21017.1
-16908.9
-12681.8
-8185.43
-8073.19
-11239.5
-8901.47
-6994.95
-5780.49
-4977.78
-4402.47
-3954.22
-3590.24
-3259.38
-2894
-2485.82
-2049.96
-1646.53
-1272.55
-928.945
-635.612
-392.577
-173.748
-49.143
49691.4
-13251.2
-41656.7
-40866.4
-32274.9
-24447.9
-17626.4
-11864.5
-7218.43
-4849.06
-6938.97
-10235.7
-8975.64
-7077.36
-5699.13
-4861.7
-4300
-3826.85
-3458.61
-3155.84
-2832.9
-2451.08
-2023.92
-1627.5
-1259.94
-914.514
-619.94
-358.912
-132.239
-35.6496
53667.8
6760.97
-30828.3
-38839
-32335.7
-23800
-15910.8
-9186.52
-4318.8
-2681.29
-5585.99
-9192.11
-8857.94
-7179.38
-5784.77
-4915.19
-4299.56
-3750.34
-3334.12
-3047.02
-2759.95
-2380.73
-1947.53
-1553.09
-1202.1
-876.503
-583.81
-318.974
-102.936
-23.74
59136
24295.9
-16787.9
-33222.2
-31227.5
-23640.7
-15616.2
-8527
-3286.72
-1462.42
-4499.13
-8198.38
-8512.22
-7210.63
-5913.99
-5037.29
-4378.66
-3751.86
-3261.63
-2954.09
-2690.09
-2327.35
-1889.39
-1479.29
-1127.85
-816.632
-535.217
-287.562
-78.0997
-9.28199
22559.9
-7986.81
-40420.4
-54169.7
-54034.7
-42639.8
-26649.3
-18426.5
-16291
-12979.3
-9398.88
-7173.51
-5992.47
-5329.72
-4831.49
-4381.78
-4052.26
-3706.92
-3313.58
-2935.62
-2558.44
-2163.43
-1766.67
-1389.07
-1039.99
-711.772
-410.995
-182.5
-18.5163
16.6253
12410.6
-27567.2
-50804.9
-58458.8
-58023.3
-47997
-31546.8
-20977.4
-16801.1
-12723.2
-9115.63
-7101.18
-6026.05
-5420.04
-4969.98
-4597.12
-4291.15
-3941.65
-3557.71
-3167.6
-2755.96
-2328.61
-1902.21
-1498.48
-1122.31
-774.027
-472.678
-253.075
-71.5756
-7.16947
4164.26
-36498.1
-53649.4
-63048.3
-63403.3
-50999.4
-33551.7
-21998.5
-16162.6
-11547.6
-8398.22
-6775.17
-5798.74
-5254.6
-4870.71
-4571.96
-4289.15
-3958.5
-3602.51
-3220.05
-2802.64
-2372.07
-1939.94
-1526.72
-1133.04
-777.512
-491.972
-288.304
-97.7804
-14.8888
6412.56
-36378.8
-57901.6
-73292.8
-70883.9
-52218.2
-32190.7
-20477.2
-14136.3
-9865.57
-7647.69
-6529.13
-5615.55
-5086.46
-4738.4
-4472.1
-4205.8
-3908
-3576.89
-3207.72
-2800.07
-2383.77
-1960.99
-1541.27
-1134.14
-782.042
-512.376
-313.232
-124.944
-27.1043
19044.1
-34752.3
-67894.3
-84329.4
-72810.3
-47652
-27436.5
-17202.7
-11552.9
-8144.06
-7161.21
-6444.34
-5516.19
-5001.11
-4694.86
-4450.23
-4231.65
-3941.5
-3600.52
-3235.48
-2836.77
-2419.93
-1988.98
-1555.14
-1138.24
-792.42
-535.941
-342.884
-146.16
-33.9865
37319.1
-36766.2
-79907.6
-87691.1
-64735.5
-37983.7
-22064.3
-14137.6
-9545.94
-7267.22
-7560.33
-6645.06
-5476.3
-4957.44
-4709.43
-4540.94
-4403.98
-4069.08
-3678.42
-3299.75
-2896.95
-2457.05
-1990.89
-1534.98
-1115.81
-782.521
-543.328
-361.358
-170.771
-53.062
58047.5
-42915.8
-87721.8
-80907.1
-51428
-29856.1
-18536.1
-12615
-9676.4
-8306.42
-9303.31
-7103.22
-5520.88
-4978.1
-4777.55
-4778.48
-4747.3
-4289
-3797.76
-3396.2
-2987.98
-2517.99
-2003.19
-1506.88
-1067.79
-732.773
-509.67
-347.92
-184.982
-70.813
79725.2
-50685
-88258.3
-68294.4
-40893.4
-25356.4
-17394.5
-13643.5
-10889.5
-10195.8
-12901.6
-8682.98
-5945.63
-5068.64
-4926.23
-5052.62
-5036.07
-4448.55
-3858.12
-3492.94
-3135.24
-2657.18
-2098.55
-1540.37
-1046.48
-672.256
-448.859
-309.79
-181.248
-62.1651
102326
-56826.3
-83647.3
-57902.9
-35589.7
-24533.1
-21754.7
-17116.1
-19208.9
-10859.8
-22330.6
-10813
-6623.89
-5175.19
-4986.77
-5176.6
-5067.52
-4445.79
-3805.36
-3422.38
-3121.98
-2712.24
-2196.19
-1620.19
-1065.76
-623.282
-377.139
-268.407
-187.27
-29.7061
128634
-59140
-85588.3
-56678.6
-37169.9
-30429.3
-35408.9
-32129
-29964.3
-16488.4
-48097.3
-14962.9
-7623.7
-5984.23
-5317.35
-5239.17
-4868.64
-4275.27
-3716.51
-3277.49
-2922.01
-2577.04
-2146.23
-1611.81
-1040.03
-541.653
-265.505
-181.235
-166.141
42.5175
158808
-54325.5
-95148.1
-70255.2
-52343.7
-45947
-51305.5
-50179.7
-62217
-50604.3
-6376.41
-5521.72
-4766.56
-4395.22
-4050.24
-3704.58
-3272.19
-2849.39
-2461.5
-2030.79
-1519.71
-956.565
-431.484
-138.702
-88.2627
-150.712
106.826
186160
-45657.1
-110805
-95024.5
-74116.4
-63182.8
-59971
-57543.4
-68107.4
-29816.2
-29794.2
-37293.2
-8561.01
-6800.24
-5177.42
-4601.85
-4257.83
-3922.16
-3608.27
-3215.67
-2785.1
-2352.75
-1905.77
-1420.66
-900.842
-394.336
-86.6381
-48.354
-137.95
94.37
191638
-32409.1
-107563
-104799
-86413.2
-72724.9
-63039.1
-53562.3
-43984.4
-27586.9
-27682
-16364.4
-8490.4
-6382.28
-5168.83
-4647.96
-4275.82
-3859.01
-3542.42
-3190.31
-2766.69
-2309
-1854.23
-1396.57
-922.961
-467.881
-182.185
-135.553
-199.646
1.36122
164522
-23246.1
-83346.2
-83374.6
-72071.6
-62598.4
-53312.9
-44231.7
-38785.7
-37875.2
-16996.1
-12817
-7579.24
-6101.55
-5434.83
-4867.19
-4363.05
-3872.18
-3527.43
-3198.5
-2787.47
-2319.68
-1855.6
-1407.67
-964.67
-567.989
-317.977
-244.338
-240.201
-65.013
116508
-26645.5
-63184.8
-58397.5
-48979.5
-43094.6
-38100
-33983.3
-31434.9
-27029.2
-11101.3
-13020.1
-7988.54
-6546.73
-5746.61
-5115.61
-4512.52
-3991.78
-3625.38
-3281.8
-2856.93
-2378.32
-1909.28
-1473.14
-1062.41
-709.008
-467.768
-348.736
-266.054
-87.9711
73935.8
-34316.3
-55358.5
-47539.9
-38184.8
-32894.5
-29327.7
-26991.1
-24537.9
-18617
-10554.3
-12692.8
-8593.98
-6875.58
-5901.7
-5200.29
-4560.08
-4063.96
-3705.02
-3339.42
-2905.78
-2430.88
-1971.04
-1555.19
-1176.15
-845.693
-586.385
-411.562
-256.814
-76.821
52184.2
-34821.2
-52563.2
-44529.8
-34667.5
-28542.9
-24005
-20397.1
-16767.4
-12016.2
-9959.24
-12121.8
-9038.15
-7102.7
-5831.22
-5079.31
-4483.75
-4020.04
-3659.67
-3310.2
-2905.62
-2459.32
-2014.67
-1610.93
-1247.88
-917.753
-632.223
-414.983
-215.857
-57.3784
49318.1
-22418.8
-47841.9
-43419.8
-33228
-25446.3
-18780.8
-13025.6
-8853.64
-6416.06
-8196.05
-11189.3
-9242.41
-7281.35
-5856.57
-4981.95
-4366.09
-3888.48
-3511.66
-3194.68
-2839.77
-2433.03
-2003.24
-1607.17
-1252.47
-916.056
-618.756
-378.734
-163.824
-40.1023
55986.7
2498.7
-35338.8
-41678
-33857.8
-24518.8
-16253.2
-9425.1
-4455.27
-2683.19
-5921.43
-9931.17
-9171.01
-7423.28
-5988.03
-5071.47
-4387.91
-3811.13
-3369.51
-3061.92
-2754.44
-2371.98
-1942.77
-1549.96
-1197.09
-864.987
-572.19
-334.631
-122.728
-23.5531
64128.5
26806.4
-16491.5
-33658.4
-31829.4
-24241.4
-16230.6
-8887.6
-2933.84
-625.106
-3954.31
-8370.86
-8618.41
-7302.99
-6000.71
-5132.35
-4459.08
-3827.18
-3322.85
-2993.13
-2698.49
-2320.17
-1887.28
-1482.61
-1125.95
-804.953
-525.272
-295.821
-86.3571
-4.08486
23736.5
-12025.8
-46771
-61111
-60657.3
-47592.7
-28722.5
-20312.5
-18579.6
-14903
-10331.9
-7404.9
-5980.52
-5230.98
-4813.46
-4498.29
-4209.32
-3873.59
-3470.13
-3065.27
-2665.02
-2261.47
-1857.13
-1454.8
-1071.01
-716.156
-407.33
-168.965
11.0829
45.3569
12115.6
-34143.5
-59100.8
-67674.3
-66408.7
-52939.3
-33230.3
-23046.2
-19474.4
-14756.3
-10022.2
-7365.45
-6033.82
-5343.36
-4921.04
-4595.33
-4314.59
-3993.28
-3631.8
-3234.81
-2809.33
-2380.03
-1953.71
-1532.64
-1131.12
-763.378
-451.972
-216.087
-25.0574
30.8402
3408.08
-43709.6
-64699.9
-75037.7
-71612.3
-53924
-34276.2
-24121.9
-18952.8
-13545.5
-9356.37
-7142.73
-5937.6
-5281.39
-4873.5
-4568.15
-4274.6
-3951.25
-3607.21
-3223.89
-2799.31
-2372.04
-1951.84
-1536.36
-1131.88
-763.971
-459.397
-234.582
-41.9264
22.0525
4853.58
-46546.4
-72907.3
-85167.7
-75194.4
-52275.9
-32419.2
-22417.9
-16588
-11678.7
-8574.62
-6909.12
-5817.56
-5185.99
-4790.93
-4480.28
-4178.65
-3877
-3551.62
-3173.02
-2751.79
-2336.67
-1930.07
-1520.7
-1114.83
-757.975
-466.188
-256.435
-72.7273
4.99793
12856.3
-51601.6
-84655.6
-91728.2
-73014.3
-46694.7
-28198.2
-19207.9
-13764.6
-9951.7
-8015.51
-6783.48
-5729.87
-5127.99
-4758.11
-4455.08
-4183.35
-3894.62
-3554.19
-3164.09
-2745.9
-2332.96
-1917.66
-1500.03
-1092.56
-736.928
-455.699
-270.35
-113.427
-30.7349
20319.9
-60625.1
-93466.6
-89621.8
-63283.3
-38192.6
-24021.5
-16589
-11888.7
-9109.29
-8029.32
-6857.74
-5697.04
-5099.07
-4766.57
-4498.44
-4279.13
-3975.57
-3602.14
-3205.37
-2786.39
-2348.5
-1896.32
-1456.49
-1044.93
-695.115
-431.3
-265.064
-134.883
-73.517
24458.4
-71074.4
-95102.7
-79264.6
-50778.5
-31805.7
-21603
-15389.8
-11600.4
-9564.53
-8729.61
-7138.5
-5747.52
-5131.83
-4836.42
-4648.76
-4493.05
-4106.7
-3693.69
-3305.7
-2881.47
-2403.3
-1900.97
-1424.61
-994.68
-645.705
-404.421
-262.163
-144.043
-88.6198
26098.3
-79683
-90414.1
-66201.4
-42769.6
-28861.4
-20803.7
-15690.4
-12485
-11226.1
-9935.47
-8060.08
-6136.22
-5336.84
-4946.79
-4793.27
-4664.94
-4190.46
-3712.82
-3367.81
-2983.66
-2493.65
-1955.69
-1442.63
-978.672
-604.725
-389.088
-294.992
-196.388
-94.2447
28797.8
-84002.2
-82500.4
-57265.7
-39928.6
-28619
-22239.1
-18359.8
-14027.2
-12795.8
-11115.6
-9259.46
-6691.75
-5674.44
-4985.48
-4824.08
-4674.83
-4183.19
-3659.88
-3290.88
-2945.22
-2490.13
-1971.64
-1455.73
-962.393
-553.02
-370.265
-362.735
-314.784
-117.086
38157.9
-85936
-80038.4
-54054.9
-40092.8
-31748.2
-27223.7
-24526.8
-16970
-12701.6
-14572.7
-9154.2
-7173.67
-5503.13
-5204.45
-4951.38
-4600.59
-4111.11
-3612.44
-3195.35
-2813.65
-2377.5
-1901.54
-1408.98
-907.807
-472.343
-315.339
-376.567
-380.251
-97.7567
55020
-85786.1
-84375.4
-60780.7
-47958.9
-39394.2
-34401.6
-31636.6
-28486.9
-23307.5
-15637.2
-87133.1
-4935.56
-4667.8
-4401.65
-3986.53
-3573.45
-3166.17
-2748.25
-2299.31
-1828.17
-1345.28
-840.519
-383.043
-227.171
-328.228
-387.006
-54.3505
78679.7
-84202.5
-97196.4
-73690.5
-58452
-49191.5
-42816.6
-37431.7
-35430
-28150.6
-30864.9
12768.8
-8368.69
-13085.7
-4987.05
-4582.83
-4265.14
-3909.73
-3549.39
-3154.22
-2723.89
-2254.36
-1778.15
-1303.97
-821.532
-374.715
-197.57
-318.287
-420.276
-106.523
94334.5
-74961.2
-99370.9
-82064.8
-67146.2
-57336.2
-49293.2
-42019.7
-38523.5
-42245.8
-79827.6
-17739.1
-7825.28
-6216.79
-5125.57
-4625.28
-4256.49
-3892.41
-3540.75
-3160.54
-2728.7
-2250.94
-1775.77
-1311.84
-851.282
-430.402
-226.899
-290.705
-376.155
-127.563
90622.5
-62276.4
-87218.7
-76038.1
-64505.1
-56682.5
-49386.9
-43074.1
-40068
-40436.7
-20505.1
-12772.6
-7454.21
-6083.08
-5354.36
-4783.82
-4333.6
-3927.86
-3568.15
-3188.23
-2749
-2267.95
-1796
-1341.22
-899.042
-515.47
-300.325
-272.88
-269.749
-83.493
69491
-54091.2
-71489.2
-61765
-52698.9
-47703.1
-43434.9
-39907.1
-37552.3
-33110.9
-14912.9
-13089.5
-7974.53
-6423.75
-5597.92
-4979.67
-4449.72
-3998.85
-3639.65
-3254.1
-2800.82
-2313.88
-1840.52
-1395.21
-974.469
-624.759
-401.473
-311.78
-239.882
-79.9646
47858.5
-51191.1
-62197.3
-51742.7
-42514.7
-38144.5
-35375.4
-33319.1
-31639.7
-26334.9
-15126.7
-13162.4
-8683.98
-6790.99
-5749.61
-5089.33
-4503.5
-4035.51
-3684.71
-3307.41
-2850.72
-2363.31
-1894.58
-1468.38
-1078.76
-754.817
-512.474
-366.434
-228.164
-69.3468
39121.5
-46131.3
-58141.6
-47736.7
-37259.1
-31643.3
-27758.5
-24898.9
-22938.2
-19317.9
-14313.4
-12867.9
-9257.39
-7159.97
-5861.08
-5067.66
-4451.75
-3983.51
-3630.6
-3285.08
-2858.32
-2393.01
-1941.07
-1538.03
-1178.45
-860.697
-591.057
-392.524
-201.129
-44.8667
42946.3
-30772.1
-52493.1
-45918.5
-34935
-27256.1
-21042.1
-15843.5
-12979.1
-11530.2
-11681.2
-12061.9
-9501.09
-7440.68
-6025.83
-5100.68
-4399.26
-3880.8
-3499.65
-3181.23
-2805.68
-2378.79
-1951.86
-1567.98
-1221.6
-892.323
-600.293
-365.257
-150.705
-16.9666
53124.3
-3137.25
-39116.6
-43633.1
-35226.6
-25870.8
-17688.7
-11023.4
-6634.91
-5597.7
-8273.99
-10732.2
-9366.82
-7546.64
-6140.22
-5200.72
-4453.62
-3840.73
-3387.88
-3070.81
-2739.43
-2343.21
-1925.1
-1540.15
-1183.36
-847.438
-552.589
-315.806
-99.9337
5.47442
63369.8
24573.8
-18458.3
-34534.7
-32324.1
-24877.5
-17238.2
-10265.8
-4462.28
-2385.46
-5473.31
-9017.88
-8759.92
-7358.12
-6075.51
-5197.83
-4489.94
-3848.63
-3347.32
-3013.76
-2700.24
-2313.63
-1889.41
-1488.05
-1122.64
-792.731
-508.468
-274.814
-62.7991
17.8869
19061.6
-18179
-53156.7
-66442.3
-63720.8
-49030.4
-30157.3
-22486.3
-20682.1
-16743.2
-11388.8
-7852.23
-6115.96
-5178.12
-4684.37
-4407.23
-4189.68
-3914.14
-3550.67
-3147.62
-2743.77
-2348.73
-1945.81
-1527.2
-1116.72
-735.237
-407.146
-152.633
39.5511
73.9272
7890.51
-39932.7
-66210.1
-73789.3
-69234.5
-53136.9
-34247
-25492.7
-21812.1
-16527.9
-10970.1
-7774.69
-6160.55
-5295.08
-4815.43
-4510.79
-4246.6
-3962.71
-3637.73
-3255.41
-2834.68
-2416.7
-1998.17
-1569.81
-1150.88
-762.339
-431.119
-180.919
15.6062
62.6023
-923.546
-51160.1
-72780.7
-80240.5
-72100.8
-52894.9
-35527.2
-26872.2
-21368
-15149
-10235.1
-7557.18
-6124.2
-5330.1
-4859.69
-4528.61
-4228.77
-3912.76
-3580.47
-3208.78
-2790.41
-2366.67
-1954.09
-1538.48
-1125.91
-739.874
-416.676
-183.707
1.02625
49.6824
-3195.66
-57007.5
-80578.4
-86779.7
-72821.4
-51132.6
-34264.9
-25216.7
-18841.5
-13191
-9419.18
-7313.17
-6043.07
-5299.88
-4832.86
-4483.48
-4161.9
-3840.74
-3516.2
-3144.7
-2723.46
-2303.95
-1898.5
-1496.75
-1089.64
-716.426
-409.643
-198.229
-31.6376
25.2513
-2116.97
-64160.4
-89389.1
-89710.1
-70221.4
-46874.2
-30881.7
-22082.8
-15977.1
-11510
-8824.32
-7156.06
-5969.68
-5269.6
-4816.51
-4471.8
-4156.35
-3839.98
-3506.23
-3129.98
-2707.4
-2288.51
-1869.26
-1457.72
-1047.53
-684.735
-388.952
-211.377
-93.8943
-43.2111
-2926.8
-73257.4
-93921
-86440.7
-62520.3
-40748.2
-27543.6
-19524.2
-14117.2
-10659.2
-8668.63
-7131.61
-5931.38
-5257.33
-4826.29
-4487.7
-4194.77
-3887.21
-3532.85
-3149.52
-2730.69
-2291.6
-1841.23
-1409.2
-991.612
-633.873
-357.833
-202.884
-105.766
-63.6776
-7213.05
-81374.2
-92325.8
-77230.2
-53051.5
-35973.8
-25350.6
-18235.6
-13613.8
-10772.2
-8975.59
-7254.9
-5943.86
-5273.74
-4862.16
-4535.98
-4282.61
-3964.13
-3587.36
-3207.93
-2789.3
-2322.04
-1837.1
-1375.57
-938.346
-580.33
-343.507
-225.37
-133.156
-94.9454
-13461.8
-85850
-85939.3
-66551.8
-46975.9
-33638.2
-24692.3
-18372.1
-14131.5
-11582.6
-9875.68
-7868.86
-6210.24
-5428.86
-4891.43
-4574.33
-4375.77
-4002.91
-3585.84
-3230.88
-2837.84
-2367.89
-1863.76
-1377.38
-911.203
-536.727
-360.405
-316.133
-228.044
-123.524
-18272
-85094.9
-77907.6
-59708.1
-44797.7
-33755.4
-26145.5
-20229.5
-16230.5
-13013.5
-9822.53
-8363.51
-6529.95
-5828.65
-4905.1
-4616.55
-4461.13
-3999.31
-3552.38
-3204.18
-2825.43
-2364.16
-1861.62
-1367.91
-876.637
-480.89
-391.293
-453.223
-367.561
-151.202
-17514.6
-84752.8
-73826.8
-56803.3
-45230.9
-36556.8
-30303.2
-24308.6
-19332.9
-16294
-10071.9
-9511.8
-6792
-5953.92
-5086.23
-4771.51
-4461.03
-3983.53
-3551.85
-3192.99
-2795.29
-2321.68
-1818.48
-1324.54
-818.219
-409.521
-367.267
-477.796
-424.845
-135.769
-9973.88
-87578.7
-75703.7
-59858.5
-49637.1
-41381.8
-35184.7
-29215.8
-23294.3
-19581
-9715.97
-11725.2
-6140.1
-6180.62
-4977.87
-4684.96
-4354.66
-3912.98
-3512.39
-3157.6
-2753.56
-2273.03
-1771.34
-1278.34
-765.797
-342.23
-299.275
-453.064
-448.693
-111.286
5213.19
-90745.2
-84010.1
-66049.8
-54454.8
-45694.1
-38714.8
-32637.9
-26848.3
-22995.3
-20963.3
-25193.7
-7282.61
-5683.1
-4990.08
-4566.43
-4224.25
-3851.72
-3497.21
-3132.19
-2713.29
-2227.12
-1733.44
-1254.54
-767.197
-345.661
-281.315
-483.3
-535.965
-195.577
20032.9
-85769.7
-85568.4
-68735.1
-57054
-48416.6
-41056.2
-34919.6
-30546.9
-27795.3
-28971.5
-13239.7
-7274.07
-5892.16
-5097.58
-4614.3
-4253.95
-3894.24
-3524.96
-3132.75
-2701.11
-2217.7
-1735.65
-1267.72
-801.417
-395.945
-270.904
-428.058
-506.038
-229.219
27021.7
-75629.6
-79671.9
-65949.1
-55718.3
-48537.1
-42096.9
-36761.1
-33064.3
-29084.3
-17691.6
-11142
-7350.98
-6018.41
-5268.41
-4736.86
-4320.39
-3938.92
-3561.91
-3149.42
-2700.93
-2218.19
-1749.12
-1293.66
-847.942
-471.54
-291.857
-321.256
-331.917
-144.524
24332.7
-66502.3
-71003.4
-59241.6
-50355.1
-44921.6
-40346.4
-36626
-33579.8
-28226
-17536.5
-11884.2
-7943.21
-6335.73
-5439.12
-4832.93
-4358.7
-3960.52
-3604.67
-3196
-2737.47
-2250.25
-1781.63
-1334.97
-906.286
-556.896
-349.391
-296.304
-242.282
-98.6825
20817.6
-60818.8
-64613.9
-53169.1
-43968.3
-39106.6
-35755.6
-33238.9
-31012.1
-26058
-17572.9
-12671.2
-8677.54
-6714.52
-5604.39
-4910.04
-4370.8
-3953.87
-3619.31
-3238.54
-2781.82
-2293.94
-1823.26
-1392.56
-986.769
-661.074
-432.659
-320.458
-207.212
-69.6493
23747.9
-52745.3
-60751.9
-49761.3
-39168.6
-33253.1
-29354.3
-26639.5
-24879.3
-21929.7
-16696.1
-12863.3
-9310.17
-7116.96
-5795.61
-4976.22
-4370.05
-3910.39
-3565.8
-3225.95
-2796.83
-2324.79
-1866.51
-1458.57
-1085.49
-773.816
-526.878
-358.224
-191.198
-47.5712
32597.4
-35299.4
-54278.3
-47401.8
-36652.5
-29026.9
-23060.6
-18371.6
-16386
-15601
-14207.8
-12325.1
-9563.47
-7436.63
-6012.03
-5088.85
-4394.35
-3856.41
-3467.82
-3152.59
-2772.27
-2331.57
-1900.1
-1515.45
-1166.1
-851.935
-580.32
-363.751
-161.122
-24.2887
44194.8
-8252.96
-40778
-44262.6
-36139.4
-27289.5
-19619.4
-13342.7
-9835.62
-9450.05
-10868.2
-11216.9
-9367.76
-7520.22
-6139.27
-5200.61
-4463.16
-3856.47
-3401.77
-3080.07
-2736.85
-2330.78
-1918.05
-1536.56
-1180.21
-852.471
-560.949
-323.456
-112.884
1.10261
54964.4
17810.4
-21641.6
-35495.8
-32797.4
-25619.5
-18546.3
-12407.6
-7704.48
-6178.2
-8037.82
-9595.11
-8764.15
-7312.21
-6069
-5184.79
-4474.6
-3854.99
-3367.54
-3030.97
-2710.29
-2331.28
-1920.22
-1521.91
-1149.47
-812.681
-519.867
-282.186
-74.1231
12.0857
10904.2
-22878.8
-55673.1
-66933.4
-61952.6
-47207
-30685.3
-23540.5
-21218.3
-17345
-12045.5
-8304.98
-6359.22
-5294.96
-4661.76
-4290.08
-4059.29
-3825.3
-3516.21
-3142.62
-2763.72
-2394.39
-2002.4
-1577.44
-1148.67
-743.705
-397.486
-133.968
57.8219
88.8325
1940.3
-42035.2
-68402.5
-74104.9
-66640.1
-50653.6
-34420.5
-26316.3
-22075.5
-17031.6
-11556.4
-8163.18
-6369.34
-5374.87
-4776.41
-4406.83
-4155.14
-3898.68
-3585.31
-3220.63
-2828.7
-2430.27
-2016.93
-1583.36
-1149.41
-741.754
-397.868
-141.288
50.9285
84.0483
-5689.17
-54431.3
-74870
-78481.9
-68145
-51074.6
-36378.4
-27750.3
-21777.5
-15646.3
-10763
-7909.4
-6328.16
-5419.35
-4855.54
-4470.28
-4162.42
-3858.32
-3529.91
-3167.54
-2766.61
-2354.78
-1941.65
-1520.1
-1093.51
-699.091
-373.231
-139.987
38.5466
68.6827
-10119.8
-62655
-81057.1
-82107.6
-68347.9
-50287.8
-35774.5
-26430
-19537.1
-13833
-9946.49
-7648.38
-6255.62
-5413.54
-4867.41
-4471.77
-4132.08
-3803.4
-3473.6
-3106.57
-2691.31
-2273.99
-1865.9
-1458.37
-1041.48
-666.721
-360.65
-153.624
4.12793
38.0635
-13321.9
-70255.7
-86723
-83364.7
-66364
-47107.6
-32819.3
-23565.4
-17021.9
-12356.6
-9365.75
-7467.35
-6189.03
-5397.35
-4869.06
-4479.76
-4132.9
-3797.3
-3463.82
-3099.96
-2675.28
-2248.82
-1826.94
-1412.44
-995.759
-631.648
-345.095
-184.208
-61.7958
-13.4787
-17676.8
-77835.4
-88759.4
-80391.9
-60648.6
-42136.2
-29515.5
-21054.5
-15337.8
-11572.7
-9134.79
-7393.11
-6144.92
-5392.06
-4883.26
-4497.83
-4150.57
-3814.66
-3469.61
-3109.38
-2688.81
-2249.53
-1800.11
-1368.53
-944.704
-583.631
-325.314
-220.711
-141.526
-66.507
-23605
-83243.2
-86263.7
-73222.2
-53396.4
-37909.9
-27165.3
-19662.3
-14717.5
-11499.1
-9237.71
-7408.81
-6124.01
-5398.19
-4908.63
-4506.04
-4159
-3841.41
-3494.36
-3137.09
-2723.32
-2268.63
-1791.98
-1335.43
-889.408
-528.592
-329.559
-277.501
-209.615
-109.359
-30025.9
-84951.1
-80184.7
-64913
-48090
-35380.1
-26252.6
-19652.5
-15077.6
-11990
-9606.45
-7456.93
-6100.27
-5394.69
-4902.49
-4477.28
-4192.73
-3866.91
-3519.37
-3163.36
-2755.22
-2297.11
-1803.52
-1320.58
-842.955
-472.126
-370.598
-401.471
-341.971
-169.233
-35260.4
-82079.7
-73048.8
-58791.4
-45285.1
-34812.5
-27032.4
-21021.5
-16422.3
-12905.7
-10481.7
-7915.49
-6224.25
-5534.07
-4887.02
-4523.66
-4312.89
-3902.01
-3533.51
-3184.33
-2773.75
-2309.68
-1802.91
-1298.32
-788.548
-402.088
-394.724
-474.495
-405.324
-191.136
-37409.1
-80996.6
-68891.4
-55337.6
-44830.3
-36426.5
-29404.9
-23391.7
-18471.2
-14380.2
-10829.6
-7786.67
-6021.14
-5648.4
-4992.24
-4674.64
-4406.54
-3903.83
-3520.44
-3186.9
-2780.97
-2302.61
-1780.7
-1262
-729.668
-333.874
-330.953
-436.669
-396.191
-139.109
-35363.2
-84598.7
-69812.6
-56799.8
-47381.7
-39404.1
-32413.1
-26108.5
-20801
-16300.6
-12196.2
-8434.38
-6083.43
-5555.91
-4994.41
-4682.52
-4320.33
-3817.08
-3462.03
-3145.01
-2745.77
-2261.51
-1740.74
-1220.36
-681.908
-276.348
-289.011
-441.826
-405.633
-112.114
-27268
-88955.1
-74978
-60185.5
-49785.8
-41583.9
-34517.4
-28275.5
-23028.6
-18828.3
-15569.1
-9645.19
-6497.15
-5581.17
-5038.56
-4614.35
-4178.47
-3774.63
-3443.53
-3106.63
-2697.81
-2212.63
-1703.09
-1204.8
-697.153
-291.83
-304.829
-504.731
-501.876
-215.103
-16919.3
-86890.4
-76531.4
-61163.2
-50435.5
-42335.8
-35521.3
-29716.8
-25002.7
-20741.4
-14221.6
-9362.31
-6760.14
-5708.96
-5111.34
-4627.14
-4217.26
-3842
-3478.84
-3093.65
-2662.75
-2180.27
-1689.03
-1214.78
-739.65
-351.006
-298.728
-483.634
-497.268
-250.13
-7909.43
-79755.4
-73719.3
-59539.4
-49128.6
-41843.7
-35762.2
-30596.1
-26273.6
-21406.8
-14523.5
-10083.6
-7199.39
-5956.18
-5243.55
-4734.72
-4303.65
-3907.49
-3525.06
-3105.44
-2652.72
-2170.09
-1696.85
-1244.42
-796.875
-430.048
-277.889
-343.383
-348.135
-172.977
-2222.79
-71979.7
-69002.5
-56022.3
-46153.6
-39818.8
-34806.6
-30568.2
-26848.4
-21878.1
-15226.6
-10834.3
-7734.55
-6244.6
-5388.32
-4808.72
-4340.17
-3934.63
-3565.8
-3147.99
-2682.42
-2194.61
-1726.24
-1287.24
-859.652
-507.958
-305.047
-277.972
-235.491
-100.566
3704.16
-64987.3
-64861.3
-52585.2
-42502.8
-36400.9
-32094.1
-28779.9
-26016.1
-21863.4
-16032.4
-11620.1
-8359.72
-6582.61
-5547.23
-4871.45
-4352.18
-3931.92
-3577.41
-3186.14
-2720.33
-2231.49
-1762.41
-1333.44
-923.932
-587.725
-364.156
-281.113
-188.197
-61.0566
12005.8
-54111.5
-60770.9
-50055.5
-39369.1
-32599.1
-27895.1
-24577
-22555.6
-19898.4
-15805.2
-12055.8
-8923.55
-6940.43
-5727.87
-4940.08
-4356.06
-3896.27
-3538.81
-3186.47
-2745.52
-2265.07
-1804.15
-1387.29
-1001.59
-684.373
-451.426
-314.473
-168.198
-41.7628
22109
-35539.6
-53211
-47326.5
-37239.5
-29599.1
-23758.9
-19293.9
-17074.4
-15912.6
-14139.5
-11775.5
-9181.57
-7220.69
-5911
-5040.97
-4392.1
-3871.03
-3474.88
-3145.59
-2749.4
-2292.03
-1848.18
-1446.58
-1083.49
-774.497
-522.176
-332.216
-147.138
-23.2085
32671.2
-11463.7
-39906.8
-43265.6
-36081.8
-27981.8
-21097.2
-15544.9
-12342.2
-11658.5
-11790.9
-10867.7
-8996.72
-7283.97
-6010.73
-5124.36
-4442.36
-3878.54
-3433.92
-3098.45
-2739.73
-2321.45
-1894.56
-1500.36
-1139.68
-819.562
-537.724
-309.925
-106.67
0.0556793
41960.8
10121.6
-23749.8
-35374.2
-32592.6
-25916.4
-19521.7
-14257.2
-10521.7
-9115.31
-9576.42
-9656.66
-8512.54
-7122.62
-5964.93
-5112.1
-4438.77
-3867.14
-3401.2
-3051.98
-2719.25
-2345.47
-1937.98
-1535.37
-1157.05
-816.546
-519.897
-283.466
-79.4653
9.5046
2960.06
-24337.7
-53238
-62622.9
-56900.5
-43725.4
-30202.3
-23352.1
-20511.2
-16783.5
-12170.4
-8646.27
-6627.92
-5480.14
-4773.55
-4290.17
-3978.19
-3728.68
-3440.98
-3094.13
-2747.57
-2403.92
-2023.08
-1596.97
-1154.77
-731.84
-375.698
-114.831
67.1176
88.8028
-3229.96
-39469.7
-64619.4
-69222.3
-60995.2
-46882.7
-33311.1
-25454.5
-20955
-16416.7
-11711.6
-8469.84
-6607.12
-5525.26
-4849.54
-4384.17
-4065.61
-3801.31
-3503
-3152.44
-2788.89
-2412.79
-2006.8
-1572.18
-1126.91
-709.935
-361.485
-108.35
68.8689
84.7873
-8789.91
-51503
-71235.9
-72603.6
-62403.6
-48041.7
-35224.7
-26495.5
-20581.9
-15300
-10976.8
-8193.35
-6544.49
-5549.12
-4907.19
-4456.27
-4109.82
-3798.83
-3470.6
-3113.58
-2734.26
-2339.43
-1927.27
-1497.17
-1061.34
-665.89
-338.514
-107.328
58.095
70.124
-13024.2
-61052.2
-76645.2
-75123.4
-63138.6
-48258.2
-35200.7
-25639.3
-18961.2
-13873
-10239.9
-7921.12
-6463.43
-5542.44
-4926.42
-4479.03
-4113.59
-3777.19
-3437
-3067.08
-2664.91
-2258.3
-1848.04
-1430.61
-1007.6
-629.274
-325.086
-122.03
27.9829
45.2727
-16952.2
-69197.5
-80957.2
-76180.6
-62349.2
-46354.7
-32998
-23516.6
-17113.3
-12696.9
-9704.36
-7723.05
-6390.74
-5526.58
-4934.11
-4496.32
-4124.48
-3775.14
-3434.72
-3064.3
-2641.02
-2216.48
-1796.4
-1379.84
-959.868
-590.796
-314.791
-159.618
-29.2511
5.74789
-21479.6
-76092.3
-82445.4
-74374.8
-58669.6
-42565.8
-30164.5
-21529.5
-15832.3
-12034.4
-9444.03
-7615.44
-6336.47
-5516.46
-4946.21
-4518.54
-4140.42
-3778.03
-3432.3
-3071.4
-2643.16
-2204.27
-1764.63
-1334.25
-904.845
-540.184
-311.246
-229.486
-127.645
-47.8089
-26236.3
-80499.3
-80443.7
-69442.5
-53221.3
-38786.8
-27964.6
-20409.5
-15324.7
-11883.6
-9426.25
-7572.55
-6292.78
-5511.89
-4962.62
-4526.36
-4124.66
-3768.82
-3433.01
-3084.86
-2667.74
-2221.02
-1753.57
-1296.54
-842.041
-475.505
-332.002
-353.751
-287.596
-127.337
-30483.1
-81514
-75640.5
-63168.8
-48379.1
-36145.5
-26995
-20335.6
-15557.8
-12157.4
-9595.19
-7560.7
-6243.8
-5496.3
-4963.71
-4491.17
-4114.31
-3779.72
-3466.17
-3127.63
-2715.17
-2257.77
-1761.53
-1271.15
-778.205
-394.673
-366.546
-480.036
-430.77
-184.348
-33853.4
-78767.1
-69499.3
-57524.2
-45247.6
-35232.6
-27407.1
-21212
-16406.4
-12726.8
-9905.38
-7554.58
-6163.58
-5455.89
-4955.83
-4503.12
-4205.74
-3834.8
-3511.69
-3180.52
-2764.2
-2291.61
-1769.37
-1245.48
-710.911
-302.803
-324.015
-477.554
-443.422
-195.357
-36359.7
-77316.4
-65492.4
-53974.5
-44098.9
-35900.6
-28845.2
-22706.1
-17626.4
-13569
-10310.8
-7550.72
-6090.46
-5442.3
-4990.75
-4609.04
-4335.61
-3861.51
-3497.38
-3179.34
-2774.87
-2296.25
-1757.55
-1212.31
-653.193
-235.97
-222.521
-375.397
-381.553
-132.26
-37057.1
-80469.3
-66441
-54427.4
-45199.2
-37457.3
-30528.6
-24255.1
-18910.4
-14655.3
-10979.6
-7794
-6177.4
-5483.4