/*--------------------------------*- C++ -*----------------------------------*\
| =========                 |                                                 |
| \\      /  F ield         | OpenFOAM: The Open Source CFD Toolbox           |
|  \\    /   O peration     | Version:  2512                                  |
|   \\  /    A nd           | Website:  www.openfoam.com                      |
|    \\/     M anipulation  |                                                 |
\*---------------------------------------------------------------------------*/
FoamFile
{
    version     2.0;
    format      ascii;
    arch        "LSB;label=32;scalar=64";
    class       volScalarField;
    location    "20";
    object      p;
}
// * * * * * * * * * * * * * * * * * * * * * * * * * * * * * * * * * * * * * //

dimensions      [0 2 -2 0 0 0 0];

internalField   nonuniform List<scalar> 
84826
(
27901.2
13406.8
-1006.58
-5536.53
-5858.24
-3453.76
-2015.4
-2378.33
-2725.14
-2586.22
-2062.73
-1508.77
-970.222
-619.617
-497.563
-368.555
-265.747
-196.279
-153.906
-128.499
-99.1598
-58.4744
-11.9969
29.5942
59.1331
74.5044
76.5967
67.5158
48.1025
20.032
24041.7
7654.83
-1785.1
-4560.48
-5765.74
-4666.31
-3036.33
-2875.58
-2895.3
-2691.03
-2241.16
-1654.7
-1012.79
-566.791
-459.147
-332.395
-233.874
-171.824
-138.228
-121.369
-98.9556
-63.7649
-21.5667
17.5773
46.8973
63.5205
67.5557
60.6051
43.5032
17.421
19720.3
3766.78
-1745.18
-4130.31
-5020.63
-4467.5
-3468.97
-3053.68
-2802.91
-2564.29
-2245.8
-1747.03
-1082.02
-511.145
-406.42
-278.402
-189.723
-138.853
-115.721
-103.843
-89.0722
-63.774
-31.1339
2.96099
31.2458
49.2996
55.884
51.867
38.1042
14.6547
17542.2
3311.72
-1169.54
-3860.47
-4747.59
-4468.11
-3618.31
-2879.07
-2349.69
-2084.31
-1951.71
-1662.3
-1123.86
-496.483
-363.326
-226.631
-146.117
-103.259
-85.0748
-74.1313
-67.1665
-55.7279
-35.1837
-8.58459
16.6127
34.7371
43.2728
42.1536
32.1843
11.6204
20357.2
5636.52
125.401
-3170.7
-4145.61
-3978.92
-3202.48
-2431.89
-1842.41
-1561.14
-1544.36
-1422.4
-1083.97
-518.883
-343.877
-177.322
-101.195
-63.7886
-40.7585
-31.6229
-36.2561
-38.7019
-30.601
-13.5551
5.86944
21.7411
30.752
31.842
25.7751
8.09613
27197.3
8628.68
855.64
-2947.51
-3323.76
-2885.44
-2287.74
-1956.77
-1677.49
-1348.63
-1308.33
-1209.33
-980.173
-586.405
-329.848
-124.664
-50.6883
-13.0643
16.4654
20.24
4.49534
-10.6938
-15.6782
-10.6435
-0.0599376
10.911
18.6299
21.0233
18.7478
4.06643
33538.4
11522.6
415.149
-4465.24
-3701.79
-2192.97
-1591.23
-1866.88
-1933.29
-1491.76
-1406.27
-1244.32
-951.449
-755.42
-272.523
-87.4784
3.34701
50.8448
80.1175
78.2875
54.1162
25.7279
5.83371
-2.55676
-2.19405
2.55556
7.88219
10.7935
11.6024
0.14318
33779.5
11679
-784.665
-6474.42
-5485.75
-3489.39
-2741.2
-3123.44
-2626.6
-1597.62
-1435.57
-1587.12
-1046.55
-960.532
-209.7
-53.0367
54.8644
104.653
129.621
125.372
95.3759
56.4111
24.4444
5.71258
-1.4997
-1.38328
1.91783
4.83525
7.02898
-1.47836
24571.2
6576.41
-2898.73
-7127.9
-6089.07
-4481.16
-4428.3
-4501.99
-2548.55
-1785.39
-2097.08
-2227.4
-1074.38
-899.319
-190.498
-4.67939
76.168
109.497
134.158
131.085
101.949
64.5121
33.0429
13.0703
3.66298
1.89686
3.93722
6.12976
7.45138
0.594597
9776.52
-154.373
-5035.98
-6653.95
-4431.45
-1521.94
-159.772
-119.444
354.168
-2006.3
-4870.1
8061.09
-2107.4
-971.478
-148.303
18.5958
71.7613
87.685
96.0817
90.7414
73.4591
52.2687
33.6111
20.2766
12.2065
9.9407
10.7516
11.357
10.2395
3.84001
1869.38
-3926.61
-7005.44
-7348.57
-4706.69
-1629.88
137.432
-45.1714
-955.957
-908.132
116.819
20526.1
4827.08
-65.5017
5.59747
34.6978
37.0369
41.8935
46.1947
45.5906
39.6102
31.4026
24.4606
18.1565
15.9634
16.1383
15.3869
11.9526
5.61935
1267.66
-5464.67
-7823.58
-7771.1
-5357.7
-2529.3
-695.899
-169.654
-607.434
-272.781
1945.64
10575.2
769.54
2500.18
8.26779
18.9677
28.3838
27.4775
29.7542
33.1785
34.4416
32.6356
29.5735
26.3649
21.1657
19.007
19.4559
18.1082
13.0729
6.2704
401.78
-7353.9
-8322.3
-7972.07
-5833.02
-3335.42
-1767.26
-1121.11
-1110.89
-784.038
-1162.24
-1990.75
-746.56
-563.954
-16.8856
19.0416
27.5269
28.447
26.4505
26.3634
27.4064
26.9438
26.3962
24.8251
21.1199
19.5832
20.2451
19.4945
14.0235
6.63718
-2075.49
-9193.5
-8565.21
-7386.53
-5322.1
-3074.2
-1795.19
-1407.28
-1407.29
-1178.48
-2288.99
-2285.93
-894.422
-389.853
-104.64
-18.6771
12.038
22.0189
21.2571
19.7472
20.4416
21.3149
22.1943
21.7404
20.2466
20.3786
21.3536
20.5035
14.6021
6.88212
-4408.73
-9893.2
-8506.97
-6186.91
-3997.35
-1824.29
-745.321
-616.393
-878.399
-908.788
-1438.81
-1867.53
-855.29
-432.739
-202.484
-66.1677
-6.72068
14.0084
17.0884
14.9202
13.8091
14.9933
17.2731
19.0138
19.5344
20.028
20.7719
19.3805
13.8207
6.41989
-5124.21
-9095.91
-8107.11
-5183.36
-2838.83
-845.431
304.247
511.377
106.489
-347.882
-900.578
-1476.85
-879.162
-492.341
-260.665
-101.743
-26.6164
3.99912
12.2913
10.7584
9.10035
9.74388
12.2588
14.9642
16.9097
18.2345
18.771
17.257
12.3408
5.66461
-4568.28
-7263.95
-7221.16
-4592.4
-2181.11
-475.632
559.287
948.928
745.799
145.785
-574.643
-1171.45
-890.311
-526.467
-285.793
-125.788
-38.4137
-1.04721
10.563
9.83548
7.36174
6.81347
8.38462
11.0025
13.6062
15.6034
16.4105
15.1779
10.9686
5.07247
-3644.72
-5293.93
-5757.21
-3975.56
-1788.48
-271.235
525.223
895.146
852.737
289.875
-448.061
-948.115
-847.738
-543.448
-298.963
-141.757
-48.7183
-3.63785
12.062
12.5637
8.61274
5.94464
5.85969
7.85045
10.5935
13.0105
14.1676
13.2809
9.68985
4.52713
-2963.58
-3747.42
-4215.38
-3127.16
-1399.87
-119.768
495.657
718.843
614.606
150.219
-427.041
-799.133
-768.293
-528.309
-307.345
-154.822
-58.7435
-7.19405
12.374
14.126
9.76754
5.94461
4.79437
6.1137
8.60144
11.099
12.4466
11.7957
8.61005
4.02346
-2686.72
-3051.94
-3351.65
-2588.12
-1187.36
-71.6687
465.533
602.167
434.379
47.5409
-405.474
-707.538
-700.376
-506.088
-309.48
-162.954
-63.7437
-8.98919
12.534
14.8248
10.2166
6.38391
5.1342
6.01441
7.98577
10.2736
11.5904
10.9976
7.98137
3.71812
32124
13462.8
-2897.63
-7746.78
-8084.29
-5039.28
-2459.13
-2281.85
-2692.25
-2655.44
-2251.13
-1682.9
-1089.05
-698.029
-533.436
-385.107
-276.103
-202.878
-155.83
-126.544
-99.2195
-62.1416
-17.4151
24.9636
56.6434
73.7253
76.7779
68.0931
48.5631
20.6876
25611.1
3631.43
-4634.07
-6473.42
-7806.54
-6674.18
-4306.69
-3462.05
-3229.18
-2911.82
-2430.22
-1804.29
-1135.89
-654.388
-505.409
-359.129
-253.344
-186.728
-146.795
-124.568
-103.515
-72.2655
-33.4301
6.65954
39.2022
58.817
64.9014
59.151
42.5395
17.1982
20392.9
1381.44
-3710.64
-5860.67
-6641.01
-5898.29
-4477.45
-3632.71
-3171.15
-2817.08
-2401.65
-1858.3
-1202.02
-595.926
-453.919
-314.075
-215.961
-159.231
-128.581
-113.142
-100.38
-77.7012
-48.2693
-13.1425
19.0287
41.1465
50.7864
48.7262
36.0246
13.7939
19115.5
2051.15
-3035.45
-5629.21
-6359.94
-5743.15
-4438.35
-3348.82
-2687.7
-2338.64
-2101.53
-1757.35
-1249.13
-571.368
-393.036
-259.337
-172.873
-126.22
-102.764
-93.0406
-88.5426
-77.8391
-58.9677
-30.1808
-0.0127829
23.2751
35.8347
37.3909
28.9972
10.0959
21165.6
2950.82
-2558.76
-5169.94
-5848.58
-5181.13
-3967.81
-2910.93
-2190.67
-1822.97
-1715.23
-1533.75
-1212.54
-574.85
-349.152
-201.843
-128.007
-90.3285
-70.2185
-65.1106
-68.5893
-70.941
-62.2451
-40.9917
-15.1411
6.96911
20.8415
25.2316
21.2832
5.72827
24425.8
2937.98
-3177.57
-5204.94
-5144.22
-4091.07
-3073.97
-2533.44
-2139.28
-1689.31
-1501.16
-1344.5
-1075.86
-560.131
-306.905
-150.417
-83.3419
-51.8314
-31.8534
-29.3541
-39.5683
-51.2057
-52.1196
-40.9583
-23.2745
-5.81824
7.00114
13.0263
13.3589
1.18826
26453.1
2035.53
-5007.99
-6457.86
-5332.78
-3447.74
-2385.68
-2415.8
-2493.45
-1958.13
-1584.64
-1336.63
-948.27
-679.448
-227.002
-109.497
-43.0926
-9.4291
11.3701
14.3269
1.74859
-15.5995
-27.3444
-29.0091
-22.6396
-12.5365
-2.77647
3.53943
6.93942
-1.97979
23451
62.8222
-6938.1
-7936.81
-6081.87
-3787.45
-2767.45
-3096.32
-3268.48
-2362.09
-1584.23
-1578.73
-1107.97
-1133.79
-165.887
-73.887
-6.58291
26.5744
47.8504
54.0344
42.1605
19.7497
-1.10397
-13.0178
-15.9129
-12.5257
-6.18799
-0.625728
3.6168
-2.39925
14458.9
-2904.25
-8063.09
-8375.34
-5836.04
-3233.08
-2595.05
-3643.43
-4085.37
-2996.88
-1478.23
-2852.55
-1401.44
-1039.94
-191.705
-43.0349
7.91939
27.8485
50.5138
61.43
52.5418
32.2111
12.2814
-0.794912
-6.0756
-5.62689
-1.78533
1.98207
4.35713
-0.0298233
5358.33
-5254.06
-8563.16
-8386.21
-5218.23
-1710.32
123.814
-290.185
-1196.97
-2709.66
-4472.41
-18881.8
-6214.65
-516.762
-176.26
-4.1682
16.1986
18.31
32.6132
40.9308
37.9353
28.4244
18.0567
10.658
6.52006
5.96451
7.49869
8.5649
7.57329
3.00896
2752.16
-6550.66
-9081.04
-8517.87
-5418.45
-2080.08
104.881
183.986
-1308.36
-2126.91
-810.769
-7839.48
-170.361
-27.2933
0.335402
8.50603
20.7077
29.6953
32.765
29.9932
24.8318
19.8779
15.575
13.9303
14.2484
13.9739
10.9073
5.4309
3357.03
-7859.82
-9701.39
-8865.33
-5793.82
-2696.39
-754.515
-216.366
-940.024
-1482.54
1166.76
4674.96
-504.312
-1365.78
-51.9496
-12.9307
11.296
16.5996
20.968
26.4622
29.7706
29.4004
27.1437
24.0503
20.0245
17.9678
17.9608
16.8994
12.3995
6.12054
1850.27
-9596.76
-10179.1
-9305.59
-6278.48
-3211.02
-1432.7
-903.255
-1206.82
-1713.72
-2257.94
-2549.76
-798.62
-805.848
-89.4359
-3.35875
14.8612
17.4948
18.0765
20.9844
24.2344
25.3681
25.0973
23.6477
20.8744
19.3018
19.5102
18.4526
13.1958
6.21468
-1549.62
-11588.3
-10152.5
-8758.05
-5973.77
-3079.44
-1472.18
-1158.7
-1404.26
-1523.26
-2294.89
-2461.24
-996.988
-509.137
-164.066
-35.2166
4.86635
15.0268
15.1896
15.2292
17.1558
19.2676
20.8982
21.2545
20.3034
20.1205
20.7077
19.2498
13.5229
6.17661
-4431.62
-12567.2
-9917.39
-7198.1
-4731.37
-2188.93
-753.158
-590.303
-1024.48
-1327.2
-1486.8
-1979.94
-993.034
-551.098
-243.815
-73.9907
-9.54705
9.9868
12.2563
10.8102
11.1194
13.2299
15.9839
18.0502
18.9293
19.491
19.7786
18.0772
12.7218
5.71138
-5009.19
-11592.3
-9578.25
-5991.36
-3471.82
-1311.67
34.7739
363.882
-139.593
-753.287
-1138.91
-1534.87
-974.35
-564.419
-290.456
-108.783
-25.9759
3.51815
9.41962
7.86256
6.99184
8.33389
11.2305
14.2372
16.4404
17.8495
18.2158
16.5318
11.6642
5.16672
-4178.1
-8521.77
-8435.84
-5501.21
-2736.38
-832.468
292.074
776.973
559.854
-125.543
-797.52
-1241.28
-948.521
-567.331
-304.627
-128.978
-36.573
0.299428
9.35791
7.92135
5.54283
5.42431
7.48787
10.5731
13.4712
15.5603
16.2771
14.8964
10.6223
4.70837
-3198.63
-5516.04
-6251.58
-4563.05
-2289.99
-623.439
272.629
683.619
648.396
113.689
-591.441
-1016.17
-873.739
-560.09
-304.516
-139.34
-45.2791
-1.57246
11.4484
10.6374
6.49655
4.22261
4.84372
7.4349
10.562
13.1148
14.2367
13.2427
9.56455
4.27489
-2626.16
-3566.43
-4287.86
-3432.75
-1771.16
-447.984
225.714
482.764
395.355
-5.12205
-520.205
-842.935
-783.894
-536.385
-305.872
-148.775
-52.5032
-2.87955
13.7409
13.5603
8.41037
4.65596
3.96926
5.77343
8.65515
11.3236
12.6667
11.9231
8.65375
3.88964
-2427.85
-2783.48
-3276.13
-2773.64
-1498.23
-394.308
179.841
360.456
222.796
-111.219
-491.548
-739.07
-709.439
-508.549
-305.723
-155.462
-56.2251
-3.27507
15.3874
15.5922
9.91698
5.66613
4.46205
5.58408
8.0122
10.5332
11.8808
11.2128
8.12497
3.66062
34219.7
11857.9
-4938.49
-9809.69
-10394.1
-7936.58
-4581.6
-2907.76
-2737.54
-2827.96
-2478.36
-1875.89
-1246.57
-808.504
-580.666
-413.533
-293.33
-210.536
-153.633
-116.681
-91.3287
-61.8934
-25.7355
12.2786
44.1811
63.5485
69.1904
62.6954
44.8866
19.3453
26737.8
406.04
-7818.65
-9410.81
-10448.4
-9370.25
-6734.7
-4754.02
-3752.64
-3243.18
-2650.78
-1940.05
-1269.74
-789.083
-558.5
-391.472
-274.162
-197.619
-148.323
-118.102
-98.2091
-72.5506
-41.3597
-7.6146
24.5156
46.9463
56.2956
53.3021
38.8013
16.0592
20955.5
-833.721
-6133.73
-8181.97
-8615.37
-7624.87
-5857.26
-4520.53
-3769.98
-3237.88
-2603.6
-1905.89
-1256.77
-744.201
-507.182
-348.777
-240.347
-173.719
-134.016
-111.024
-97.7495
-78.2492
-54.202
-25.5355
5.08788
29.4472
42.311
43.1216
32.5491
13.1322
18598.5
361.981
-4999.97
-7689.2
-8185.53
-7161.9
-5385.54
-3961.33
-3216.23
-2759.29
-2291.94
-1742.15
-1200.34
-699.65
-435.957
-293.489
-198.341
-144.084
-114.272
-98.0046
-90.889
-79.4216
-63.2545
-40.0454
-12.1638
12.5778
27.9875
32.2276
25.6911
9.8134
17080.3
792.186
-4498.5
-7568.54
-7860.47
-6585.52
-4841.73
-3465.47
-2703.42
-2275.71
-1964.32
-1534.11
-1107.5
-658.68
-362.035
-233.601
-154.32
-113.022
-90.8011
-79.7278
-77.0198
-73.8025
-65.4075
-48.4091
-24.898
-1.92893
14.1461
20.6263
18.0937
5.38507
14819.2
242.923
-4539.66
-7564.49
-7357.73
-5763.04
-4138.61
-3164.88
-2723.9
-2346.49
-1927.9
-1394.55
-999.804
-615.779
-290.781
-178.018
-112.301
-81.4046
-62.5156
-53.7645
-54.4966
-57.0649
-55.3292
-45.7063
-29.3664
-11.6042
2.32971
9.33407
10.5167
0.366522
11971.2
-862.756
-5267.86
-8014.7
-7154.44
-5199.5
-3684.49
-3135.62
-3065.14
-2890.03
-2275.97
-1385.95
-908.29
-560.724
-225.463
-130.124
-77.8886
-51.5128
-31.0985
-21.4093
-22.9424
-28.0056
-32.1854
-31.0356
-23.9924
-13.8096
-4.03626
2.0251
5.33382
-2.59896
7957.8
-2687.09
-6539.39
-8572.9
-6938.21
-4644.37
-3250.15
-3210.51
-3634.57
-3484.32
-2312.69
-1499.53
-1070.49
-494.673
-187.305
-99.8442
-56.1205
-29.8839
-7.90332
2.98864
3.70583
-1.45002
-8.58685
-13.3283
-13.1424
-9.28723
-3.81389
0.233601
2.82365
-2.68301
3522
-5234.69
-7896.97
-8734.63
-6335.46
-3637.62
-2074.64
-2482.24
-3891.46
-4226.88
-2082.5
-1980.39
-1224.87
475.221
-220.12
-89.0848
-41.0293
-20.3261
-4.20929
7.70183
13.2419
11.7885
5.83467
0.234804
-2.39753
-2.1313
0.0435604
1.8129
2.16319
-1.44033
1811.72
-7481.01
-8991.4
-8885.86
-5840.24
-2567.62
-345.699
-470.199
-2727.47
-5364.2
-3909.44
-17017.8
-1492.01
1237.54
-259.08
-78.8514
-29.3577
-16.3724
-0.864971
12.6687
19.2204
18.5823
14.0161
9.58323
6.72024
6.02241
6.84629
7.19485
5.31349
1.35593
2881.75
-9131.8
-9912.37
-9311.48
-6030.54
-2613.55
6.14483
940.121
-198.006
-2620.32
-3093.05
-17845.8
-206.471
-53.6315
-19.2609
-3.98788
9.66057
19.3382
23.762
23.5372
20.6381
17.2709
14.3457
13.1306
13.2666
12.7643
9.44159
4.30971
3231.82
-10769.7
-10694
-9627.57
-6221.21
-2917.47
-702.436
191.453
-66.4377
-686.815
-3986.43
26223.3
-147.956
-1456.27
-95.7565
-28.6754
-6.42768
2.7872
10.0105
17.2285
22.1082
23.7978
23.0257
21.1483
18.7538
17.3898
17.086
15.8225
11.4357
5.47121
1223.92
-12590.9
-11510.9
-9777.4
-6286.93
-3059.14
-1134.65
-485.74
-681.619
-1378.77
-4377.84
-4066.42
-658.686
-522.358
-99.3921
-21.9865
-1.28321
4.38406
7.79509
12.8065
17.6957
20.7823
21.9839
21.7494
20.412
19.4315
19.0381
17.3291
12.2446
5.62783
-1677.43
-14149.3
-11881.8
-9174.22
-5746.54
-2754.89
-1085.73
-656.091
-972.59
-1340.18
-2178
-2425.55
-976.932
-438.258
-145.125
-35.834
-2.69212
5.79785
7.57159
9.78549
13.2588
16.633
19.0906
20.2724
20.1387
19.8921
19.5993
17.6237
12.2989
5.46267
-3807.76
-14200.2
-11353.7
-7711.84
-4596.77
-2055.16
-647.091
-347.423
-826.266
-1205.81
-1378.53
-1909.02
-1045.72
-522.157
-210.387
-63.1873
-10.3495
4.48144
6.44336
6.47233
8.14643
11.1172
14.3799
16.9409
18.2688
18.8579
18.677
16.6894
11.6163
5.03797
-3998.33
-12059.6
-10101.5
-6344.76
-3447.24
-1320.74
-163.059
140.637
-304.361
-832.852
-1185.62
-1495.48
-1022.77
-567.368
-261.71
-91.8152
-20.9368
1.9165
5.73638
4.65932
4.69374
6.83115
10.216
13.5887
16.0857
17.5236
17.6302
15.7218
10.9626
4.68601
-3280.03
-8155.99
-8122.86
-5388.54
-2640.8
-820.906
77.3393
389.596
171.741
-450.432
-959.777
-1226.83
-952.752
-570.342
-285.367
-111.294
-28.7044
1.36067
7.43096
5.62033
3.79195
4.39308
7.06565
10.5533
13.6735
15.7729
16.2891
14.6747
10.3513
4.42557
-2569.08
-4929.55
-5712.99
-4202.77
-2129.54
-642.292
59.7827
289.735
201.798
-238.737
-764.246
-1023.04
-849.743
-542.792
-288.013
-122.381
-34.3116
2.06937
10.8378
8.65222
4.82911
3.38251
4.76856
7.83695
11.1872
13.7324
14.6648
13.4313
9.60626
4.13133
-2179.15
-3067.8
-3811.56
-3157.33
-1723.22
-567.281
-22.2701
140.39
31.2402
-279.469
-642.973
-843.399
-749.663
-509.365
-286.241
-131.283
-40.1104
2.44522
14.4263
12.4176
7.11982
3.89079
3.92129
6.2733
9.44767
12.1361
13.3211
12.3457
8.90541
3.87275
-2055.96
-2349.11
-2909.9
-2609.69
-1534.27
-577.4
-92.529
48.0329
-77.7425
-332.72
-595.357
-743.854
-678.077
-481.057
-283.484
-136.716
-44.0932
2.31413
16.7187
15.1926
9.22535
5.04472
4.23074
5.94916
8.77953
11.3877
12.6222
11.7447
8.49684
3.72822
31725.1
7841.51
-7403.86
-11307.3
-11591.9
-9666.72
-6747.46
-4180.09
-3030.25
-2999.47
-2715.99
-2049.63
-1371.3
-906.329
-634.406
-449.259
-319.114
-225.458
-157.208
-108.368
-74.319
-47.9485
-22.1862
6.38542
33.0354
51.3659
58.3527
54.1995
38.9999
16.9493
24696.9
-2610.12
-10134.1
-11678.4
-12458.6
-11429.8
-8839.02
-6168.88
-4344.12
-3551.9
-2890.01
-2071.37
-1360.74
-882.971
-612.456
-429.402
-302.438
-213.211
-150.617
-107.807
-80.1986
-58.2175
-34.9061
-9.59676
16.1399
36.4183
46.6508
45.7894
33.7072
14.3387
19130.6
-3168.24
-8167.31
-10382.4
-10641
-9572.09
-7492.43
-5614.92
-4376.67
-3606.33
-2829.34
-1984.05
-1281.34
-810.352
-554.259
-384.085
-268.5
-189.646
-136.562
-101.861
-81.5116
-64.732
-45.703
-24.3578
-0.579866
20.6336
33.8063
36.4508
28.015
12.0968
15436.5
-2260.12
-7274.39
-10079.5
-10221.6
-8759.37
-6521.35
-4682.21
-3670.32
-3101.18
-2506.4
-1789.13
-1150.03
-713.085
-471.372
-323.069
-223.588
-158.972
-118.28
-92.386
-78.6744
-68.1736
-55.1875
-38.0556
-16.6166
4.62136
19.9702
25.9063
21.2909
9.49137
11761.2
-2286.86
-6979.48
-9963.78
-9722.73
-8007.63
-5808.54
-4016.61
-3069.46
-2632.54
-2241.54
-1608.02
-1011.72
-613.134
-382.18
-257.332
-175.545
-126.446
-98.1305
-80.6329
-72.4177
-67.7329
-60.9174
-48.4503
-30.0546
-9.83255
6.52393
14.8528
14.1065
6.0427
7401.24
-2895.21
-6838.05
-9678.75
-8873.72
-6973.65
-4992.02
-3606.06
-3038.71
-2844.1
-2431.45
-1547.74
-891.554
-514.877
-299.236
-194.515
-130.773
-96.0015
-76.4627
-64.0991
-60.0346
-59.7202
-58.0431
-50.3053
-35.7283
-18.3598
-3.26551
5.42688
7.8711
1.86953
3342.24
-3984.05
-7217.49
-9822.49
-8477.52
-6320.43
-4470.96
-3500.96
-3345.04
-3637.36
-3245.61
-1658.71
-812.713
-433.864
-225.817
-141.293
-95.374
-71.6246
-55.016
-42.9328
-40.1128
-41.6606
-42.9857
-38.8289
-28.8435
-16.6197
-5.63693
0.924464
4.43212
-1.17376
379.853
-5757.84
-8121.52
-10062.2
-8097.22
-5670.01
-3962.27
-3529.3
-3817.85
-4338.62
-3861.62
-1917.34
-947.621
-503.815
-173.403
-103.798
-71.7728
-54.1869
-36.6464
-23.7665
-19.886
-21.2945
-23.0609
-21.4568
-16.0915
-9.41792
-3.28623
0.0291205
1.87497
-2.92647
-821.452
-7975.3
-9130.64
-10015.3
-7440.25
-4645.58
-2853.26
-2830.51
-3933.22
-5000.35
-4499.57
-1734.76
-1094.78
-797.216
-164.492
-77.5554
-53.5215
-38.1628
-21.3148
-8.95935
-3.5348
-3.85371
-5.92584
-6.99675
-6.31508
-4.13431
-1.85401
-1.12035
-1.71767
-4.40742
79.5817
-9852.63
-9932.76
-9950.73
-6968.97
-3791.79
-1528.21
-1147.73
-2428.04
-5241.04
-5854.94
-6526.33
-578.93
-2096.61
-199.501
-54.6328
-36.1716
-22.492
-8.52514
2.06499
8.10976
8.96208
6.96844
4.36257
2.64744
2.22662
2.64164
2.40919
0.180435
-2.24528
1254.91
-11571.4
-10671.7
-10034.4
-6845.57
-3563.82
-1158.85
-186.895
-476.807
-2254.67
-7017.23
-56908.4
778.273
-8122.58
-113.785
-36.5405
-26.1145
-15.5805
-4.10709
5.6231
12.0306
14.5673
14.3224
12.9307
11.4697
10.8064
10.6964
9.76452
6.11057
2.03495
920.414
-13414.4
-11428.3
-9940.83
-6633.1
-3467.31
-1315.42
-419.323
-506.802
-657.734
-2145.21
-8596.87
39.5579
-1100.65
-84.4463
-34.6413
-18.8152
-9.26883
-1.03208
6.73759
12.7274
16.0646
17.1497
17.0158
16.2747
15.7984
15.5001
14.0958
9.86287
4.48077
-526.38
-14835.5
-12210.1
-9589.65
-6193.84
-3246.85
-1385.31
-618.982
-641.279
-937.507
-1575.13
-2691.95
-780.525
-363.811
-82.5792
-26.8339
-9.47685
-3.5381
0.544558
5.74757
11.0246
15.0577
17.4215
18.4122
18.3011
17.9823
17.4551
15.5753
10.8756
4.81554
-2041.89
-15125.6
-12373.7
-8709.94
-5297.54
-2696.92
-1190.2
-645.873
-743.895
-1097.91
-1487.86
-1753.23
-824.232
-334.792
-114.386
-33.3081
-7.39279
-0.480193
1.76064
4.72276
8.81118
12.8889
16.0736
18.0506
18.7551
18.8424
18.279
16.1349
11.1962
4.82826
-3058.84
-13620.3
-11326
-7366.48
-4119.6
-1929.77
-792.754
-460.942
-667.992
-1071.83
-1353.29
-1545.1
-892.812
-417.77
-162.988
-51.1165
-10.5643
0.79394
2.68612
3.58323
5.94088
9.352
12.8656
15.6673
17.3348
18.0431
17.6368
15.4887
10.6693
4.44837
-3003.57
-10433.7
-9397.83
-6018.55
-3080.92
-1237.1
-407.279
-213.838
-458.182
-924.382
-1208.97
-1320.7
-897.009
-478.591
-210.174
-73.4817
-17.3657
0.374656
3.32303
2.86746
3.5648
6.0846
9.58952
12.9862
15.5299
16.9302
16.8634
14.8346
10.2501
4.20736
-2496.2
-6690.18
-7045.41
-4874.66
-2395.34
-829.319
-211.105
-88.816
-269.497
-689.007
-1021.38
-1119.51
-844.638
-497.68
-240.277
-92.2457
-23.9884
0.520552
5.4241
4.17884
3.19059
4.38393
7.31669
10.8192
13.8363
15.7627
16.0615
14.2654
9.98422
4.10748
-2055.53
-3984.05
-4804.1
-3696.96
-1940.43
-711.642
-231.146
-141.109
-261.372
-537.71
-828.481
-932.631
-754.115
-481.447
-252.765
-105.888
-29.7008
1.19915
8.54016
6.86067
4.16399
3.67782
5.5968
8.80097
12.0122
14.2875
14.9091
13.4082
9.49809
3.91034
-1840.48
-2564.06
-3253.51
-2793.46
-1600.51
-668.451
-293.478
-223.537
-331.209
-520.557
-710.937
-785.591
-666.713
-452.921
-255.565
-116.17
-35.0577
1.71155
11.8423
10.217
6.16164
4.09958
4.89433
7.57058
10.6916
13.0793
13.9027
12.6091
9.01145
3.74165
-1785.86
-2056.84
-2590.37
-2382.81
-1463.23
-686.879
-335.788
-259.484
-361.656
-513.964
-649.953
-701.705
-609.662
-431.627
-255.595
-122.312
-38.8821
1.80451
14.1435
12.8647
8.0994
5.0653
5.06611
7.24905
10.1463
12.4926
13.3606
12.1387
8.70986
3.63941
26058.5
3683.88
-9596.6
-12502
-12245.5
-10296.1
-7612.38
-4971.2
-3329.32
-3050.32
-2745.19
-2092.75
-1433.62
-965.76
-681.373
-482.866
-342.082
-240.808
-166.234
-109.526
-64.8149
-31.3568
-7.71245
13.6236
33.2533
47.0406
52.221
48.2483
34.5279
15.0831
20653.9
-5298.62
-12043.5
-13437.6
-13998.5
-12601.7
-9653.54
-6735.19
-4624.49
-3579.81
-2877.84
-2113.63
-1412.83
-943.606
-658.426
-462.27
-325.556
-228.093
-157.597
-105.954
-66.8181
-37.3536
-17.4067
1.59016
20.6294
35.3467
42.7592
41.3407
30.171
13.0621
16027.8
-5870.15
-10345.5
-12530.9
-12635.4
-11246
-8669.47
-6246.23
-4571.09
-3580.77
-2832.67
-2026.97
-1328.3
-867.657
-596.105
-414.267
-289.231
-202.4
-141.347
-98.0762
-66.5626
-42.7994
-26.6042
-10.7046
6.82382
21.8258
31.3264
32.8297
24.8918
11.1304
12108.4
-5248.68
-9520.57
-12117.6
-12024.2
-10230.9
-7602.81
-5300.83
-3878.82
-3141.25
-2553.53
-1841.79
-1189.31
-755.016
-505.451
-346.376
-239.802
-168.901
-120.266
-86.8191
-63.7971
-47.1337
-35.3518
-23.1109
-7.92087
6.69422
17.8097
22.3069
17.9764
8.70773
8336.6
-5411.69
-9107.88
-11769.6
-11265.4
-9270.32
-6694.45
-4473.06
-3206.18
-2697.44
-2338.45
-1687.95
-1044.35
-634.863
-406.076
-272.816
-187.948
-134.016
-98.0163
-73.9041
-58.9545
-49.5043
-42.9312
-34.6701
-22.4042
-8.85317
3.1473
10.1169
9.4649
5.39854
4349.33
-5933.08
-8598.76
-11010.7
-9992.99
-7924.85
-5582.85
-3777.16
-2973.95
-2889.5
-2637.18
-1701.42
-917.151
-514.602
-310.269
-203.823
-140.605
-102.669
-77.4106
-60.0269
-50.8967
-47.0517
-45.4266
-41.3341
-32.6976
-21.3641
-9.87387
-1.74376
0.854539
1.32325
1014.08
-6815.25
-8401.8
-10516.4
-9098.19
-6911.38
-4764.35
-3425.61
-3265.74
-3876.98
-3720.32
-1946.46
-804.959
-394.689
-222.303
-144.944
-102.436
-78.0224
-60.2378
-46.0113
-38.9258
-37.7705
-39.1585
-38.4033
-33.6679
-25.8342
-16.5994
-9.24632
-4.91512
-2.17263
-888.481
-8153.52
-8807.14
-10440.1
-8539.69
-6121.09
-4144.3
-3458.36
-3942.91
-4932.57
-5654.95
-2263.24
-699.26
-279.597
-147.535
-98.143
-73.7667
-59.7183
-45.8708
-32.5387
-24.931
-23.7354
-26.1336
-27.9082
-26.5702
-22.3788
-16.4344
-11.6123
-8.17519
-5.06602
-1385.31
-9824.71
-9513.59
-10388.3
-7982.15
-5275.19
-3363.93
-3286.79
-4247.67
-5381.77
-7855.08
-3348.68
-828.354
-349.623
-85.978
-62.8575
-53.4591
-44.2657
-32.0731
-19.581
-11.0093
-8.50754
-10.5832
-13.6123
-15.1104
-14.5346
-12.6742
-11.3571
-10.9588
-8.03322
-760.168
-11676.2
-10387.2
-10250.7
-7456.81
-4532.76
-2433.65
-2183.29
-3213.14
-4628.29
-12406.1
-4655.53
-729.296
-593.442
-37.2475
-34.7236
-38.5619
-31.9398
-20.7183
-9.42459
-0.66672
3.6789
3.87365
2.14937
0.175398
-1.10135
-1.68315
-2.68554
-5.38144
-5.12524
-332.237
-13666.8
-11373.3
-10094.3
-6978.42
-4031.56
-1890.7
-1120.7
-1374.66
-1666.77
-6776.25
-6337.56
-931.717
-510.454
-37.3276
-27.3348
-27.9689
-22.7618
-14.1455
-4.60585
3.48949
8.76578
11.1991
11.9405
11.7794
11.5282
11.086
9.61103
5.57653
1.86376
-644.21
-15281.5
-12358.5
-9833.33
-6438.67
-3625.64
-1701.85
-838.299
-785.259
-792.072
225.391
-4832.99
-862.876
-256.736
-62.3228
-30.3101
-20.1639
-14.7207
-8.78129
-1.61827
5.19439
10.2914
13.3282
14.857
15.4049
15.614
15.35
13.7876
9.63842
4.40215
-1351.73
-15755.4
-12942.9
-9398.48
-5787.15
-3149.95
-1539.29
-813.934
-707.671
-709.826
-293.64
-1399.67
-652.901
-208.975
-72.1017
-26.9468
-12.1214
-7.66983
-4.63413
-0.0774408
5.28085
10.0899
13.5959
15.7517
16.7125
16.9905
16.517
14.5944
10.1519
4.38418
-2049.06
-14642.1
-12422.8
-8453.85
-4881.68
-2523.2
-1265.98
-766.329
-727.505
-848.347
-834.257
-1214.59
-693.045
-280.226
-99.8144
-31.8627
-9.00205
-3.14954
-1.47025
1.11632
5.15487
9.60193
13.4305
16.1456
17.6106
18.1071
17.5292
15.3163
10.6187
4.48267
-2451.8
-11931
-10741.2
-7111.01
-3826.72
-1830.35
-929.431
-648.927
-699.231
-877.582
-985.979
-1101.39
-715.324
-345.01
-138.921
-46.245
-10.869
-0.595303
1.25561
2.24982
4.64681
8.16529
11.8175
14.805
16.721
17.5411
17.0555
14.8149
10.1748
4.12059
-2335.96
-8352.59
-8367.99
-5680.1
-2885.19
-1253.15
-639.935
-520.112
-624.896
-834.908
-976.976
-1003.61
-715.286
-391.924
-177.331
-65.4915
-17.0183
-0.582591
2.7537
2.83803
3.77295
6.29392
9.67793
12.9424
15.3713
16.6386
16.4051
14.2771
9.83333
3.90712
-1997.38
-5177.47
-5919.81
-4358.55
-2225.61
-926.25
-498.331
-458.359
-561.194
-744.203
-884.9
-895.454
-683.186
-411.739
-205.294
-83.5335
-24.1736
-1.03523
4.70256
4.51718
4.17279
5.55569
8.39367
11.6636
14.3818
15.9697
15.9625
13.9718
9.73638
3.87439
-1739.47
-3150.59
-3934.22
-3175.19
-1733.81
-782.131
-486.904
-468.293
-551.342
-674.217
-776.814
-778.625
-625.374
-407.921
-221.423
-98.0171
-30.8131
-1.44189
7.02168
6.90133
5.37268
5.47136
7.48864
10.4889
13.3062
15.0949
15.269
13.4458
9.46143
3.75783
-1645.6
-2194.77
-2764.88
-2410.78
-1421.44
-730.569
-515.242
-495.547
-569.597
-642.318
-695.353
-683.148
-566.492
-392.86
-229.355
-108.794
-36.2554
-1.60355
9.49438
9.6802
7.21172
6.11818
7.24965
9.80784
12.5257
14.3674
14.6432
12.9251
9.14707
3.64491
-1639.35
-1883.14
-2312.59
-2103.6
-1310.21
-744.021
-530.981
-505.179
-566.706
-611.591
-640.389
-624.834
-530.015
-382.402
-233.278
-115.21
-39.6322
-1.63619
11.2771
11.8027
8.8269
6.98822
7.50193
9.67832
12.2321
14.0359
14.3169
12.6112
8.94779
3.56833
19894.9
966.374
-10940.6
-13275.2
-12459.1
-10257.2
-7538.86
-4997.57
-3314.92
-2797.57
-2569.48
-2011.48
-1396.1
-980.321
-707.961
-507.578
-359.405
-250.118
-170.309
-110.684
-64.1656
-26.5584
3.92423
25.3364
40.7004
49.7667
51.7402
46.2422
32.6052
14.2207
16340.5
-6818.73
-13565.7
-14793.3
-14865.3
-12848.4
-9578.93
-6575.48
-4419
-3304.51
-2687.51
-2015.82
-1390.08
-964.4
-687.051
-485.969
-340.378
-235.746
-160.412
-105.2
-62.8637
-28.7
-1.93889
17.2998
31.9049
41.3845
44.6818
40.9625
29.2161
12.7535
13018.3
-8284.09
-12520.1
-14397.5
-14081.1
-12102.2
-9049.31
-6291.83
-4360.39
-3267.34
-2615.78
-1948.74
-1331.57
-902.062
-624.865
-433.466
-300.378
-207.64
-142.231
-94.8887
-58.9814
-30.3901
-8.81906
7.30911
20.6855
30.3941
35.1462
33.6933
24.5836
11.081
9629.56
-8163.56
-11673
-13876.2
-13400.3
-11224.4
-8245.41
-5591.12
-3842.05
-2946.77
-2409.76
-1807.94
-1211.93
-790.779
-528.952
-360.11
-247.695
-172.19
-119.729
-81.7648
-53.2364
-31.2056
-15.4078
-3.08029
8.20054
17.5361
23.392
24.2985
18.2469
8.80662
6534.86
-8291.77
-11057.2
-13292.3
-12499.9
-10185.5
-7242.11
-4693.28
-3131.76
-2505.93
-2231.25
-1691.36
-1073.17
-659.795
-422.243
-281.784
-193.096
-135.96
-96.5349
-67.8023
-46.528
-31.0943
-21.1271
-13.0394
-4.58965
3.67121
10.0352
12.9078
9.88744
5.54496
3512.38
-8641.32
-10331.8
-12279.2
-10970.8
-8571.43
-5856.69
-3661.47
-2512.5
-2428.47
-2464.97
-1752.3
-953.968
-525.767
-318.369
-208.65
-143.635
-103.277
-75.2161
-54.3681
-38.9937
-29.0917
-24.0921
-20.1634
-15.1344
-8.83371
-2.90149
0.865786
0.173658
1.21465
1038.46
-9182.9
-9825.91
-11282.9
-9539.77
-7146.95
-4685.61
-2841.81
-2267.51
-3093.32
-3407.27
-2105.97
-854.519
-390.983
-222.692
-145.994
-103.069
-76.9892
-57.9202
-42.3223
-30.4352
-23.9769
-22.1615
-21.6428
-19.9578
-16.2996
-11.8114
-8.55398
-8.16632
-3.12725
-407.659
-10132
-9847.9
-10740
-8622.16
-6154.44
-3841.7
-2413.08
-2557.51
-4145.15
-5030.39
-2691.78
-755.502
-257.765
-138.683
-95.3873
-71.6189
-56.6435
-43.9805
-31.3763
-21.0728
-15.8464
-15.1851
-16.6631
-17.3724
-16.2977
-14.0024
-12.3384
-12.5261
-6.22035
-828.837
-11490.7
-10346.7
-10505.1
-7959.62
-5339.58
-3144.36
-2248.34
-2850.22
-4574.38
-6793.42
-3305.47
-650.621
-138.654
-69.8775
-57.6749
-48.4062
-40.7543
-31.8442
-21.3765
-12.0662
-6.33733
-4.86811
-6.11044
-7.78547
-8.56985
-8.59377
-8.94299
-11.0498
-6.69542
-555.665
-13173.7
-11341.2
-10349
-7381.92
-4659.84
-2553.3
-1796.69
-2433.54
-3200.99
-5247.97
-3816.15
-590.392
-16.1153
-15.588
-32.9964
-33.4504
-29.5294
-22.4037
-13.3457
-4.73589
1.57363
4.76216
5.43291
4.8367
3.99662
3.0518
1.3623
-2.53057
-2.68412
-379.967
-14894.2
-12567.9
-10254.7
-6798.66
-4071.01
-2142.81
-1333.91
-1618.46
-1338.27
-1528.19
-3107.01
-576.028
-33.9281
-17.882
-25.9447
-24.4756
-22.0235
-16.9437
-9.41118
-1.57809
4.84632
9.31585
11.9341
13.177
13.649
13.2512
11.495
7.18558
3.04758
-732.23
-15873.3
-13347
-10009
-6164.81
-3509.32
-1835.24
-1036.34
-914.196
-877.053
-466.649
-1692.37
-558.512
-121.282
-49.3831
-26.6142
-18.019
-15.3775
-12.0472
-6.42448
0.114434
6.01743
10.4929
13.4662
15.2063
16.0993
15.9758
14.3073
10.1776
4.73255
-1285.56
-15309.7
-13227.4
-9384.09
-5421.51
-2912.54
-1562.79
-942.479
-782.519
-724.218
-487.063
-1141.81
-602.852
-202.335
-70.387
-26.2633
-11.8371
-8.52947
-6.91067
-3.49248
1.42903
6.57283
10.9318
14.0982
15.9744
16.7938
16.4303
14.4374
10.0756
4.30527
-1785.54
-12941.5
-11928.8
-8247.43
-4485.61
-2276.05
-1273.34
-867.744
-764.957
-774.127
-738.239
-977.794