/*--------------------------------*- C++ -*----------------------------------*\
| =========                 |                                                 |
| \\      /  F ield         | OpenFOAM: The Open Source CFD Toolbox           |
|  \\    /   O peration     | Version:  2512                                  |
|   \\  /    A nd           | Website:  www.openfoam.com                      |
|    \\/     M anipulation  |                                                 |
\*---------------------------------------------------------------------------*/
FoamFile
{
    version     2.0;
    format      ascii;
    arch        "LSB;label=32;scalar=64";
    class       surfaceScalarField;
    location    "20";
    object      phi;
}
// * * * * * * * * * * * * * * * * * * * * * * * * * * * * * * * * * * * * * //

dimensions      [0 3 -1 0 0 0 0];

oriented        oriented;

internalField   nonuniform List<scalar> 
260615
(
9.86281
-2.56654
-5.68473
14.7305
-4.13072
-0.72742
15.8455
-4.00751
2.90411
14.2564
-3.33689
4.93543
9.04591
-0.993183
6.19745
1.23277
1.80532
5.9702
-2.47912
0.767088
2.86128
-2.38423
-1.41759
1.23891
-2.79083
-1.78576
2.12429
-3.12428
-1.6104
1.90621
-3.08544
-1.43708
1.37369
-2.73623
-1.44171
1.0764
-2.27162
-1.30202
0.830012
-2.02257
-0.751906
0.498642
-2.14306
-0.115517
0.221369
-1.90682
-0.251155
-0.00605623
-1.63663
-0.213885
-0.0847397
-1.33787
-0.251464
-0.0808692
-0.943769
-0.346962
-0.0834726
-0.437631
-0.480378
-0.0681269
0.0848709
-0.657716
0.0878827
0.40739
-0.699185
0.32379
0.546871
-0.635859
0.453077
0.667221
-0.564563
0.417676
0.807357
-0.472397
0.318293
0.942161
-0.379496
0.239728
1.0592
-0.300469
0.186934
1.15634
-0.239944
0.153115
1.23353
-0.207904
0.141707
-0.173563
0.108878
7.82892
-9.15477
0.38022
6.76287
-9.84866
6.80363
2.17673
-6.3932
6.99396
-1.73725
-5.332
5.92576
-3.32924
-5.77534
6.3653
-3.57768
-3.69641
5.71632
-3.74278
-2.79341
3.66913
-4.19624
-3.35778
2.32888
-4.52936
-3.33373
1.82204
-4.28368
-3.16755
1.27153
-3.69534
-3.0515
0.997341
-2.9263
-3.13904
0.908666
-2.16862
-2.86496
0.793846
-1.75947
-1.71546
0.546771
-2.00164
-0.240784
0.350149
-1.75853
-0.562545
0.046476
-1.45506
-0.434821
-0.111891
-1.09384
-0.456829
-0.19104
-0.651489
-0.51416
-0.31319
-0.111341
-0.712054
-0.353588
0.426769
-1.04712
-0.189779
0.847289
-1.24878
0.102025
1.0982
-1.23774
0.33336
1.22654
-1.09847
0.393519
1.29696
-0.910291
0.360461
1.34043
-0.725128
0.29991
1.36835
-0.566669
0.241598
1.38596
-0.442575
0.193704
1.39078
-0.366723
0.163486
-0.290873
0.11292
1.70989
-12.294
3.06298
-2.89306
-11.032
5.81738
-5.28387
-7.81103
3.84351
-7.08211
-6.62713
3.11397
-7.78868
-7.55611
2.47804
-6.54958
-6.89405
1.92345
-5.19416
-5.46477
1.26119
-4.84735
-4.40889
0.640366
-4.68466
-3.8027
0.244936
-4.32939
-3.6772
0.105943
-3.83509
-3.78574
0.202713
-3.10902
-4.21688
0.324827
-2.20487
-4.16256
0.378052
-1.48429
-2.72918
0.282935
-1.70802
-0.489289
0.450677
-1.47442
-0.909181
0.0906966
-1.12836
-0.700499
-0.109664
-0.757455
-0.625182
-0.236766
-0.2983
-0.547304
-0.463327
0.300799
-0.83829
-0.508603
0.975451
-1.39474
-0.353936
1.46359
-1.7277
-0.0247295
1.69169
-1.72625
0.248947
1.76419
-1.53441
0.355628
1.76341
-1.27115
0.357422
1.73138
-1.00789
0.313996
1.68698
-0.779125
0.260268
1.6385
-0.596484
0.210173
1.5834
-0.476174
0.173107
-0.35901
0.11343
-3.92259
-11.5383
4.81259
-7.79665
-10.8701
3.75878
-6.8777
-8.38133
-0.311841
-6.84144
-6.47195
-0.168817
-7.52287
-7.26739
0.385505
-6.87174
-7.30502
-0.273237
-5.37166
-5.78608
-1.22568
-4.36433
-3.77657
-1.69822
-4.01922
-2.6658
-1.548
-3.84135
-2.77308
-1.14042
-3.61577
-3.31674
-0.745896
-3.0872
-4.28334
-0.498037
-2.24446
-4.70871
-0.319689
-1.46808
-3.25148
-0.266715
-1.57191
-0.824219
0.410969
-1.23663
-1.30182
0.0329924
-0.817183
-1.02548
-0.123652
-0.502922
-0.713
-0.258014
0.0501771
-0.571085
-0.560976
0.871077
-1.10562
-0.578011
1.67379
-1.8255
-0.389469
2.14988
-2.1524
-0.0622562
2.33435
-2.10934
0.190365
2.3481
-1.86035
0.306777
2.28003
-1.53514
0.32949
2.17862
-1.21111
0.304712
2.06775
-0.927801
0.262996
1.9581
-0.699008
0.219236
1.84814
-0.54238
0.183904
-0.392359
0.123587
-7.76135
-9.63365
7.51675
-10.7993
-10.0598
2.28719
-7.17353
-7.19149
-4.77854
-5.54554
-4.73822
-3.34003
-6.01034
-5.3668
-1.44226
-5.85851
-5.83117
-1.65675
-4.73475
-4.37162
-2.58491
-3.69034
-1.70844
-3.17385
-3.24746
-0.260814
-2.92386
-3.22994
-0.632829
-2.24168
-3.32601
-1.69374
-1.59561
-2.99095
-3.37332
-1.2905
-2.20953
-4.38177
-1.13379
-1.62352
-3.0043
-0.848407
-1.54312
-0.980184
0.0471442
-0.950446
-1.76071
-0.155071
-0.571873
-1.30144
-0.133131
-0.229966
-0.771364
-0.313282
0.559811
-0.811893
-0.574066
1.58981
-1.53375
-0.620218
2.41896
-2.21934
-0.447248
2.85776
-2.45644
-0.143132
2.99436
-2.34114
0.088914
2.95245
-2.03972
0.21732
2.82306
-1.67362
0.266229
2.65914
-1.31573
0.269137
2.48816
-1.00397
0.250532
2.32296
-0.75157
0.224213
2.16227
-0.574934
0.200302
-0.408983
0.149104
-10.7613
-7.90784
10.7112
-13.458
-9.25032
1.9459
-7.96353
-6.16416
-6.48724
-5.5409
-2.59683
-4.54649
-5.37924
-2.56305
-2.97528
-4.85465
-3.5586
-2.83391
-3.88673
-2.31677
-3.0735
-3.28845
0.910119
-3.28653
-3.0084
2.3253
-2.95543
-2.94508
1.74186
-2.52421
-3.17371
0.621425
-2.16563
-2.89991
-1.8368
-1.86529
-2.21724
-3.1975
-1.90041
-1.63695
-2.24849
-1.3546
-1.1948
-1.15072
-0.295622
-0.632794
-1.95488
-0.388108
-0.37045
-1.41086
-0.186609
0.199028
-0.924366
-0.439984
1.23075
-1.19055
-0.670965
2.33726
-1.89439
-0.759547
3.1222
-2.39881
-0.614739
3.50703
-2.50458
-0.343743
3.58991
-2.32564
-0.103511
3.49471
-2.00547
0.0578544
3.31113
-1.64127
0.150147
3.0939
-1.29308
0.195504
2.87266
-0.992187
0.212818
2.6618
-0.749179
0.21461
2.45797
-0.575308
0.210919
-0.41567
0.176796
-14.3231
-5.17531
13.2705
-18.3943
-8.35958
3.23086
-12.8599
-6.59925
-5.07317
-8.66814
-2.87193
-3.90915
-6.12693
-1.19832
-3.92286
-4.38088
-1.39942
-3.94568
-3.29414
-0.193605
-3.26871
-3.51963
3.36396
-2.31141
-3.57694
4.2435
-1.94243
-3.19531
3.0181
-1.75966
-3.21633
0.548875
-2.37699
0.571595
0.878841
0.963845
-2.92207
-0.0365123
-2.32437
-0.0721697
0.319418
-0.0649341
-2.39738
-0.289776
-2.24358
-0.0782476
-0.727239
-0.416363
-1.99552
-0.44152
-1.26897
-0.387615
-0.265917
-0.304018
-0.896451
-1.50626
-0.758488
-0.340583
-1.82329
-0.705633
0.0301416
-1.33799
-0.469923
0.817686
-1.10185
-0.627474
1.94953
-1.41461
-0.922001
2.9752
-1.92428
-1.00642
3.62587
-2.20774
-0.849834
3.9145
-2.20007
-0.599298
3.94222
-2.00537
-0.352486
3.80651
-1.72104
-0.15136
3.58696
-1.41541
-0.0070905
3.33589
-1.12823
0.0873422
3.08344
-0.880894
0.144658
2.84489
-0.680766
0.176403
2.61302
-0.531375
0.194798
-0.401259
0.180351
-17.8883
0.201976
14.1752
-24.7238
-6.03923
4.55282
-22.3982
-6.86712
-2.04174
-17.6801
-5.25831
-2.33176
-11.1076
-3.84821
-3.93876
-5.66192
-2.52057
-4.35465
-2.90687
-0.27422
-2.72236
-2.999
3.43374
-0.0443177
-3.19589
4.80525
-0.456843
-0.636022
3.45293
-0.514979
-0.799896
-0.85962
-0.913711
-0.773789
0.956572
-0.298065
0.823611
-0.936967
0.367174
-0.315986
0.741538
-0.703865
-0.187115
-0.166614
0.573313
-0.593634
-0.540292
0.10828
-0.72369
-1.8708
-1.15204
0.470983
0.518229
0.632315
0.601562
-0.107389
-1.49692
-0.959
0.538288
-1.17342
-0.830336
1.43926
-1.07086
-0.946906
2.46441
-1.28092
-1.17056
3.23473
-1.54677
-1.15712
3.65214
-1.65254
-0.980054
3.80075
-1.60632
-0.748167
3.77439
-1.46418
-0.519148
3.63845
-1.26934
-0.318322
3.43241
-1.05879
-0.151271
3.18935
-0.860222
-0.0236117
2.9377
-0.688043
0.0626377
2.69307
-0.545523
0.116241
2.44546
-0.428485
0.152208
-0.347518
0.151834
-17.9359
6.92818
12.8517
-26.3515
-1.8013
4.20488
-28.2126
-4.75323
-0.242834
-26.5003
-5.38721
-1.58734
-21.7086
-5.63285
-3.02227
-16.2565
-5.1458
-2.84697
-11.1961
-4.33584
-1.02123
-7.43262
-2.61368
2.24386
-5.14502
-0.374498
2.83828
-0.473587
0.927239
0.744781
-0.975592
-0.212818
-1.79778
-0.810844
1.93405
-0.336331
-1.30806
-0.860487
0.952131
-0.62502
0.372138
0.253429
0.53449
0.193884
-0.314238
-0.154304
-0.157441
-0.256901
0.68414
-0.651163
0.3568
0.0116494
-0.0597473
0.0270278
-0.114638
-0.0551843
-0.0799809
-0.0383931
-0.133469
0.67101
-0.648347
0.498633
-0.223338
-0.0731304
-0.0592048
-0.0264073
-0.0165129
-0.0641629
-0.0318904
-0.0359951
-0.795842
-1.76779
-1.15744
0.500931
0.461573
0.501655
0.371225
0.0276054
-1.13017
-1.20852
0.794872
-0.926644
-1.03197
1.55875
-0.780564
-1.06776
2.19466
-0.806338
-1.12179
2.56745
-0.890335
-1.03882
2.73878
-0.950072
-0.881731
2.8016
-0.968799
-0.706621
2.80415
-0.935596
-0.535935
2.75894
-0.846899
-0.380255
2.66408
-0.722502
-0.242476
2.52086
-0.599252
-0.116577
2.34128
-0.487253
-0.0172414
2.13775
-0.388042
0.0535699
1.89696
-0.2892
0.110172
-0.259264
0.11244
-12.1301
11.313
9.37081
-18.3732
1.81278
2.65028
-20.5916
-1.96447
-0.564684
-19.5218
-3.93583
-2.52815
-17.3445
-4.2794
-3.54844
-15.8679
-3.62736
-3.01765
-14.7031
-4.14448
-1.38316
-13.7677
-4.78209
1.20408
-12.2664
-4.54464
2.6202
-1.07278
-6.4829
4.24863
-2.06446
-5.18047
-0.846069
2.34736
0.242243
-2.83822
-0.377848
-0.124368
-0.207191
-0.147372
-0.641245
0.238933
-0.196664
0.844532
-0.0651983
-0.0621527
-0.0812372
-0.0231178
0.190345
-0.0241861
-0.20928
0.0183938
-0.00143896
-0.0032593
0.00892084
0.0068701
0.0033441
-0.0423265
0.0308277
0.199765
0.340658
-0.411081
0.00601994
-0.135696
-1.13955
-1.22881
-1.32033
0.601939
0.447364
0.425358
0.428648
-0.287006
-0.910243
-1.09414
0.290508
-0.753502
-0.771877
0.599484
-0.405347
-0.704884
0.706934
-0.232217
-0.700313
0.751326
-0.28719
-0.663829
0.812161
-0.414624
-0.610613
0.920909
-0.547635
-0.541827
1.06368
-0.627481
-0.459906
1.20574
-0.620375
-0.374091
1.31473
-0.543958
-0.289855
1.37831
-0.465359
-0.196753
1.38459
-0.383203
-0.105524
1.32163
-0.286582
-0.0284628
1.16964
-0.166961
0.041209
-0.152219
0.034172
-5.07645
12.801
5.20069
-8.62753
2.71531
2.65775
-10.204
-0.309851
-0.0799246
-8.80169
-2.72238
-2.62944
-6.1958
-2.95916
-3.951
-3.3874
-1.93698
-4.53427
-0.710556
-1.8395
-5.02923
1.31367
-2.96881
-3.90954
2.51691
-2.56445
-3.27321
-2.77024
1.62383
-2.68882
-1.77152
0.803185
0.735263
-0.739982
0.84562
0.220532
-0.847535
-0.679634
-0.925005
-0.684731
-1.30128
0.247688
0.250567
1.59484
-0.166732
-0.246633
-0.217776
-0.160377
-0.0118669
0.144912
0.0454228
-0.309956
0.128706
-0.893877
-0.325833
-0.711077
0.0271694
-0.404138
0.633427
0.420707
-0.575711
-0.720093
-0.542594
-0.459066
-0.596663
-0.309623
-0.423652
-0.18179
-0.307446
-0.377935
0.00856837
-0.330986
-0.300032
-0.0596696
-0.342685
-0.217202
-0.186268
-0.342328
-0.144115
-0.286849
-0.358003
-0.05536
-0.372811
-0.360805
0.0583765
-0.414698
-0.329678
0.175746
-0.353747
-0.312672
0.314072
-0.351872
-0.252679
0.445224
-0.329697
-0.180891
0.527888
-0.226843
-0.131713
0.551715
-0.0903848
-0.0877648
-0.0604668
-0.0897808
-2.16175
13.9769
2.5864
-7.33309
4.03425
3.84245
-10.053
0.51912
1.88118
-10.9082
-1.873
-0.0109017
-9.12929
-2.50108
-2.26128
-5.75839
-1.76843
-3.56946
-2.22057
-0.890284
-4.5284
-0.836167
-0.182573
-4.2385
-2.66098
1.26777
-2.10949
-2.66003
6.23949
-0.54276
-2.44824
-0.208031
-1.51313
-1.97631
3.07751
-0.379862
-0.923069
-0.711168
-0.872863
-0.907566
-0.40157
0.5152
-0.130762
-0.63805
0.639224
-0.0284139
0.0983124
-0.202968
-0.00372782
0.163601
-0.0315193
-0.00256328
-0.00323349
-0.62207
0.155651
-0.478003
0.184737
0.758943
0.208731
0.973221
-0.854983
-0.617959
-0.471931
0.0459943
0.359596
-0.0176016
-0.126744
-0.415728
0.22738
-0.404877
-0.492033
0.336747
-0.141368
-0.227144
0.362346
0.107358
-0.189723
0.264844
0.181114
-0.194324
0.108702
0.149796
-0.219388
0.0462926
0.000408747
-0.254809
0.0154375
-0.112014
-0.253219
-0.0229803
-0.158656
-0.232473
0.0146329
-0.135769
-0.264599
0.121942
-0.249407
-0.214228
0.261034
-0.368191
-0.0997651
0.375406
-0.264862
-0.0664692
0.4632
-0.0963377
-0.0707675
-0.0319458
-0.0948786
-0.507516
14.0882
1.98523
-6.72397
5.17526
5.05976
-9.4414
-0.27541
3.49788
-10.574
-2.5997
1.84316
-9.31509
-2.89873
-0.883966
-6.44394
-1.86906
-2.7957
-3.57616
-0.30481
-3.48425
-2.48515
1.3253
-2.64286
-4.31779
3.31972
-0.278837
-2.02809
5.24784
2.40499
-1.36204
-1.82857
-0.567587
-2.92601
-1.55649
1.55901
0.876027
-0.750617
0.77996
-0.311945
0.300417
-0.068861
-0.701425
0.329015
-0.576727
1.04612
-0.126492
-1.71297
0.251286
0.199844
1.59903
-0.344999
-0.142602
1.48803
-0.737008
-0.293432
-0.207614
0.429063
0.409444
0.0809652
0.398037
-0.782717
0.263195
0.0344181
-0.674904
0.348936
0.130722
-0.421559
0.423623
0.26355
-0.288739
0.467765
0.296235
-0.21233
0.435999
0.290856
-0.158477
0.348508
0.206906
-0.15732
0.203558
0.15274
-0.147094
0.0724548
0.112663
-0.15689
0.197999
-0.0290755
-0.244218
0.591611
-0.421216
-0.234671
0.766452
-0.470257
-0.078391
0.622907
-0.156095
0.0423338
0.52465
-0.00678545
0.0187309
-0.0203568
-0.0467523
1.45709
11.7736
2.44243
-5.13536
5.04205
6.70579
-8.25356
-1.94118
4.76902
-9.63714
-4.5595
3.33091
-9.47038
-4.44518
1.36371
-7.5074
-3.11568
-0.734967
-5.24821
-0.768616
-1.81757
-4.32542
1.68895
-1.313
-4.57738
3.79102
-0.25264
-3.19217
4.34273
-0.523568
-2.57238
1.43277
-2.62034
-0.669341
0.696911
0.104014
0.359987
-2.57991
-0.857141
1.17248
-0.358139
-1.17553
0.745874
0.408345
-2.44814
3.10989
-0.582265
-1.25835
-0.864456
-0.599631
0.0154887
-1.43484
3.03677
-0.795042
-1.3863
-1.09837
-0.30379
-0.498174
-0.757641
1.56932
-0.778376
-0.159423
0.684561
-0.912419
0.183228
0.405574
-0.757373
0.323392
0.379502
-0.451165
0.368889
0.415905
-0.264966
0.393721
0.409296
-0.195374
0.422083
0.391481
-0.174498
0.460356
0.308353
-0.174644
0.567394
0.19326
-0.17474
0.852414
0.0247244
-0.217746
1.28516
-0.182507
-0.299062
1.26818
-0.20096
-0.221377
0.802809
0.0153141
-0.0290399
0.48387
0.120681
0.047409
0.43779
0.0550529
-0.00832558
-0.0251677
-0.0612285
4.32592
6.56304
2.46368
-0.309581
1.91754
7.73992
-3.7226
-4.00102
5.45564
-5.54708
-6.29853
3.55278
-6.59899
-5.82381
2.41793
-6.63544
-4.11867
1.02588
-5.69086
-1.47788
-0.250561
-4.87333
1.04301
-0.19011
-4.37189
3.40957
-0.146108
-2.80451
4.25341
-1.51526
-1.27711
2.84357
-2.98009
-2.76076
-0.814934
1.39916
-2.89889
2.65703
0.556889
-2.02592
2.25808
-0.115167
-1.24713
1.35746
-0.58527
-0.629912
0.819832
-0.774341
-0.21651
0.661678
-0.702879
0.105627
0.479307
-0.473602
0.26442
0.435332
-0.239442
0.318437
0.452415
-0.153011
0.353969
0.46096
-0.154357
0.391046
0.383138
-0.151006
0.424936
0.275874
-0.145232
0.427567
0.154802
-0.151937
0.362099
0.040155
-0.170007
0.30065
0.0118345
-0.159282
0.340355
0.0718005
-0.0987427
0.425941
0.0970747
-0.0586072
0.501313
0.0504434
-0.0655515
-0.0156742
-0.0815964
5.50973
1.1695
1.45562
3.72314
-2.28059
5.96682
1.0427
-6.19308
4.86231
-0.913632
-7.32827
2.97649
-2.448
-6.3052
2.00514
-3.60962
-4.26744
1.29961
-3.97401
-1.78159
0.653084
-3.72968
0.424032
0.354647
-3.35897
2.83242
0.181983
-1.94136
3.95934
-1.15202
-0.226949
3.10724
-2.01288
-2.40873
0.000866953
1.33
-2.79092
1.91218
1.09962
-2.3127
1.48473
0.280432
-1.88413
1.10667
-0.192054
-1.42421
0.814452
-0.473818
-0.834448
0.631877
-0.58893
-0.301198
0.396595
-0.491539
0.0259965
0.344971
-0.284599
0.212686
0.371337
-0.158461
0.267118
0.469661
-0.117364
0.27886
0.44926
-0.122
0.307086
0.335269
-0.119179
0.327688
0.235709
-0.122765
0.329068
0.152995
-0.128426
0.342032
0.112919
-0.122426
0.398523
0.11279
-0.100112
0.474785
0.104713
-0.0810329
0.547469
0.0624064
-0.0799564
0.00198074
-0.0847963
4.72318
-1.77364
-0.211377
4.25882
-4.15774
2.32764
2.91044
-6.88612
2.03504
1.42207
-7.19643
1.35192
0.297646
-5.89981
0.712311
-0.400976
-3.98599
0.407163
-1.05154
-1.65194
0.506904
-1.67758
0.332329
0.68629
-1.78527
2.20689
0.702046
-0.939834
3.33135
-0.248757
0.225321
2.85934
-0.944735
-1.5077
0.584807
1.1109
-2.30028
1.74273
0.933295
-2.59706
1.34354
0.422657
-2.42491
0.690027
0.224155
-1.90641
0.389185
-0.128527
-1.22844
0.289455
-0.377266
-0.633836
0.146346
-0.393571
-0.226688
0.128425
-0.252995
0.016191
0.209867
-0.14725
0.147511
0.348061
-0.0726173
0.194069
0.397494
-0.0457632
0.222651
0.335068
-0.0633
0.261038
0.258012
-0.0852693
0.301563
0.19447
-0.0985292
0.352737
0.152941
-0.100785
0.4254
0.130907
-0.094047
0.507648
0.11016
-0.0854344
0.584546
0.0733764
-0.0836139
0.0178947
-0.0840064
3.67961
-2.15283
-1.72414
4.14549
-3.8099
-0.824022
3.38422
-5.49524
-0.631873
2.43104
-5.4523
-0.792624
1.79874
-4.22169
-1.0496
1.50126
-2.73633
-0.958142
1.66379
-1.36906
-0.458902
0.6957
0.520098
0.732972
-0.265272
2.1753
0.956872
0.0598336
2.72382
0.251749
0.480036
2.28041
0.131002
-1.74541
1.28634
1.48347
-2.42744
0.748402
1.63469
-2.18622
0.299626
0.771624
-1.83652
-0.0349931
0.328491
-1.38273
0.0145191
-0.157913
-0.718805
-0.0582218
-0.399042
-0.0193476
-0.222348
-0.425584
0.321965
-0.111808
-0.218169
0.280973
0.150781
-0.00729938
0.152656
0.314908
0.0733351
0.114154
0.32191
0.0560415
0.156859
0.245778
0.00839966
0.22151
0.197014
-0.0296747
0.287944
0.165244
-0.0554037
0.359378
0.139048
-0.0682203
0.440047
0.118601
-0.072219
0.525863
0.098461
-0.0724092
0.606298
0.0713477
-0.0745909
0.0266296
-0.0764817
2.74585
-1.33463
-1.95962
3.53746
-2.17507
-2.42023
3.31569
-2.94545
-2.32184
2.68869
-2.72598
-2.09788
2.15961
-1.84801
-1.85126
1.80384
-0.993923
-1.40361
1.48827
-0.448558
-0.644186
0.730993
0.514376
0.703645
0.318566
1.42321
1.12075
0.697991
1.56893
0.745723
0.967687
1.26951
0.721876
0.490289
0.608251
1.13763
0.0679573
-0.0843737
1.23177
-0.309507
-0.344621
0.987263
-0.845912
0.134897
0.315587
-0.908766
0.400268
-0.3982
-0.377711
0.0306355
-0.709363
0.0532186
-0.106535
-0.637013
0.25944
-0.044905
-0.368415
0.327476
0.0842643
-0.0946492
0.244015
0.226671
0.0819532
0.136699
0.236605
0.114384
0.133234
0.122582
0.0689289
0.191591
0.0763792
0.0238709
0.259394
0.0861122
-0.0135371
0.336259
0.0838525
-0.036078
0.42099
0.0761671
-0.048461
0.509519
0.0651851
-0.0553957
0.595056
0.0502417
-0.0622
0.0229421
-0.0673204
2.10749
-1.84552
2.79841
-2.86218
2.67119
-2.81309
2.21721
-2.27054
2.01079
-1.64749
1.8379
-0.836794
1.18138
0.183798
0.640849
1.02224
0.494786
1.54237
0.736894
1.30788
0.912604
1.08159
0.450463
1.05957
-0.788309
1.14118
-2.19487
1.04018
-2.2495
0.160265
-1.51978
-0.356264
-0.96698
-0.55204
-0.537688
-0.570827
-0.223059
-0.39931
0.014539
-0.196418
0.222829
-0.032579
0.283119
0.115531
0.20134
0.158184
0.153826
0.0996646
0.191096
0.0343946
0.268829
-0.00173874
0.364277
-0.0222335
0.464755
-0.0349699
0.56303
-0.0465047
-0.0552748
9.53841
-13.4675
-0.1499
14.7103
-12.4064
6.50174
17.175
-8.90792
9.33301
17.223
-5.86379
10.737
14.4418
-2.19406
11.1562
7.56718
1.36174
11.4576
-2.05187
2.70046
9.74191
-6.5674
0.547548
5.15396
-5.77871
-1.40938
2.69642
-5.21846
-1.37676
2.69325
-4.7302
-1.28324
2.14929
-3.84956
-1.45673
1.64206
-2.86805
-1.55066
1.39899
-2.0869
-1.16076
0.881079
-1.88754
-0.286193
0.301156
-1.62826
-0.382807
0.0971981
-1.43877
-0.274095
-0.0306394
-1.29989
-0.139339
-0.116833
-1.15275
-0.032211
-0.23463
-0.963499
0.00590769
-0.300048
-0.681777
-0.0860961
-0.15076
-0.315889
-0.217141
0.129332
0.056121
-0.458042
0.507341
0.354024
-0.600382
0.701
0.582349
-0.628086
0.708445
0.752325
-0.574112
0.641345
0.873683
-0.491287
0.561203
0.962196
-0.406937
0.481782
1.0459
-0.347333
0.415823
-0.276339
0.294432
4.39846
-22.1024
6.22288
2.7872
-16.0809
12.0825
-3.35771
-7.91382
12.1317
-8.36921
-5.52407
10.582
-8.18746
-5.60955
9.57394
-7.29314
-3.64927
9.79784
-7.30947
-1.72412
8.06879
-6.54012
-2.37853
4.43984
-5.65332
-2.8534
2.33754
-5.10249
-2.47082
1.78297
-4.43216
-2.37538
1.39548
-3.57267
-2.71306
1.29137
-2.63239
-3.0882
1.38604
-1.88962
-2.47982
1.12198
-1.74139
-0.43911
0.344054
-1.39779
-0.728038
0.0293165
-1.1741
-0.507816
-0.130061
-0.997619
-0.27716
-0.265434
-0.85196
-0.0378215
-0.487785
-0.600178
0.0249072
-0.660408
-0.238682
-0.0389077
-0.647932
0.261224
-0.287914
-0.365719
0.77
-0.797799
0.144729
1.09783
-1.03935
0.494157
1.26743
-1.04775
0.605148
1.34443
-0.942979
0.590615
1.36776
-0.797787
0.528328
1.36619
-0.654202
0.450764
1.36031
-0.547364
0.378196
-0.427359
0.254545
-3.94119
-22.6162
9.12737
-9.49211
-13.834
9.12265
-11.9748
-7.24322
5.64834
-11.3434
-7.56243
4.50949
-9.8702
-8.56652
3.93888
-7.92734
-7.31036
3.60613
-5.99689
-5.1838
2.74312
-5.00654
-4.06854
1.28564
-4.65025
-3.39785
0.375999
-4.34269
-2.73873
0.0224745
-3.87923
-2.58648
-0.0824869
-3.21323
-3.20229
0.125644
-2.39861
-4.18439
0.647506
-1.74507
-3.86385
1.00751
-1.60341
-0.420855
0.276897
-1.14431
-1.01551
-0.0991177
-0.858049
-0.706761
-0.224595
-0.675138
-0.357412
-0.37519
-0.549415
0.00722056
-0.666711
-0.330702
0.134262
-0.872008
0.078888
0.129908
-0.972872
0.796564
-0.394692
-0.660976
1.41423
-1.06849
-0.111546
1.74077
-1.34473
0.327136
1.87089
-1.33936
0.515445
1.88255
-1.18997
0.549068
1.83487
-0.994054
0.507589
1.76479
-0.803113
0.436254
1.69104
-0.656849
0.363953
-0.500574
0.235052
-7.90395
-19.4752
11.1917
-10.2667
-12.3827
4.67741
-9.42052
-7.09232
-1.31414
-8.91455
-8.60482
0.355325
-8.10437
-9.47072
0.452319
-6.67451
-8.47514
-0.579663
-5.13804
-6.27131
-1.72501
-4.17415
-4.19266
-2.59097
-3.59686
-2.88625
-2.68764
-3.35024
-1.95388
-2.22021
-3.28124
-1.681
-1.76248
-2.88042
-2.72128
-1.41089
-2.21014
-4.44411
-0.748769
-1.68158
-4.90122
0.232382
-1.40639
-0.314881
0.0100865
-0.892609
-1.16162
-0.354016
-0.561118
-0.821318
-0.370099
-0.419552
-0.333507
-0.459399
-0.328902
0.114249
-0.790033
-0.12946
0.352503
-1.02826
0.498891
0.189723
-1.10617
1.42906
-0.623994
-0.781067
2.09349
-1.32585
-0.226843
2.41062
-1.58173
0.22116
2.49143
-1.53929
0.446296
2.44018
-1.34668
0.512999
2.3279
-1.10933
0.493785
2.19711
-0.882651
0.435771
2.06586
-0.708431
0.373316
-0.530261
0.247758
-9.17944
-15.3909
14.2339
-8.14355
-11.4335
0.313271
-6.62124
-7.07827
-6.31503
-8.13729
-8.5079
-1.93068
-8.02225
-9.19705
-1.85456
-6.6259
-8.53745
-3.02388
-4.74777
-6.52396
-4.24732
-3.25984
-3.64522
-5.25037
-2.36206
-1.41661
-5.34153
-2.18741
-0.100462
-4.32766
-2.53683
0.217691
-3.19945
-2.5176
-1.43475
-2.64047
-1.98572
-4.14648
-1.98875
-1.45708
-5.44234
-0.849171
-1.1157
-0.0368456
-0.594177
-0.636418
-1.17108
-0.648048
-0.340838
-0.755744
-0.530004
-0.243435
-0.193957
-0.585778
-0.151806
0.297305
-0.879984
0.220355
0.462135
-1.13168
1.12322
-0.0520277
-1.12877
2.13356
-0.957726
-0.833302
2.7712
-1.56065
-0.321934
3.03813
-1.74409
0.108373
3.05459
-1.64584
0.354646
2.93694
-1.41426
0.454979
2.76298
-1.14988
0.468081
2.57781
-0.905173
0.43746
2.398
-0.719314
0.39686
-0.537652
0.289452
-10.1745
-10.5499
17.664
-6.29965
-10.8497
-2.49733
-4.03202
-7.50436
-8.32772
-6.51572
-7.79532
-2.78451
-7.04453
-8.26758
-3.39881
-6.1258
-8.00607
-4.31352
-4.32408
-6.4686
-4.96235
-2.72097
-2.95831
-5.61415
-1.80663
0.370342
-5.71206
-1.64884
1.97995
-4.82932
-2.11716
2.40023
-3.91787
-2.26451
0.239636
-3.419
-1.74947
-3.9196
-2.66043
-1.18253
-5.64578
-1.7312
-0.836135
0.528122
-1.22884
-0.477726
-0.972448
-0.973264
-0.262383
-0.505082
-0.697071
-0.138876
-0.00135972
-0.788925
0.0386226
0.453041
-1.03195
0.712566
0.259139
-1.25383
1.81061
-0.539343
-1.24164
2.7668
-1.31639
-0.951797
3.3172
-1.73208
-0.489283
3.49053
-1.79309
-0.0702783
3.42185
-1.63374
0.205271
3.23016
-1.37902
0.352562
2.99324
-1.11142
0.414137
2.75383
-0.873198
0.427354
2.52317
-0.694159
0.422129
-0.533179
0.345886
-11.2617
-4.49085
20.0898
-6.03001
-10.1439
-2.69525
-3.7168
-7.5583
-7.33209
-6.21652
-6.71204
-2.50361
-6.35856
-7.34083
-4.73253
-5.39076
-7.40321
-5.5453
-3.72878
-6.27109
-5.15701
-2.4607
-2.05281
-4.52361
-1.92796
2.46635
-4.63396
-1.78054
3.62125
-3.59931
-2.20289
0.942601
-3.71875
1.07173
1.00407
1.11353
-2.35079
0.561974
-4.07048
0.291354
0.673617
0.58973
-1.49948
-0.739611
-3.01658
-1.47362
-0.178237
-1.62288
-1.31714
-1.2439
-2.62308
-0.053255
-2.93441
-0.254667
-0.649654
0.491733
-1.41093
-0.370029
-0.707899
-1.27915
-0.202431
-0.289197
-0.894449
-0.0748144
0.151519
-0.936432
0.358435
0.286418
-1.21223
1.3525
-0.298889
-1.46021
2.45484
-1.07408
-1.42999
3.22016
-1.57487
-1.11476
3.57861
-1.75156
-0.697595
3.61704
-1.6934
-0.293118
3.45866
-1.49759
0.0136535
3.20465
-1.25038
0.213187
2.91914
-1.00919
0.330808
2.63441
-0.801798
0.395353
2.34971
-0.643381
0.43495
-0.52649
0.392717
-12.1697
3.07354
20.3921
-7.43514
-8.74348
-1.57789
-6.316
-6.51138
-4.21073
-7.96378
-5.61077
-1.80013
-6.9634
-6.97057
-5.33652
-5.36701
-7.22362
-6.15961
-3.57085
-5.88305
-4.93578
-2.74878
-0.706503
-2.25891
-2.38871
4.4508
-2.85805
-0.497865
5.1394
-2.63683
-0.504378
-0.399998
-0.440453
0.468991
-0.588008
1.18901
-0.640125
0.730206
0.632336
-0.74709
0.928676
-0.982496
0.370788
0.639234
-0.565174
-0.493309
-0.695139
-0.0437972
0.52018
-0.635045
-0.525175
-0.565851
-0.731797
-0.648228
-1.20991
0.570477
0.526579
0.431831
0.377735
-0.379988
-0.755797
-1.28916
-0.216662
-0.355236
-0.961309
0.113048
-0.118566
-1.03126
0.919428
-0.346533
-1.36246
1.94234
-0.929954
-1.56314
2.72031
-1.36658
-1.47595
3.14452
-1.55786
-1.19726
3.27207
-1.56017
-0.843942
3.19576
-1.44395
-0.495334
3.00051
-1.2679
-0.187555
2.74985
-1.06778
0.0447228
2.47797
-0.8764
0.204735
2.20002
-0.711464
0.310222
1.90101
-0.575757
0.390929
-0.508969
0.369293
-11.7006
10.662
18.5668
-9.2049
-7.08706
0.0500525
-9.60464
-4.72872
-1.63393
-9.85013
-5.0146
-1.95662
-8.2854
-6.83279
-4.75226
-7.126
-6.57753
-4.68191
-6.24721
-5.01757
-2.7959
-4.41701
-1.51279
1.17799
-1.11668
2.22324
1.68876
-0.143507
3.86458
0.42214
0.550084
0.00921394
0.0104155
1.44768
-0.182842
0.0334578
-1.25868
-0.0225873
-0.0868768
-0.0292482
-0.0787678
0.285997
0.158664
-0.335089
-0.199817
0.401021
-0.312066
0.156223
0.194641
-0.034927
-0.144238
0.0984857
-0.271796
0.291867
0.0941098
0.0907878
-0.187368
-0.0402315
-0.251425
-0.62745
-2.01982
-0.823572
0.475898
0.368054
0.396493
0.400322
-0.353469
-1.03321
-1.22755
-0.00135487
-0.709661
-1.05392
0.585535
-0.659276
-1.13351
1.252
-0.865841
-1.28534
1.72492
-1.0807
-1.37453
1.96622
-1.1899
-1.31066
2.04657
-1.21327
-1.14043
2.03099
-1.17626
-0.911285
1.9567
-1.09406
-0.660872
1.84466
-0.9789
-0.422422
1.70493
-0.857242
-0.187608
1.54897
-0.732076
-0.0020183
1.37777
-0.607147
0.12868
1.17945
-0.490659
0.232739
-0.455655
0.21946
-9.50093
15.6759
15.4553
-9.58045
-6.24101
1.87527
-9.8718
-3.82392
-1.19082
-8.94512
-5.54141
-2.9466
-8.29901
-6.65879
-4.39529
-9.54297
-5.15829
-3.22199
-13.0137
-2.81206
-0.144981
-16.5861
-1.36925
4.60398
-18.4413
-1.23857
7.90426
-7.59092
-1.83384
8.16613
-3.8365
-2.98419
-2.2763
-0.6659
3.24365
-3.43529
-0.784484
-1.56552
-0.692479
-3.14708
-0.561406
0.0658702
-0.0464708
0.0288767
-0.0334951
-0.0559275
0.0100082
0.0113547
0.00882203
0.0106893
0.0397826
-0.00739194
0.0117115
-0.0115195
-0.0352004
0.00171759
-0.000171279
3.33811e-05
0.000969171
0.0018433
0.0182961
0.0685537
-0.0651485
-0.0241515
0.000914369
-0.42996
-1.89969
-0.681614
-0.0227575
-0.161124
-0.0547964
-0.111968
-0.112474
-1.14003
-1.32188
0.339395
-0.914619
-1.0404
0.580216
-0.718277
-0.908739
0.629628
-0.664898
-0.970593
0.579064
-0.690915
-1.02055
0.515845
-0.737182
-1.01532
0.478417
-0.766718
-0.963763
0.465543
-0.771387
-0.862539
0.465743
-0.749988
-0.726346
0.467817
-0.697071
-0.578795
0.478825
-0.636455
-0.429468
0.511476
-0.572153
-0.293512
0.556357
-0.494641
-0.175574
0.603925
-0.410399
-0.0759657
-0.374649
-0.0617642
-7.32046
17.4147
12.3768
-9.28592
-5.45585
3.8268
-8.77387
-3.80181
-0.628537
-7.84825
-6.08709
-3.02625
-6.86266
-6.76839
-4.85142
-5.8106
-5.49613
-5.27571
-5.03705
-3.86958
-4.77111
-3.55916
-3.84459
-2.9401
-1.44769
-5.39478
-1.27177
-0.194501
-4.31362
0.881149
-0.946829
-0.486712
-0.983355
1.13476
0.226877
-1.67593
0.931325
-0.233678
-0.130438
-0.0910518
-0.411238
-0.00670218
0.00779836
-0.00261775
0.00612718
-0.0056126
0.00112624
-0.783013
-1.68064
-1.58061
0.346965
0.476002
0.385015
0.202105
-0.0984104
-0.976309
-1.41113
0.161504
-0.642031
-0.869199
0.264523
-0.498897
-0.658367
0.297138
-0.440248
-0.615229
0.301577
-0.44228
-0.619696
0.289313
-0.459732
-0.62833
0.261366
-0.479064
-0.635334
0.240147
-0.499835
-0.62563
0.243827
-0.49817
-0.595803
0.259452
-0.468272
-0.563762
0.309058
-0.435526
-0.505156
0.399453
-0.41213
-0.427591
0.506481
-0.363572
-0.36093
0.625627
-0.30011
-0.308539
-0.26578
-0.285213
-6.38875
17.7405
10.2412
-10.4746
-3.82849
6.29025
-9.61645
-4.60457
1.81341
-8.43972
-6.25603
-1.03411
-6.77815
-6.96906
-3.74388
-4.56041
-6.22707
-5.08042
-2.1829
-4.97421
-5.8253
-0.396377
-3.9034
-5.99291
0.835824
-3.09051
-5.68132
-0.118234
-0.0470497
-4.92808
0.161369
0.111277
0.746506
0.0226137
0.358561
-1.84657
1.42633
-0.0566904
0.0404499
-0.0294102
-0.101577
-0.00893063
0.00939685
0.0418158
-0.0420342
-0.0106602
0.0103257
0.00552931
0.00800262
0.0257336
-0.00793902
-0.0248048
-0.00669272
-0.00339005
-0.00484258
0.161676
0.0683971
-0.0846505
-0.106559
-0.00608816
-0.00274237
-0.00486548
-0.00760957
-0.00345249
-0.0060664
-0.319276
-0.823048
-1.72016
0.0421767
0.25492
-0.14883
0.154766
0.239217
-0.691426
-1.28463
0.408079
-0.457061
-0.873807
0.572686
-0.314138
-0.604204
0.663677
-0.271812
-0.475038
0.688773
-0.267532
-0.417361
0.654703
-0.279275
-0.385892
0.593305
-0.306691
-0.382776
0.51917
-0.318935
-0.373369
0.45925
-0.312272
-0.368602
0.400166
-0.303132
-0.378273
0.387761
-0.285883
-0.355015
0.446367
-0.271556
-0.297448
0.532945
-0.251685
-0.257724
0.622512
-0.206896
-0.245667
-0.179215
-0.252103
-5.43264
17.9416
8.80936
-11.3164
-1.42022
8.52459
-11.113
-5.73982
4.42145
-9.21411
-7.12742
0.804292
-6.83481
-7.77279
-2.47735
-4.55214
-7.05503
-4.27026
-2.62504
-5.52481
-4.88
-1.08068
-3.54131
-4.56982
-0.316656
-0.668575
-3.49438
0.121384
3.44932
-2.0148
0.249712
0.373167
-0.179302
-0.481925
-1.07999
0.310058
0.587061
0.75311
0.128949
0.00572345
1.24141
-1.01815
-1.32871
0.024485
0.149828
0.348493
0.408951
0.171145
0.595116
0.599442
-0.543633
-0.579384
-0.835975
0.197192
0.174047
0.203287
0.164278
0.610613
0.463437
-0.445266
-0.453396
-0.825484
0.179006
0.14034
0.156345
-0.126119
-0.487007
-2.04601
0.326818
0.308742
0.221783
0.214236
0.235021
-0.452125
-1.41093
0.402812
-0.31993
-1.0081
0.544356
-0.190584
-0.714588
0.631701
-0.13536
-0.538606
0.676749
-0.11659
-0.43193
0.680051
-0.112319
-0.349167
0.641442
-0.13124
-0.311043
0.587439
-0.145138
-0.280422
0.534138
-0.153909
-0.273513
0.447747
-0.177529