/*--------------------------------*- C++ -*----------------------------------*\
| =========                 |                                                 |
| \\      /  F ield         | OpenFOAM: The Open Source CFD Toolbox           |
|  \\    /   O peration     | Version:  2512                                  |
|   \\  /    A nd           | Website:  www.openfoam.com                      |
|    \\/     M anipulation  |                                                 |
\*---------------------------------------------------------------------------*/
FoamFile
{
    version     2.0;
    format      ascii;
    arch        "LSB;label=32;scalar=64";
    class       surfaceScalarField;
    location    "20";
    object      phi;
}
// * * * * * * * * * * * * * * * * * * * * * * * * * * * * * * * * * * * * * //

dimensions      [0 3 -1 0 0 0 0];

oriented        oriented;

internalField   nonuniform List<scalar> 
278528
(
14.9773
-6.96654
-6.09681
19.2062
-6.64902
2.57105
17.2738
-4.25655
6.28334
11.8765
-2.91835
8.3953
0.476392
0.826639
10.654
-12.1686
3.89579
8.7272
-16.2771
1.07446
2.84372
-13.4139
-3.87739
0.724133
-9.98242
-6.14863
2.39236
-7.19323
-5.10636
2.05359
-5.03263
-3.39108
1.05425
-3.46476
-2.48901
0.853192
-2.25987
-2.31461
1.12669
-1.42652
-2.12806
1.35246
-1.01653
-1.82086
1.45641
-0.647663
-1.74737
1.4326
-0.239362
-1.83168
1.47838
0.139529
-1.86188
1.50452
0.463931
-1.72855
1.37798
0.742358
-1.48808
1.14428
0.941574
-1.23555
0.93898
1.05259
-1.0445
0.808405
1.09367
-0.910273
0.724905
1.13052
-0.834349
0.64889
1.24516
-0.843518
0.59298
1.47177
-0.921875
0.588855
1.78687
-0.997108
0.616216
2.12539
-1.02138
0.660239
2.47385
-1.02394
0.682052
-0.832588
0.626429
12.9855
-21.2912
3.14933
11.8684
-17.1658
11.7731
4.37297
-9.746
13.113
-6.4066
-6.74246
14.7408
-15.055
-5.0107
14.5804
-18.6274
-2.46963
9.92395
-18.1801
-2.99478
3.51953
-14.6376
-8.21984
0.587477
-10.6038
-10.8448
0.466305
-6.95891
-8.77549
-0.146298
-4.84947
-4.76938
-0.835991
-3.7376
-2.83793
-0.792174
-2.71805
-2.9319
-0.370391
-1.80876
-3.04852
0.0778315
-1.01956
-3.01791
0.45869
-0.223652
-3.20193
0.7094
0.520158
-3.35049
0.815542
1.10612
-3.23939
0.805802
1.53044
-2.96281
0.793784
1.82509
-2.55391
0.724775
2.01179
-2.13112
0.633695
2.12434
-1.77888
0.521299
2.21505
-1.49935
0.37906
2.35342
-1.32184
0.226346
2.55488
-1.30674
0.152708
2.78063
-1.41037
0.176934
3.00921
-1.48557
0.204581
3.23966
-1.45461
0.182201
3.45348
-1.38072
0.148174
-1.06553
0.156599
7.60523
-33.6537
6.53096
-1.15488
-20.9834
12.7484
-10.8854
-14.4577
14.5925
-16.4597
-16.2336
15.173
-18.4504
-16.0055
13.0448
-19.1915
-10.2284
8.50444
-17.9962
-6.69729
2.45695
-14.7331
-11.0081
-0.546494
-10.3928
-14.4689
-0.798467
-6.0357
-12.6161
-0.572967
-3.85093
-6.00651
-0.970336
-3.29465
-1.97919
-1.39277
-2.40741
-2.32215
-1.43292
-1.55124
-2.46005
-1.36458
-0.775127
-2.59577
-1.12807
0.0922692
-3.08645
-0.922805
0.981502
-3.50716
-0.688671
1.7073
-3.49041
-0.456479
2.20695
-3.21081
-0.261401
2.4904
-2.754
-0.121024
2.60272
-2.23026
-0.0777255
2.61885
-1.73998
-0.143114
2.63178
-1.36991
-0.246168
2.71163
-1.20973
-0.299294
2.83028
-1.26917
-0.25681
2.90066
-1.41608
-0.148448
2.93002
-1.48135
-0.0906389
3.00658
-1.41676
-0.137616
3.16599
-1.29048
-0.245959
-0.926013
-0.228521
-0.256064
-38.645
7.01829
-12.9802
-21.341
13.2609
-22.4534
-20.2329
15.3832
-26.7587
-25.559
13.7085
-24.9889
-26.0044
8.2736
-20.288
-17.4594
2.54739
-16.466
-8.95812
-1.52932
-13.8399
-10.8403
-2.74181
-10.2141
-16.3496
-1.68497
-5.33241
-17.4242
-0.011775
-3.00205
-8.1343
-0.153322
-3.14734
-0.187405
-1.53493
-2.3822
-1.50039
-1.46805
-1.4754
-1.73238
-1.51397
-0.612177
-1.80617
-1.55401
0.423239
-2.49075
-1.55581
1.42528
-3.2138
-1.25266
2.2182
-3.33574
-0.930275
2.70833
-3.04869
-0.658411
2.90514
-2.55724
-0.423314
2.90693
-2.01035
-0.276764
2.8364
-1.51652
-0.233682
2.77098
-1.20024
-0.204101
2.72305
-1.14874
-0.119885
2.6553
-1.29577
-0.00871342
2.53682
-1.46242
0.0771969
2.42865
-1.50805
0.0720705
2.46531
-1.44422
-0.0373872
2.67264
-1.28853
-0.208763
-0.837225
-0.245199
-7.87563
-37.5018
8.50329
-22.8212
-21.7409
15.5227
-33.4573
-24.5362
15.0546
-36.1807
-31.115
8.34224
-30.0117
-30.3249
-1.81445
-19.8122
-19.9397
-7.68532
-13.5337
-8.22542
-6.92645
-12.3225
-7.3089
-4.53253
-10.7252
-15.8198
-1.84176
-5.78555
-23.8535
1.613
-3.41041
-10.6027
0.226683
-3.67835
2.28607
-2.02648
-2.54395
-1.00862
-1.45439
-1.48793
-1.21531
-1.4102
-0.525122
-1.09457
-1.54354
0.665963
-2.06408
-1.5317
1.77147
-2.94784
-1.32832
2.57428
-3.00097
-1.12003
2.97008
-2.62203
-0.825532
3.00882
-2.16501
-0.454275
2.85663
-1.74285
-0.164566
2.65193
-1.37922
-0.00984229
2.41887
-1.1819
0.117495
2.16675
-1.23478
0.234241
1.94188
-1.4657
0.293384
1.778
-1.69463
0.306015
1.6875
-1.72469
0.237458
1.75431
-1.59042
0.0414681
2.08129
-1.37353
-0.245955
-0.837509
-0.300441
-14.7449
-33.386
12.3949
-32.6376
-21.529
17.8396
-42.8979
-25.985
11.8061
-41.3276
-31.4668
-1.17362
-30.7242
-28.1215
-12.7839
-18.35
-17.8826
-14.3915
-11.0759
-5.49402
-9.8719
-10.6344
-1.36906
-5.99221
-11.4504
-12.4571
-2.20469
-7.64647
-29.8768
2.5396
-5.41174
-9.95112
-2.66602
-4.10154
4.06177
-2.90319
-2.74009
-0.92938
-1.24295
-1.53587
-0.98086
-1.22774
-0.414014
-0.511057
-1.54625
0.867787
-1.50835
-1.75211
1.98543
-2.33458
-1.68715
2.6873
-2.29311
-1.38948
2.80923
-1.90033
-0.840424
2.51001
-1.70544
-0.178398
2.10231
-1.63025
0.251091
1.75329
-1.4864
0.3821
1.4607
-1.40322
0.417475
1.22459
-1.54664
0.442272
1.07074
-1.88511
0.467871
1.00252
-2.17309
0.451006
0.993424
-2.13846
0.342542
1.1282
-1.82897
0.0578433
1.61159
-1.37514
-0.490225
-0.72269
-0.579328
-21.2721
-28.3078
17.9371
-42.3387
-19.6331
19.3064
-49.9355
-24.0961
5.7884
-43.1465
-27.1299
-11.1002
-31.1482
-23.0594
-17.0491
-19.5575
-14.674
-14.7555
-10.2744
-2.58108
-12.0203
-8.69339
5.30735
-7.91721
-12.3388
-3.40383
-4.75181
-9.2471
-8.56592
-0.573747
-11.6243
-4.20757
-7.61904
-7.2169
-4.5178
-7.72185
0.834501
-0.710523
0.297889
-3.42804
1.44591
-3.46656
0.418123
1.43532
0.596128
-2.92209
0.043113
-1.13467
-0.268011
0.142332
-0.0368601
-1.69125
-0.0770072
-1.1753
-0.49742
0.097728
-0.340974
-0.287715
-0.0395067
-1.70065
1.00613
-0.546997
-2.16834
2.04162
-1.32167
-1.99627
2.5749
-1.43916
-1.3568
2.35577
-1.24822
-0.423599
1.76404
-1.51463
0.387726
1.25739
-1.79909
0.63482
0.938283
-1.7722
0.53029
0.743448
-1.70933
0.399323
0.61029
-1.92658
0.401504
0.536825
-2.36996
0.447715
0.553615
-2.69328
0.400238
0.597193
-2.59083
0.318835
0.740011
-2.09394
0.061753
1.28609
-1.24811
-0.687149
-0.45774
-0.81733
-27.0819
-23.6848
24.1665
-51.0249
-15.7171
20.1317
-55.4578
-18.3319
-1.27143
-47.1583
-19.4267
-15.9956
-38.6381
-17.4488
-14.1325
-28.8245
-12.1252
-12.3202
-15.749
-2.19944
-13.3303
-7.80595
8.19946
-10.532
-3.27695
2.76498
-8.73823
-2.13031
-2.65486
-2.35491
2.83848
1.85728
0.90765
-4.35884
-7.6765
0.377523
-2.40114
-4.42534
-1.59211
3.93094
2.12164
-0.884921
0.800116
-0.530768
0.725107
-0.625793
0.247736
-0.236862
0.632093
-0.347042
-0.109341
-0.188107
0.0690793
0.868232
-1.82649
0.298497
0.289271
0.215095
0.216777
1.04655
0.615004
-2.03859
1.98967
-0.414147
-1.78545
2.39991
-0.826772
-0.982938
2.09776
-0.921164
-0.00883546
1.57696
-1.52144
0.519582
1.17883
-1.95884
0.519947
0.804004
-1.86779
0.393079
0.479657
-1.75012
0.253779
0.274085
-2.02614
0.178736
0.236176
-2.51789
0.06089
0.394704
-2.81873
-0.145758
0.564063
-2.68239
-0.176271
0.688535
-2.14779
-0.138058
1.16064
-1.0626
-0.676879
-0.186444
-0.863034
-31.2744
-20.6735
29.9228
-58.5703
-10.0296
21.6758
-62.5439
-8.85307
-5.46611
-57.9544
-9.32762
-14.6972
-56.6978
-9.01754
-9.69745
-52.2822
-7.48613
-9.03671
-40.7796
-3.95871
-9.67498
-6.37387
3.54681
-11.3534
-12.9926
-3.19305
-2.13011
-2.77976
-0.194038
-0.530186
-5.39495
0.903074
-1.33658
4.95054
1.28249
-3.55583
-3.67168
5.02939
2.05872
0.543068
-0.430924
-0.263197
0.16824
-1.37232
1.5387
-0.597963
0.458161
0.134128
0.295985
0.377118
-0.184815
-0.208473
-0.127412
-0.342227
0.980847
-0.744112
-0.528479
0.229588
0.216815
0.24582
0.198723
-0.133404
-0.136237
-0.123772
-0.153782
0.64632
-0.469332
-0.0651098
0.124648
0.139694
0.062117
0.0555451
-0.0970119
-0.0682039
-0.126284
-0.138379
-0.029698
1.61132
-1.57011
0.249267
0.272978
0.210697
0.249323
0.99104
1.26761
-1.56622
1.98267
0.207372
-1.5436
2.35674
-0.424921
-0.730369
2.18711
-0.657085
-0.0731767
1.79673
-1.17675
0.0384732
1.43355
-1.67623
0.0419855
0.921995
-1.65444
0.218561
0.403472
-1.55204
0.202429
0.105826
-1.85712
-0.00566563
0.120747
-2.30756
-0.350454
0.428825
-2.45663
-0.77986
0.757149
-2.24176
-0.863016
0.911671
-1.79704
-0.568043
1.3632
-0.787485
-0.746849
-0.0542381
-0.878571
-34.8167
-17.6363
33.3757
-65.1108
-2.68468
22.9731
-71.5662
2.4227
-4.78882
-72.3102
5.43624
-14.0197
-79.5867
8.77975
-10.5263
-87.0046
10.7806
-10.8378
-88.5463
13.7277
-16.1222
-30.6656
18.2777
-28.7118
-38.2833
-3.58061
-2.05237
-30.0031
-0.453985
-2.04338
1.85745
-1.12699
6.71114
-4.06023
-1.84389
0.336889
1.40462
1.55991
0.10626
0.211373
-0.382932
-1.06019
-1.40919
-0.682981
-0.530103
0.517743
-0.443886
0.541729
0.0110464
-0.0355771
0.00948823
-0.0511702
0.29768
-0.320404
-0.249944
0.352587
-0.0166161
-0.022192
-0.0211789
-0.0180707
0.135297
-0.154437
0.187385
-0.0584455
-0.096816
0.0256938
2.97617
-2.25631
0.291576
0.323916
0.188922
0.149963
1.28924
2.13116
-2.05549
2.24395
0.924183
-1.61536
2.48891
0.262085
-0.89369
2.35539
-0.0749458
-0.431792
2.04085
-0.428328
-0.445029
1.66112
-0.828169
-0.510571
1.10544
-0.948749
-0.233435
0.533559
-1.06849
-0.0309984
0.13264
-1.44251
-0.147235
0.0626512
-1.8063
-0.558623
0.417588
-1.81538
-1.10709
0.888492
-1.55625
-1.24745
1.16298
-1.15224
-0.975135
1.79587
-0.296492
-1.14213
0.170025
-1.32861
-41.1695
-9.81642
34.8816
-72.3101
8.76137
19.6848
-78.1203
18.579
-10.3279
-79.3443
24.7474
-18.0691
-86.201
30.0799
-14.4209
-92.3522
35.6158
-18.6585
-92.1135
41.661
-28.1514
-36.2122
47.7108
-47.4022
-33.4155
-1.56623
-2.98549
-8.64659
-36.7151
20.8542
-11.7714
-7.7059
14.5842
-14.1068
12.9439
-5.75866
-0.177637
0.630737
-0.527578
0.0818099
0.02819
-0.029618
0.0237364
-0.0225089
-0.112743
0.314547
-0.259029
0.0887392
-0.0189786
0.18358
-0.185188
0.197589
-0.0602594
-0.125001
1.15685
1.55255
-0.464944
0.217505
0.119722
0.174236
0.288856
2.98694
2.50804
-2.16518
3.63259
2.35479
-2.03975
3.40154
1.76459
-1.24583
2.84609
1.17971
-0.690344
2.28934
0.659982
-0.550288
1.78031
0.223132
-0.592485
1.20561
-0.0770815
-0.382278
0.672573
-0.501597
-0.149157
0.193625
-0.923089
-0.175517
-0.111691
-1.00289
-0.639265
0.0935819
-0.720759
-1.42758
0.57276
-0.540655
-1.59033
0.977522
-0.194137
-1.41898
2.18779
0.25933
-1.78306
0.49619
-1.97707
-50.8009
9.98917
32.5026
-86.6387
24.1838
20.3797
-97.2289
33.0061
-3.82405
-97.1061
41.1259
-16.4666
-97.8384
48.5914
-17.7317
-96.8048
55.0037
-20.3656
-90.9302
61.3945
-25.5611
-30.8103
65.1162
-35.488
-26.1548
-6.2209
-9.65469
-30.9799
-28.6387
35.0246
-6.28156
-16.306
27.1144
-4.43511
-13.8261
-1.89387
-2.59523
-3.1236
-1.87594
-1.59554
-1.85569
20.2557
0.745793
0.657887
-0.577948
0.160045
-1.01159
0.223143
0.739398
-0.695334
-0.0858881
-0.186445
-0.0490409
0.317544
-0.265553
-0.0679936
0.0676765
-0.14014
0.110338
0.0938254
-0.0664349
0.0196468
0.879479
1.3835
-2.60036
0.388991
0.444595
0.49886
0.613635
2.61961
3.32254
-2.51104
3.31081
3.52296
-1.81866
3.17391
2.9757
-1.04937
2.63229
2.25908
-0.535633
2.04584
1.64167
-0.423556
1.52456
1.08342
-0.404097
1.0918
0.58315
-0.323697
0.710195
0.0577428
-0.295546
0.205921
-0.279562
-0.285865
-0.257848
-0.218837
-0.493813
-0.112858
0.151028
-1.17059
0.28092
0.535234
-1.5682
0.46222
0.881261
-1.31097
1.52175
1.05668
-1.87391
1.05961
-2.15286
-49.8589
34.08
27.2766
-84.9561
36.3228
22.9097
-99.5589
39.8871
7.72888
-101.014
45.6874
-3.06436
-96.4084
51.5094
-7.46703
-88.0781
56.4556
-9.72031
-74.5785
58.5848
-10.6255
-53.2374
54.1636
-10.3662
-7.53207
40.1258
-11.8989
-30.3274
-24.6159
-1.44341
-2.94914
-5.23159
-5.1624
-4.33911
-16.4932
-2.2113
8.73893
2.24533
0.881341
-2.07971
0.655701
-1.61492
2.02063
0.207255
2.28184
-2.33863
-0.0224264
-0.221024
-0.416156
1.27804
-0.938713
0.795364
-0.728328
-0.109363
0.668359
-0.3186
0.986229
-1.22163
-0.0501822
2.95473
-2.82671
0.377882
0.243487
0.422468
0.306679
1.39504
3.96463
-2.0432
2.1242
4.08206
-1.25002
2.22785
3.55322
-0.662262
1.91903
2.87258
-0.309638
1.45404
2.24488
-0.172519
1.08262
1.60536
-0.219402
0.937764
1.013
-0.382878
0.828753
0.530546
-0.47662
0.617211
0.321614
-0.525341
0.381012
0.416143
-0.547857
0.443007
0.753508
-0.784141
0.768855
1.26252
-1.12814
1.06457
1.64228
-1.09793
1.97539
1.60888
-1.4779
1.48796
-1.60859
-39.1754
52.6283
22.1473
-67.3113
42.0435
22.359
-77.6079
37.3478
12.8389
-76.29
37.2016
7.2171
-69.6764
39.3547
5.60813
-59.7961
41.067
5.578
-46.0586
38.7247
6.19387
-29.0047
30.1422
7.00996
-13.6215
20.2436
4.44466
-10.8872
13.4034
-1.28806
-4.32962
-3.04011
-2.79188
-4.99544
-7.66601
17.2497
-10.0769
-1.81918
-0.81313
-4.86754
-3.00332
-6.77738
-2.19977
-1.8177
0.0904565
-0.137903
1.77898
1.31997
-3.95578
5.5809
-3.98689
-1.25649
-1.36585
-0.815453
-1.00622
-1.51028
5.60558
-2.97661
-1.64595
-1.07173
-1.59107
-0.75125
-0.552629
4.38574
-2.35782
0.454495
4.78891
-1.79709
1.15612
4.57301
-1.16753
1.49367
3.93504
-0.711746
1.46902
3.2014
-0.314941
1.18223
2.48774
0.00390923
0.817653
1.88611
0.0125629
0.532623
1.40686
-0.213425
0.359938
0.982421
-0.403572
0.37052
0.668335
-0.493266
0.552859
0.594893
-0.486723
0.83636
0.944289
-0.564464
1.23723
1.55326
-0.751637
1.60121
1.97449
-0.730969
2.21481
1.80755
-0.826309
1.50897
-0.70396
-25.0793
61.1763
18.0638
-44.2276
40.8403
20.2881
-48.8449
28.2022
13.7568
-44.9305
22.6891
10.6543
-38.8974
22.5499
10.8583
-31.4328
21.8479
11.8433
-21.9378
17.0282
12.2907
-14.0278
10.883
11.4084
-11.56
10.8024
6.95469
-11.9636
16.0346
-2.28114
-5.01645
19.3672
-9.09619
-7.2532
-0.0101762
-0.00649483
-4.50996
5.53766
-2.71566
-2.27713
5.50332
-2.11809
-1.09717
4.93402
-1.70105
-0.217654
5.19118
-1.25342
0.50071
4.53367
-0.659408
0.949497
3.95719
-0.472601
1.07213
3.25931
-0.204909
0.854911
2.55599
0.0975819
0.465487
2.05881
0.138058
0.179534
1.69423
-0.102033
0.177113
1.27562
-0.406383
0.428788
0.886973
-0.58617
0.77791
0.755388
-0.610207
1.14766
1.0474
-0.548501
1.55561
1.56494
-0.472798
1.90362
1.89708
-0.303037
2.27425
1.72538
-0.301439
1.34873
-0.218931
-10.7758
58.5706
14.9278
-23.6807
35.6682
18.0098
-25.2299
16.7341
12.985
-21.9131
9.37582
10.052
-18.6011
9.21767
10.128
-14.7076
7.28598
10.7897
-11.4468
3.38741
10.4996
-11.4959
2.4039
8.60435
-12.7799
7.82494
4.26913
-10.1771
15.5339
-2.12071
-2.67508
17.386
-5.54625
-6.985
1.89177
2.35132
-4.82218
4.46872
-1.1109
-2.91505
4.39661
-0.785061
-1.63138
4.44278
-0.761918
-0.747672
4.64116
-0.306652
-0.129658
3.73237
0.192363
0.31362
3.26125
0.231638
0.50995
2.59397
0.43091
0.353418
2.0217
0.628104
-0.00935041
1.75422
0.570774
-0.20502
1.6953
0.083428
0.00653021
1.35915
-0.399799
0.465332
0.980662
-0.650832
0.955177
0.875974
-0.695122
1.39828
1.10836
-0.570496
1.78908
1.48523
-0.35941
2.1146
1.7071
-0.164805
2.41921
1.60682
-0.196774
1.22703
-0.165582
1.48468
46.729
11.9258
-8.52863
28.6684
16.9452
-14.3124
9.68814
12.7606
-15.0967
2.91831
7.25697
-13.7044
2.15506
5.77157
-12.5373
-0.0822902
6.31297
-12.484
-2.16859
5.60425
-12.9158
-1.07228
3.98715
-11.7131
4.54827
2.10002
-7.30423
12.2236
-1.10446
-0.492554
12.6592
-2.10919
-6.0532
2.30818
5.06704
-4.61463
2.49436
0.508243
-3.25001
2.45416
0.600242
-2.04167
2.97986
0.297314
-1.23106
3.22701
0.628315
-0.845356
2.45574
0.893491
-0.513916
1.94865
0.955325
-0.372043
1.37776
1.01537
-0.569351
0.955656
1.16168
-0.937149
0.809705
1.1541
-0.909238
1.07384
0.436539
-0.377134
1.03403
-0.314728
0.322399
0.846242
-0.654128
0.99996
0.854959
-0.731943
1.5801
1.09798
-0.629924
2.03449
1.41404
-0.426961
2.38389
1.57936
-0.246923
2.70274
1.51637
-0.237157
1.13268
-0.160666
10.3486
29.8984
8.07423
5.7714
17.5677
15.6221
-5.42133
6.09042
14.7061
-13.6739
2.98276
8.18142
-15.2192
0.41572
3.34681
-14.7981
-3.29832
2.89084
-13.9372
-4.29932
1.38325
-12.4128
-1.99631
-0.530501
-9.34441
1.85776
-0.359281
-3.72957
7.50389
-0.906206
2.66116
5.69333
0.52068
-2.52054
1.44806
5.97182
-3.89991
1.30709
2.54725
-3.89848
0.638099
1.85378
-3.02876
0.565896
1.60478
-2.23048
0.993536
1.4725
-1.78394
0.842297
1.17061
-1.49517
0.65359
0.971077
-1.70351
0.533397
0.978856
-2.50266
0.543633
1.09119
-3.13493
0.248392
1.01281
-2.47781
-0.351472
0.571377
-1.12808
-0.363965
-0.0789829
-0.0304677
0.0867441
-0.429448
0.864958
0.458289
-0.570069
1.61206
0.823116
-0.52736
2.19378
1.14192
-0.34785
2.62397
1.30697
-0.17817
2.97202
1.30589
-0.143271
0.976025
-0.0526266
16.4372
12.2525
2.78806
17.6168
5.27339
11.0381
12.0144
-0.0637483
11.6549
5.52017
-0.0548006
9.47251
-0.980646
0.167356
6.76479
-7.36718
-1.26537
4.45885
-10.8342
-2.01725
1.31185
-11.4383
-1.5893
0.273595
-7.9773
-0.73314
-0.859817
0.0467781
1.22422
-1.78459
4.92098
0.1908
0.553219
3.33471
-0.515437
3.50729
2.90707
-0.535262
2.26604
1.94008
-0.443128
2.07424
0.872529
-0.200448
1.87458
0.370245
0.0497465
1.47482
0.191338
0.0524671
0.973449
0.0783873
-0.0102704
0.760801
-0.0425657
-0.0489122
0.66819
-0.107219
-0.0755258
0.627864
-0.287632
-0.232019
0.584298
-0.74221
-0.479312
0.486088
-0.871821
-0.591071
0.250245
-0.382874
-0.479932
-0.0124915
0.403253
-0.211719
-0.185328
1.21305
0.155996
-0.194621
1.91033
0.486565
-0.0756918
2.47147
0.684369
0.044696
2.92849
0.766479
0.0772753
0.606924
0.143963
20.11
-6.24659
24.7962
0.544906
21.6658
3.0154
18.3343
3.25084
15.6919
2.81896
12.2257
2.23199
8.30182
1.94493
5.3612
1.38273
5.48511
-0.846228
8.83963
-2.14107
10.2704
-1.25855
8.72833
1.01217
7.28597
0.907323
6.04962
0.805334
5.08887
0.77791
4.48065
0.670606
4.07138
0.464053
3.75471
0.299091
3.49565
0.194806
3.25064
0.147181
2.8674
0.122819
2.27781
0.0748941
1.62419
0.0188721
1.12643
-0.0301249
0.922522
-0.0514429
1.06217
-0.0173816
1.44484
0.0820719
1.91997
0.198314
2.42591
0.257437
0.32852
14.0316
-21.537
3.2992
20.1622
-15.9004
12.5115
21.5566
-10.1732
15.1897
20.2077
-6.25877
16.1011
15.0181
-0.529502
16.4159
3.13431
5.32994
15.2142
-10.0898
5.84964
10.043
-13.9978
1.0839
3.23059
-11.2867
-2.54427
1.89207
-8.5194
-2.56401
1.59954
-6.45568
-1.57905
0.410533
-4.91776
-0.754391
0.00456686
-3.66922
-0.714454
0.601773
-2.58937
-0.859057
1.18743
-1.65
-1.14028
1.70082
-0.855318
-1.29329
1.9882
-0.154486
-1.49619
2.31998
0.46868
-1.65432
2.55149
1.03586
-1.68658
2.48634
1.52931
-1.66217
2.27301
1.86551
-1.51982
2.05324
2.01365
-1.27922
1.84415
2.03336
-1.02315
1.61169
2.05715
-0.839985
1.33954
2.18245
-0.760269
1.11113
2.42362
-0.729742
0.984665
2.73193
-0.692605
0.940174
3.10642
-0.627276
0.889058
3.51131
-0.542809
0.822612
-0.378264
0.792602
9.10562
-37.1988
11.4748
8.68056
-23.4627
19.9071
2.87774
-13.2385
22.1117
-5.62491
-6.77938
23.8649
-12.1682
-1.1985
21.8166
-15.1114
3.49223
14.6473
-16.4972
4.09128
6.52481
-14.503
-1.58086
1.06763
-10.8432
-5.57734
-0.378781
-7.61925
-4.78711
-1.28706
-5.46175
-2.53269
-2.11935
-4.12933
-0.813874
-2.08774
-3.15082
-0.34807
-1.68211
-2.38517
-0.40398
-1.07021
-1.73891
-0.685152
-0.576647
-1.10759
-0.857306
-0.280514
-0.383204
-1.12952
-0.201926
0.374674
-1.62699
0.0553152
1.04439
-2.10909
0.538654
1.56355
-2.2575
0.757794
1.84046
-2.0534
0.813695
1.91233
-1.6746
0.73347
1.92506
-1.3081
0.51084
2.0233
-1.0679
0.207975
2.24342
-0.949428
-0.0127902
2.54791
-0.87569
-0.0914185
2.83547
-0.760538
-0.0883518
3.09712
-0.631113
-0.105708
3.39582
-0.525597
-0.165741
-0.28568
-0.0670571
-0.246152
-44.9096
16.2329
-10.0392
-23.0451
22.2641
-19.4658
-13.9409
24.8208
-23.9809
-10.8367
23.7889
-24.3119
-5.94752
18.1277
-21.9728
0.091198
9.51375
-18.0481
0.995174
1.55168
-13.6925
-4.52459
-2.07584
-9.95891
-7.30107
-2.88536
-6.6105
-5.78816
-2.96169
-4.54177
-2.78188
-2.79677
-3.44971
-0.740569
-2.5314
-2.46088
-0.292972
-2.4104
-1.65871
-0.129113
-2.34732
-1.14999
-0.0380473
-2.19523
-0.788661
-0.0110057
-2.03567
-0.184205
-0.394381
-1.96406
0.642751
-1.2679
-1.6175
1.34665
-2.02912
-1.05326
1.78388
-2.28905
-0.566297
1.97728
-2.05234
-0.342832
2.06446
-1.61067
-0.390885
2.16358
-1.25028
-0.518256
2.27011
-1.05116
-0.54638
2.38852
-0.967963
-0.478846
2.53913
-0.903422
-0.376229
2.71478
-0.795762
-0.303053
2.90866
-0.680184
-0.312883
3.10265
-0.546046
-0.418275
-0.196891
-0.390956
-10.3714
-45.5718
19.7799
-23.5084
-21.0415
24.5138
-31.4636
-14.9419
24.406
-32.7486
-13.4236
17.604
-29.2817
-8.51807
7.36169
-22.5858
-3.21323
-0.885898
-16.054
-2.2971
-4.8045
-11.752
-5.68223
-5.88488
-8.53873
-6.8454
-5.32261
-5.41112
-5.13979
-3.71972
-3.85516
-1.58761
-2.80292
-3.1927
-0.0744822
-2.77201
-2.28168
-0.244851
-2.31832
-1.46544
-0.0918447
-2.2412
-0.915167
0.204723
-2.23063
-0.488565
0.482725
-2.3618
0.343638
-0.233974
-2.18583
1.37392
-1.43835
-1.76472
2.14122
-2.27636
-1.18169
2.52161
-2.48176
-0.641149
2.62379
-2.18289
-0.307323
2.62781
-1.71917
-0.215246
2.64958
-1.39002
-0.194148
2.70033
-1.25196
-0.08846
2.77684
-1.22977
0.0591738
2.87246
-1.18889
0.167791
2.9611
-1.04856
0.164883
3.03401
-0.877172
0.0532569
3.04403
-0.650581
-0.114005
-0.148025
-0.285145
-17.229
-42.5971
24.4803
-30.7912
-18.1922
26.3408
-35.2539
-14.0668
18.6975
-30.8524
-13.177
3.70067
-23.3233
-9.26022
-8.6263
-17.287
-4.75645
-12.1989
-13.0061
-3.12404
-10.3514
-9.88234
-4.73625
-8.51135
-7.32749
-4.52106
-6.56351
-4.31654
-2.98656
-3.2942
-3.74401
1.35835
-3.0561
-3.22733
0.93045
-3.39872
-2.18935
-0.189715
-2.40538
-1.30576
-0.093313
-2.13697
-0.812473
0.381412
-2.08667
-0.225635
0.568972
-2.08672
0.916401
-0.643287
-2.00438
2.02634
-1.85572
-1.78656
2.69068
-2.45788
-1.30663
2.95114
-2.50859
-0.710922
2.97519
-2.21572
-0.205581
2.94773
-1.8573
0.0784979
2.93809
-1.61891
0.26064
2.93737
-1.55997
0.44098
2.90713
-1.56877
0.561663
2.88713
-1.51174
0.558142
2.86352
-1.27697
0.417043
2.83385
-0.991286
0.149799
2.76013
-0.70696
-0.116889
-0.0686453
-0.334078
-21.7642
-37.4414
30.7135
-33.2149
-14.5379
25.7342
-30.4367
-12.1374
7.14834
-20.4356
-11.5482
-12.8099
-13.3073
-9.51597
-19.682
-10.6286
-4.73445
-17.0943
-9.78141
-1.72489
-12.0365
-8.63712
-2.16646
-9.52638
-7.20858
-0.548905
-7.28168
-4.1453
0.801337
-3.93787
-4.70937
5.33772
-5.86028
-3.27638
1.19327
-4.46142
-2.06907
0.0777211
-2.57819
-1.04044
-0.0609362
-2.13101
-0.411535
0.471308
-2.14853
0.369946
0.225194
-2.09923
1.48574
-1.12357
-2.26935
2.3317
-2.03059
-2.0334
2.70757
-2.29143
-1.37805
2.81792
-2.32945
-0.484674
2.79486
-2.26598
0.28377
2.68201
-2.08169
0.654318
2.54399
-1.95223
0.804285
2.38433
-1.92908
0.874783
2.26316
-1.92232
0.842615
2.24987
-1.81305
0.670281
2.25509
-1.45283
0.433242
2.16311
-0.978636
0.0911824
2.03919
-0.568566
-0.509168
0.136419
-0.709461
-24.3654
-31.0359
37.5972
-31.2581
-10.4255
22.1774
-20.6761
-9.02011
-7.86012
-9.34478
-10.4752
-23.5168
-5.27268
-9.32275
-21.3457
-4.62236
-5.27653
-14.8525
-6.40616
-0.660701
-11.1795
-7.28001
1.7335
-10.6929
-6.75173
4.10782
-9.7499
-3.25885
1.21242
-7.54016
1.40579
1.01923
0.83999
-4.31811
3.13492
-8.47662
1.52017
1.70596
0.956425
-3.04075
0.856423
-5.29123
0.179698
0.708465
0.107978
-1.79062
0.311607
-2.88311
0.156103
0.210763
0.00745127
-0.793053
0.245422
-2.30497
-0.0899598
0.19046
-0.142736
0.0462472
0.375844
-2.34934
0.894381
0.0505927
-2.76827
1.7708
-1.13625
-2.80809
2.30358
-1.87447
-2.01565
2.45738
-2.01232
-0.844371
2.3441
-2.22774
0.387676
2.07374
-2.41297
1.01655
1.80502
-2.46263
1.11668
1.54005
-2.37705
0.999598
1.35844
-2.28547
0.831702
1.31648
-2.17537
0.626711
1.44755
-1.98124
0.326083
1.60292
-1.51834
0.131267
1.4811
-0.797883
-0.0573572
1.17329
-0.0946406
-0.863222
0.576565
-1.11585
-24.8193
-24.9128
44.5484
-25.8174
-6.72772
17.5178
-11.0698
-5.58754
-19.4042
-1.5716
-9.12672
-26.8591
1.06585
-8.4953
-17.6305
1.6076
-6.19996
-11.9321
-1.31331
0.125464
-11.0778
-4.05422
5.62766
-11.5749
-1.25788
2.41193
-11.9809
-0.742227
-1.17646
-1.00311
2.49853
1.51916
1.15029
1.27562
-1.06587
1.40888
-1.50838
3.05804
-0.786432
2.7379
-2.45046
0.66877
1.18811
1.20308
-0.765605
0.813535
-1.51254
0.662003
0.630623
-0.406958
0.387353
-0.915394
0.535949
0.336456
-0.132891
0.259762
-0.711591
0.451106
0.529856
-2.79334
0.106159
0.13715
0.0894209
0.114405
1.21743
0.335164
-3.02198
1.95073
-1.05517
-2.54834
2.38993
-1.77884
-1.48001
2.32596
-1.81333
-0.128748
1.81076
-2.00345
0.798807
1.34797
-2.3758
0.906244
0.976658
-2.55817
0.78818
0.684287
-2.4475
0.510573
0.602637
-2.29022
0.132633
0.737262
-2.17206
-0.218377
1.03407
-1.94219
-0.606131
1.29294
-1.38813
-0.673579
1.14501
-0.477849
-0.375169
0.704488
0.581613
-0.92504
1.16966
-1.2842
-23.8939
-20.3999
50.9737
-18.0809
-6.87049
16.0914
-0.287601
-3.38582
-25.3918
5.47384
-6.74285
-22.8434
8.40862
-6.64403
-14.4988
8.99578
-4.28005
-11.5283
9.26029
1.93518
-11.6924
1.53683
7.63822
-10.0613
2.04717
0.975472
1.44412
4.91716
0.212798
2.64921
-3.76608
-0.201689
2.63262
-3.29327
3.03843
-2.20442
0.210524
-4.34465
5.06811
0.773858
-2.10533
-0.400101
-0.324298
-0.421909
-0.324331
0.409432
0.718811
0.380523
0.639201
0.436366
0.347477
-0.263502
-0.30796
0.308138
-0.507946
0.202101
0.24082
-0.134823
-0.168596
0.144895
-0.276556
0.0967035
0.19116
-0.10872
0.124166
-0.216971
-0.0773687
0.50513
0.995404
-2.94892
0.159297
0.150753
0.113153
0.0504665
1.57176
0.722405
-2.95935
2.3719
-1.0809
-2.26863
2.51051
-1.69007
-0.919113
2.14741
-1.43015
-0.0789182
1.55396
-1.57227
0.185218
1.11244
-2.10448
0.166615
0.741086
-2.33656
0.289903
0.494447
-2.26454
0.154616
0.507724
-2.19326
-0.247822
0.645928
-2.05755
-0.73016
0.865615
-1.7016
-1.35258
1.07026
-1.05766
-1.49654
1.00031
-0.157352
-0.872912
0.847451
1.06467
-1.08853
1.58371
-1.34082
-25.674
-14.7001
55.0149
-15.7019
-8.86027
15.0743
8.15062
-7.21025
-24.7467
12.9179
-3.04104
-22.4551
13.9546
-2.00695
-16.1699
15.9296
-2.31225
-14.7379
24.0822
-2.88254
-19.4104
6.2465
-5.27492
-16.3421
6.15644
6.05967
6.18029
1.94665
2.45857
-6.36856
10.3917
-2.17867
1.42593
-0.783094
0.300842
-0.393746
0.68428
-1.23036
0.411975
-0.235215
0.105958
-0.111556
0.31232
-0.454271
0.031169
-0.0192452
0.0468356
-0.0444448
-0.0289576
0.00374182
0.00438688
0.00386075
0.00289837
0.0214218
-0.00502445
0.0147117
-0.0136437
-0.0202822
0.000788265
0.000826793
0.000650958
0.000831386
0.000278467
0.0121805
-0.0158881
0.0187672
-0.0118789
-0.00269714
0.864431
2.56257
-3.61483
-0.24829
-0.167085
-0.571241
-0.0495739
2.15718
1.06237
-3.64426
2.85367
-0.917597
-2.43582
2.65009
-1.39245
-0.955641
2.18294
-1.02546
-0.359014
1.79521
-1.10958
-0.535474
1.43668
-1.69488
-0.604316
1.01935
-1.97678
-0.252355
0.663417
-2.00572
-0.0384626
0.437912
-1.98183
-0.256899
0.342424
-1.7653
-0.879307
0.443873
-1.26565
-1.75651
0.609312
-0.595927
-1.96784
0.714941
0.141151
-1.42912
1.08396
1.19202
-1.65048
1.5177
-1.78602
-29.1807
-5.54183
56.5665
-21.1426
-4.51465
7.38061
-1.09385
-4.70637
-32.8023
5.12187
0.533624
-27.7749
9.99212
0.560562
-21.7641
15.3761
-3.47311
-22.785
23.5386
-10.5894
-28.524
3.47969
-16.7351
-28.0394
3.55459
4.76202
3.85934
-1.86939
-1.16513
0.257594
-11.2336
17.3769
-0.742732
3.1273
0.727371
-0.581022
0.338881
-2.96338
0.00134628
-0.0080265
0.00223978
-0.00152397
0.00766909
-0.00185141
3.62849
1.79427
-2.08496
-0.450769
-0.0898468
-0.569798
-0.111603
3.81516
1.00618
-2.25944
3.14284
-0.303693
-1.94246
2.53095
-0.665737
-1.3335
2.18327
-0.551272
-0.811171
1.97203
-0.707057
-0.7592
1.72077
-1.23755
-0.839581
1.38941
-1.51296
-0.585218
0.947392
-1.59353
-0.217235
0.399033
-1.50151
-0.230878
-0.151371
-1.05949
-0.930064
-0.50386
-0.364837
-2.10633
-0.667938
0.113255
-2.23
-0.71415
0.545357
-1.82685
-0.00612114
0.861154
-2.17448
0.752408
-2.373
-39.5666
12.5242
55.6554
-38.256
3.59761
11.0221
-18.9139
-2.57132
-25.2186
-6.78678
-0.0417176
-27.9131
-0.188508
1.16806
-24.8022
4.5749
-0.979998
-27.4682
8.00843
-7.5289
-31.9108
1.52703
-14.9058
-34.3115
1.3591
0.939707
1.2417
2.07175
15.1494
0.583736
-4.79442
-11.5943
0.635567
-2.749
-9.34943
9.76342
0.420369
0.708559
0.598838
0.0418918
0.0752515
0.123155
0.0881449
-0.541685
0.0337748
0.344984
-0.0309751
0.0742144
-1.31179
0.753334
0.0516241
0.0183426
0.0350719
0.0327915
0.0425386
0.0716371
-0.0647255
-0.0406757
-0.041793
0.00191644
0.0128977
0.0223751
-0.0116777
-0.0223631
-0.00289544
0.0153698
-0.00727471
-0.0438782
0.0175117
-0.0286499
0.0240769
0.0151141
0.013263
0.0132379
-0.00887629
-0.00585871
-0.00712954
0.878707
0.584456
-3.40599
0.25412
0.604509
-0.0091947
0.323156
1.1139
0.754103
-2.44251
0.80323
0.228619
-1.98743
0.825559
-0.0559708
-1.65222
1.1825
-0.178158
-1.26484
1.50375
-0.412295
-1.06288
1.51734
-0.726684
-0.974227
1.37469
-0.971118
-0.795682
1.04584
-1.08573
-0.573303
0.50313
-0.949476
-0.424677
-0.0363359
-0.462295
-0.70821
-0.334554
0.267303
-1.64508
-0.689457
0.802473
-1.99178
-0.993169
0.92201
-1.43644
-0.406845
0.472855
-2.08931
-0.165239
-2.33308
-47.5826
35.4258
53.5987
-57.2779
15.7018
20.5546
-44.222
3.2351
-11.049
-30.269
2.02019
-18.9635
-22.3268
5.04949
-19.1477
-16.3117
5.42332
-21.9803
-10.4979
1.59882
-25.4025
-5.3451
-2.84428
-27.4442
-0.989872
-0.687624
-28.1137
5.13252
3.16016
3.78142
2.43542
-0.930589
-0.551719
-0.480936
1.84883
2.74728
0.677223
0.0742588
-6.54858
-7.12969
1.88712
-0.254681
9.34303
-2.81956
-1.07096
1.1944
0.528815
2.05351
-1.8368
-4.41885
-1.33885
1.12977
1.37446
1.28289
0.0247139
1.417
0.687202
-0.689882
0.24766
-1.72171
-0.0320949
0.0568258
0.0120272
-0.738847
1.90545
0.407615
-0.339748
2.31858
-1.89492
-1.01675
-0.332313
-0.304861
-0.608096
0.762728
-3.59751
0.379373
0.277315
0.276052
0.313967
-0.233579
0.981851
-2.59219
0.00049895
0.685303
-1.89264
0.37229
0.352961
-1.42098
0.850376
0.124203
-1.09567
1.27749
-0.0638314
-0.978015
1.49941
-0.256258
-0.959062
1.52245
-0.463462
-0.980041
1.33775
-0.546509
-0.917379
0.978945
-0.404431
-0.824712
0.620203
0.0427294
-0.833555
0.529959
0.607957
-1.14868
0.572002
1.02441
-1.46471
0.755995
0.955687
-1.35826
1.50753
0.186154
-1.95798
-0.58383
-2.04692
-45.5869
55.8929
48.9009
-62.1441
27.4092
27.2539
-60.9646
9.67256
5.30397
-54.3723
5.39161
-2.61703
-47.4984
8.88966
-4.94671
-38.8764
10.6515
-8.09999
-28.3001