/*--------------------------------*- C++ -*----------------------------------*\
| =========                 |                                                 |
| \\      /  F ield         | OpenFOAM: The Open Source CFD Toolbox           |
|  \\    /   O peration     | Version:  2512                                  |
|   \\  /    A nd           | Website:  www.openfoam.com                      |
|    \\/     M anipulation  |                                                 |
\*---------------------------------------------------------------------------*/
FoamFile
{
    version     2.0;
    format      ascii;
    arch        "LSB;label=32;scalar=64";
    class       volVectorField;
    location    "20";
    object      U;
}
// * * * * * * * * * * * * * * * * * * * * * * * * * * * * * * * * * * * * * //

dimensions      [0 1 -1 0 0 0 0];

internalField   nonuniform List<vector> 
90398
(
(88.5478 -33.0052 -20.9966)
(197.096 -42.3949 -9.36837)
(248.605 -34.5101 3.85942)
(234.921 -23.8044 13.5276)
(166.662 -6.58659 21.872)
(-9.66622 12.3829 22.3433)
(-225.926 0.633932 8.96093)
(-230.036 -19.3938 5.62449)
(-147.549 -32.8673 9.85011)
(-104.872 -30.4173 9.49911)
(-84.841 -24.0026 5.09162)
(-59.3174 -21.3163 1.6152)
(-35.4254 -19.9799 0.720088)
(-20.1826 -17.0367 2.29992)
(-9.70916 -13.5496 3.72797)
(-1.98342 -11.7597 2.79467)
(3.99184 -12.6385 3.10776)
(9.17692 -14.0899 3.55849)
(13.8815 -13.8761 3.51166)
(17.7153 -12.2975 3.18804)
(19.1105 -10.6214 2.95477)
(18.0443 -9.38908 3.04843)
(15.9378 -8.28618 3.5664)
(14.3814 -7.01591 4.08584)
(14.4136 -5.88986 4.18021)
(15.2705 -5.33151 3.81378)
(16.0277 -5.41997 3.38077)
(16.943 -5.54106 3.16829)
(19.8635 -5.80255 2.91977)
(23.1416 -5.02202 2.37715)
(86.7786 -131.195 0.565984)
(154.777 -130.697 24.0737)
(139.129 -66.6942 33.7336)
(42.1816 -24.5556 41.0244)
(-91.1787 -0.728156 40.6177)
(-171.425 9.0225 25.9489)
(-246.579 -11.3762 8.25306)
(-236.836 -50.7363 1.77716)
(-163.494 -67.9789 2.51345)
(-104.121 -55.2239 1.91367)
(-76.5983 -34.0678 -0.993337)
(-58.4382 -23.6883 -2.34522)
(-40.1007 -24.2438 -2.80286)
(-26.1026 -25.1989 -2.22159)
(-13.93 -24.2037 -0.166923)
(-2.82551 -25.1616 0.100239)
(7.28874 -26.3123 0.338989)
(16.1883 -26.0748 0.171222)
(23.411 -24.2986 -0.0081743)
(28.2353 -21.7021 0.0627264)
(30.1889 -19.179 0.208735)
(30.0541 -16.82 0.35854)
(29.2381 -14.3135 0.682341)
(29.2988 -11.8181 1.1049)
(30.9693 -10.3529 1.43574)
(32.6237 -10.3448 1.46669)
(33.4443 -10.9017 1.27496)
(33.9186 -10.808 1.08436)
(35.514 -10.5657 0.757251)
(36.5512 -8.40948 0.387168)
(54.2692 -246.278 12.1651)
(66.8453 -170.293 38.0111)
(-60.6359 -81.3492 48.7)
(-159.722 -85.2981 54.4607)
(-192.295 -78.0896 51.1667)
(-204.015 -47.1191 37.5763)
(-242.8 -49.6272 12.8685)
(-232.544 -88.0802 -1.69091)
(-162.451 -104.492 -1.2103)
(-97.8257 -85.2556 1.34154)
(-59.0927 -47.1144 -0.291111)
(-47.8644 -25.6195 -2.5785)
(-34.9393 -23.1694 -3.61055)
(-21.8505 -21.4645 -4.04086)
(-11.6492 -21.6031 -3.03488)
(-1.23984 -25.3881 -3.87899)
(10.873 -28.5486 -4.16063)
(21.8679 -28.3308 -4.19814)
(30.3973 -26.5115 -3.8287)
(35.6292 -23.9603 -3.02286)
(37.4589 -20.8863 -2.23918)
(36.7847 -17.4428 -1.74865)
(35.2463 -13.9314 -1.27908)
(34.7147 -11.1224 -0.679354)
(35.5265 -10.2114 -0.0949146)
(35.4861 -10.8866 0.138351)
(33.8135 -11.3631 0.0148548)
(31.8388 -10.9079 -0.244293)
(31.8402 -10.2658 -0.816894)
(32.9402 -7.59683 -0.934767)
(13.0184 -307.672 20.6715)
(-59.3758 -155.169 49.4864)
(-225.481 -132.684 55.7014)
(-309.802 -162.412 49.9167)
(-320.13 -163.157 36.6281)
(-262.09 -111.605 26.0806)
(-226.078 -75.2831 12.0082)
(-211.546 -107.007 -4.92121)
(-154.818 -131.606 -3.33179)
(-95.1198 -117.312 2.51046)
(-44.3575 -60.6981 2.20096)
(-36.156 -21.2349 -1.48699)
(-32.2081 -21.0633 -1.64381)
(-19.4098 -18.982 -2.80106)
(-9.87313 -17.9509 -3.36609)
(1.26121 -21.0064 -6.33989)
(15.3717 -24.9946 -7.32399)
(27.4844 -25.4805 -6.94307)
(36.1047 -23.8816 -5.89544)
(40.6278 -21.3402 -4.41617)
(41.515 -18.2273 -3.15799)
(40.1423 -14.8628 -2.39981)
(38.1825 -11.7865 -1.56424)
(36.7227 -9.78607 -0.663919)
(35.0255 -9.78411 -0.125677)
(31.9424 -10.7378 -0.0229393)
(28.0068 -10.9379 -0.20309)
(24.4465 -10.3705 -0.452503)
(24.4519 -9.51249 -1.02774)
(26.7462 -6.36132 -0.94492)
(-32.3977 -310.775 32.8343)
(-177.752 -165.628 58.1704)
(-365.025 -174.244 50.3174)
(-448.452 -216.945 27.7505)
(-422.218 -218.294 6.13973)
(-300.141 -151.177 -0.301003)
(-191.957 -86.6606 1.38189)
(-174.828 -110.607 -4.26665)
(-145.097 -148.3 -0.494203)
(-103.434 -158.564 2.14665)
(-50.0486 -83.8111 -1.50595)
(-26.8714 -9.1361 -1.8339)
(-31.4408 -16.1309 -0.239204)
(-17.2697 -13.9433 -1.52801)
(-8.55721 -12.1171 -3.37895)
(3.58487 -16.8229 -8.10421)
(19.9477 -21.6006 -10.0826)
(32.1702 -21.9737 -9.15779)
(39.6155 -20.1747 -6.96743)
(42.2457 -17.7431 -4.41557)
(41.3738 -15.0547 -2.57484)
(38.9231 -12.2851 -1.59206)
(35.7246 -10.056 -0.630686)
(31.7785 -9.25633 -0.0253356)
(26.9413 -10.3284 0.23318)
(22.2255 -11.8244 0.360263)
(18.3332 -12.2529 0.171344)
(14.6869 -11.656 -0.155995)
(14.7536 -10.2699 -1.16205)
(20.1183 -6.21781 -1.3912)
(-78.6588 -290.522 48.6227)
(-294.122 -174.325 59.4962)
(-495.528 -195.066 29.1822)
(-546.558 -235.557 -7.8044)
(-455.92 -222.435 -27.1154)
(-303.642 -158.586 -17.1893)
(-167.142 -89.1175 7.73376)
(-128.888 -93.3193 9.96081)
(-124.187 -147.708 6.04713)
(-124.784 -221.893 -4.37298)
(-80.5573 -110.719 -15.8025)
(-19.1154 6.02236 -4.04587)
(-32.8547 -10.9624 0.575675)
(-15.1446 -8.76019 -0.689911)
(-6.97185 -5.60703 -3.58899)
(6.77432 -13.2711 -10.4047)
(23.8765 -18.2084 -12.6838)
(34.6638 -17.9733 -10.6041)
(39.1097 -16.2238 -6.34325)
(37.3428 -14.9926 -1.7464)
(32.936 -13.6191 0.664257)
(28.6944 -11.5434 1.13861)
(24.6693 -9.82093 1.19055)
(20.3332 -9.965 1.21662)
(15.653 -12.0235 1.71823)
(11.6885 -14.3651 1.99107)
(8.51856 -15.2474 1.57438)
(5.69408 -14.3748 0.835223)
(7.07107 -11.522 -1.50574)
(15.4759 -6.41149 -2.41195)
(-125.593 -255.857 64.488)
(-413.008 -168.878 49.6815)
(-609.735 -190.714 -6.62341)
(-596.347 -216.446 -46.211)
(-462.229 -196.433 -47.3834)
(-331.491 -145.83 -12.0046)
(-175.884 -66.236 32.464)
(-76.2301 -32.0976 39.7557)
(-102.788 -114.619 12.416)
(-159.374 -275.528 -11.672)
(-95.9741 -95.3386 -29.5053)
(-3.66616 43.3349 -4.86655)
(-35.9418 -6.69153 1.70845)
(-13.7003 -5.53863 -0.0734419)
(-6.14288 0.830915 -3.80803)
(9.60155 -10.6692 -12.8784)
(26.5092 -15.7018 -14.5284)
(35.2321 -15.4179 -10.8344)
(35.1984 -14.6747 -4.66267)
(28.3537 -16.4035 0.857488)
(22.9338 -17.3279 2.27336)
(19.5854 -15.0941 1.91419)
(16.6513 -11.6778 2.02727)
(12.9629 -11.1599 3.33143)
(8.52645 -13.7884 4.61062)
(5.0986 -16.836 4.1826)
(2.30554 -17.8456 2.89538)
(0.0281029 -16.3274 2.01342)
(2.11402 -11.0266 -1.39772)
(11.477 -5.07271 -3.08052)
(-167.763 -207.644 76.9171)
(-524.739 -143.292 29.0424)
(-702.331 -156.935 -49.5388)
(-629.665 -169.229 -78.3625)
(-542.085 -156.936 -60.5067)
(-454.543 -112.618 -21.8453)
(-284.026 -31.3846 24.8423)
(-95.2203 41.5936 44.1718)
(-81.0048 -42.3458 18.8216)
(-191.917 -323.857 26.2701)
(-179.081 -216.689 -69.7772)
(-36.5902 38.4603 -4.09914)
(-34.7035 1.30501 2.25847)
(-13.5996 -8.25186 3.40015)
(-4.81745 -2.24367 -7.93805)
(10.8285 -7.28619 -16.0249)
(28.2452 -13.259 -15.8351)
(35.3846 -14.6045 -10.7728)
(30.7756 -16.3881 -4.04348)
(24.7728 -20.471 -0.227797)
(23.3468 -21.5746 0.541285)
(21.0872 -18.5316 2.23497)
(16.5535 -13.9807 4.88769)
(10.3986 -13.0171 7.45417)
(4.41777 -15.5643 7.11772)
(1.33287 -18.3258 4.02947)
(-0.163263 -18.8615 1.5463)
(-0.727564 -16.6209 1.23666)
(0.494709 -8.99926 -0.628524)
(10.28 -2.26351 -2.28859)
(-199.343 -152.716 82.7136)
(-616.182 -94.5005 2.79586)
(-786.903 -95.0186 -93.0384)
(-717.442 -101.451 -111.565)
(-731.41 -93.077 -101.652)
(-714.791 -64.8741 -85.2894)
(-606.197 -13.4284 -45.73)
(-427.308 50.9162 18.2537)
(-286.23 -64.872 154.23)
(-158.511 -124.391 44.8506)
(-178.138 -6.09523 -90.6312)
(-116.445 40.8833 -13.4878)
(-42.1981 22.893 -3.63859)
(-19.2035 4.52552 -2.44412)
(-8.91947 2.11085 -11.8417)
(9.54933 -0.188233 -18.5485)
(30.0153 -8.52841 -16.1647)
(35.736 -12.9451 -10.5101)
(30.1026 -15.5179 -3.48015)
(28.5197 -17.2341 -0.848132)
(28.8544 -18.2929 0.529237)
(25.5878 -16.9859 4.83597)
(18.8831 -15.3767 8.7471)
(10.2301 -15.8606 9.57511)
(2.8813 -17.5894 5.76343)
(0.436548 -18.4529 0.308421)
(0.537425 -17.7761 -2.56475)
(2.55643 -15.3697 -2.27555)
(2.74359 -7.92156 -1.95563)
(16.3525 -1.43546 -2.38847)
(-244.719 -95.6267 75.2071)
(-692.118 -31.2785 -28.5732)
(-874.603 -15.4581 -141.151)
(-846.302 -8.28249 -168.921)
(-955.561 3.7734 -192.438)
(-1051.49 14.2364 -230.823)
(-1117.71 31.6009 -270.9)
(-1129.48 66.7496 -288.465)
(-1666.51 -25.1672 -144.214)
(-1337.64 -8.89557 163.553)
(-317.982 123.206 187.222)
(-119.751 79.0817 -4.83709)
(-59.5788 45.1812 -3.65)
(-20.0627 22.1907 -5.96079)
(-11.196 10.0713 -17.2204)
(11.0159 7.58353 -19.0613)
(32.3928 -1.39809 -13.7884)
(37.4179 -7.83714 -9.22818)
(33.3972 -6.0048 -2.02088)
(33.7749 -3.86875 1.25705)
(32.4464 -7.5448 2.41315)
(28.0786 -10.2198 6.55873)
(21.5329 -12.5499 9.46764)
(12.7008 -15.5114 8.21904)
(3.37649 -17.6271 3.27072)
(-0.373868 -17.1673 -2.90593)
(0.447697 -15.1736 -5.79603)
(5.90529 -12.1339 -5.4612)
(6.80497 -4.98464 -5.21831)
(28.2191 0.301073 -6.09449)
(-341.132 -31.4052 52.3499)
(-809.985 28.9686 -74.6625)
(-961.463 52.6235 -192.179)
(-938.512 81.8571 -236.746)
(-1035.25 123.496 -284.114)
(-1121.46 159.5 -349.561)
(-1169.73 198.822 -426.363)
(-1147.22 236.372 -500.382)
(-2008.21 455.881 -755.825)
(-3113.7 1357.23 -1198.52)
(-149.549 10.3715 -1.75015)
(-71.6833 12.6717 -6.32823)
(-31.2027 23.6021 -9.28382)
(-3.18336 25.3272 -11.0341)
(33.6687 25.0542 -17.1996)
(48.2342 18.1818 -13.0372)
(50.123 11.0659 -8.52452)
(45.3751 12.246 -3.09709)
(39.3692 11.4845 0.837344)
(33.2681 6.09863 3.32459)
(27.4944 1.63964 6.13878)
(21.9591 -2.85579 6.54622)
(14.6678 -8.60297 4.99069)
(3.65297 -12.6442 1.13381)
(-3.39682 -12.0292 -5.08604)
(-4.4553 -9.25162 -7.74907)
(3.02907 -6.44378 -7.59726)
(6.74918 -1.81891 -7.81364)
(42.3409 1.20087 -9.18727)
(-464.6 81.287 33.446)
(-972.048 147.958 -80.2293)
(-1202.94 190.372 -193.137)
(-1200.47 228.582 -246.605)
(-1210.89 279.126 -289.137)
(-1222.98 337.371 -332.883)
(-1186.03 399.843 -359.364)
(-1079.78 464.893 -336.575)
(-1705.04 1023.69 -467.803)
(-850.175 1048.94 -80.9054)
(-138.021 -105.846 19.339)
(-162.834 -33.85 -5.63719)
(-64.6175 4.67772 -0.385008)
(-16.1454 7.71079 9.7768)
(-1.10401 19.311 -11.9771)
(28.4301 27.6699 -11.4847)
(42.7377 28.1678 -7.48863)
(47.0202 24.2908 -3.95459)
(44.0029 22.0177 -1.66564)
(37.5966 19.1209 0.260603)
(30.449 16.7431 2.89056)
(24.5187 12.037 3.90545)
(20.2952 4.05145 1.96245)
(14.618 -3.31489 0.109565)
(2.58961 -7.49105 -1.38658)
(-6.42843 -5.61713 -4.79321)
(-8.01088 -0.936422 -6.43053)
(-3.23996 2.9355 -5.63136)
(-1.39555 5.01524 -7.85095)
(33.979 5.38132 -10.9017)
(-476.335 221.261 30.3783)
(-945.571 255.631 -46.3272)
(-1208.76 302.079 -133.724)
(-1269.64 358.159 -183.659)
(-1238.9 409.828 -207.215)
(-1161.43 457.429 -211.886)
(-1027.41 492.7 -191.008)
(-813.687 492.221 -137.119)
(-509.131 422.284 -54.8403)
(-244.7 310.987 17.1005)
(-128.293 -53.0921 -13.5965)
(-140.884 -8.6917 -14.6874)
(-56.5278 18.9272 -25.4436)
(-18.0726 29.4556 -36.2458)
(-11.5012 19.9773 -15.1126)
(14.0852 29.73 -8.16168)
(27.6401 32.5988 -4.21742)
(33.3754 29.0517 -0.927845)
(33.53 22.8774 0.538282)
(29.7224 18.4245 2.48973)
(23.7455 14.2525 3.99518)
(19.7336 7.39251 3.54384)
(18.0941 -0.0249743 2.17443)
(15.2127 -4.87842 0.351102)
(8.78102 -5.55866 -0.65692)
(2.69261 -1.44682 -1.64942)
(1.14805 5.15487 -3.43537)
(5.30228 10.2269 -4.4406)
(7.78913 11.3122 -6.87703)
(34.6942 10.5298 -9.08536)
(-403.837 336.911 31.7139)
(-753.653 305.578 -6.91893)
(-958.202 316.414 -59.5999)
(-981.226 346.634 -86.256)
(-920.118 376.438 -89.9488)
(-814.325 395.79 -76.818)
(-663.381 384.198 -48.0792)
(-456.187 309.537 -12.7395)
(-243.781 179.444 2.39361)
(-120.727 84.6069 -17.2953)
(-122.939 126.75 -52.3891)
(-88.8081 -32.1747 -0.845708)
(-84.2549 41.7865 -27.3763)
(-21.645 35.49 -23.4632)
(-14.6886 25.565 -15.551)
(3.80475 33.3431 -8.64241)
(14.7622 33.4323 -4.54332)
(21.2597 29.0616 -1.32769)
(25.5058 22.8212 0.407691)
(24.8307 17.4925 1.77019)
(20.4107 12.4806 1.92914)
(14.9496 7.38169 1.33484)
(11.3099 1.453 1.1869)
(8.63222 -3.51551 1.26545)
(7.66802 -4.03262 1.13949)
(8.11272 1.18012 0.376793)
(9.21855 8.61443 -1.03143)
(13.0443 14.0699 -2.27371)
(15.1632 14.1883 -3.72827)
(30.7119 12.7729 -4.52099)
(-295.234 406.665 33.3698)
(-504.978 301.016 20.5881)
(-622.056 257.013 -6.2247)
(-592.44 244.863 -14.2484)
(-525.272 250.09 -8.47816)
(-443.145 248.122 6.15477)
(-328.312 207.924 25.1198)
(-193.91 121.382 34.6381)
(-132.312 61.7257 15.1555)
(-149.981 113.099 -32.3415)
(-110.238 141.568 -52.965)
(-67.2031 -20.574 2.79883)
(-93.1784 39.8993 -15.3535)
(-33.2421 35.6651 -16.1953)
(-17.2672 30.2167 -12.4806)
(-2.19326 37.8767 -7.6066)
(6.07527 34.7191 -3.88649)
(13.5042 29.9722 -1.44906)
(19.9377 24.7359 0.00630745)
(20.961 20.0599 1.10657)
(16.089 15.6606 1.09276)
(9.62562 11.2728 0.137573)
(6.29936 6.98165 -0.924029)
(6.72071 3.57371 -1.26375)
(9.12797 2.69515 -0.807752)
(12.1894 5.96551 -0.300453)
(14.6393 11.4815 -0.283751)
(17.2801 15.6076 -0.484654)
(19.207 14.7626 -0.694004)
(25.647 11.9349 -0.38167)
(-177.138 430.655 33.1735)
(-270.902 258.573 35.9176)
(-324.711 159.059 23.0526)
(-282.127 116.474 21.4977)
(-255.471 117.53 24.3369)
(-208.308 105.107 31.1216)
(-148.014 60.3244 33.2292)
(-120.016 24.4566 19.6153)
(-144.665 60.7896 -7.53478)
(-138.97 120.756 -34.0777)
(-86.864 126.133 -39.2495)
(-43.4122 -10.7474 5.91743)
(-87.4462 32.4076 -3.69258)
(-45.3834 36.5922 -7.82095)
(-19.8414 33.6252 -8.39306)
(-6.48161 38.4705 -5.08835)
(-0.864941 32.7033 -1.95954)
(6.84286 29.9786 -0.643531)
(14.0451 25.7487 0.466726)
(15.6994 21.5437 1.6555)
(10.0619 18.0051 1.49925)
(3.04551 13.9913 -0.738824)
(2.06519 9.77898 -3.06173)
(5.64045 6.9596 -4.09294)
(10.6078 6.59375 -3.67231)
(15.2909 8.96626 -2.36508)
(18.5183 12.6243 -1.16827)
(20.0985 14.9498 -0.275443)
(22.0926 13.5507 0.356202)
(24.9538 10.1261 1.06341)
(-72.7233 393.09 27.707)
(-79.5304 228.046 42.8472)
(-127.828 61.9885 32.437)
(-168.815 24.7438 18.4833)
(-184.729 35.3563 12.8674)
(-156.734 20.324 11.9168)
(-145.566 2.97775 4.72816)
(-151.474 17.0385 -6.75587)
(-142.747 61.6426 -16.5735)
(-110.919 109.878 -26.94)
(-57.2842 103.828 -24.9626)
(-16.1146 -4.74598 9.10192)
(-65.5919 17.7672 3.45492)
(-46.6865 31.0625 0.228533)
(-25.279 35.4651 -3.04487)
(-9.47378 33.894 -3.3594)
(-8.52943 28.4848 -0.911237)
(-0.915581 26.0967 -0.402919)
(6.8406 21.1622 1.00181)
(8.4243 17.1531 2.09245)
(-0.436765 15.6971 1.75596)
(-7.94216 14.2823 -1.19415)
(-4.50221 10.1058 -3.84312)
(2.46923 7.23089 -5.06502)
(10.2287 6.88693 -4.80693)
(17.0317 8.71386 -3.57905)
(21.7485 11.3413 -2.28106)
(23.5172 12.6859 -1.06704)
(25.5007 11.5771 -0.121672)
(28.4413 8.47204 0.617814)
(6.23324 300.759 17.6344)
(61.4647 201.891 39.3989)
(52.0962 38.5821 39.4554)
(-94.8489 -13.7262 16.5717)
(-183.859 5.0179 2.43399)
(-179.54 10.9522 -1.51528)
(-170.16 15.7187 -7.39285)
(-157.386 34.1857 -15.8819)
(-124.012 65.8611 -20.3129)
(-80.3781 95.0275 -22.1614)
(-21.046 72.7043 -14.5115)
(29.0743 2.53201 4.42696)
(-12.1087 -9.25978 6.18828)
(-40.7672 12.4881 5.16469)
(-33.3765 21.8147 2.88449)
(-17.2623 24.3153 0.782083)
(-16.5225 22.5048 0.839755)
(-9.93468 19.3012 1.08038)
(-3.26126 13.0425 2.03421)
(-5.25683 7.1726 2.25182)
(-22.4802 5.85178 0.864597)
(-29.4637 8.10133 -1.00967)
(-16.1741 6.89912 -1.86853)
(-3.60552 5.20426 -2.84121)
(7.25915 5.07467 -3.02047)
(16.3181 6.636 -2.49705)
(23.0995 8.73754 -1.87945)
(26.2176 9.85882 -1.08912)
(28.8867 9.70562 -0.341122)
(32.2444 7.35682 0.286087)
(58.7274 179.857 4.4286)
(151.741 136.61 22.8492)
(193.085 40.7351 27.3684)
(157.095 -11.0693 23.5893)
(69.8065 -26.4081 17.8576)
(-18.8847 -34.9036 13.9329)
(-88.1012 -21.0933 3.67247)
(-115.724 5.15764 -6.05064)
(-115.421 40.903 -16.1303)
(-57.2678 66.2901 -19.1158)
(9.2833 41.7807 -11.9856)
(52.4807 8.35359 -2.75101)
(60.1895 -7.18453 -0.479976)
(47.4252 -10.1982 1.50211)
(27.863 -5.69644 3.05316)
(16.0705 0.917709 3.26178)
(10.2853 5.49127 2.7916)
(6.59023 8.29843 3.26472)
(6.19212 7.8462 3.86367)
(6.45584 4.92769 3.8654)
(6.47963 1.55609 3.35988)
(1.61144 -1.15414 2.88678)
(-7.37304 -1.55621 2.5255)
(-7.10846 -0.467456 1.92107)
(0.888394 1.0405 1.2403)
(10.2307 3.20877 0.768709)
(18.3542 5.26548 0.47306)
(23.1576 6.69847 0.685309)
(27.8315 7.60683 1.00687)
(32.4882 6.13179 1.25551)
(78.4171 71.5668 -12.5233)
(197.213 65.3434 -8.88567)
(267.963 36.7068 -6.54623)
(277.469 16.4327 -5.58936)
(246.975 5.8078 -4.7387)
(201.304 0.22384 -3.71153)
(151.849 -2.48004 -1.94122)
(108.397 -4.80439 -0.423913)
(81.9805 -7.85942 -2.26513)
(77.5704 0.547766 -6.07868)
(101.1 1.90574 -6.15101)
(115.629 -2.48405 -2.83456)
(109.787 -4.96877 -2.26176)
(93.7148 -5.20001 -1.81656)
(77.713 -4.0366 -1.32802)
(66.92 -2.46196 -1.02321)
(59.5517 -1.19823 -1.07113)
(52.8738 -0.276977 -0.788096)
(48.1251 0.270139 -0.0785934)
(45.8025 0.202565 0.662003)
(42.872 -0.310187 1.03591)
(36.518 -0.90577 1.03596)
(27.1551 -1.4067 1.17043)
(18.1558 -1.78033 1.78413)
(12.0641 -1.70003 2.65593)
(10.6827 -0.84777 3.13587)
(12.6402 0.353612 3.18173)
(15.2201 1.58634 3.34878)
(19.8961 2.64845 3.50079)
(26.256 2.50505 3.30289)
(69.4535 -130.642 11.1746)
(195.977 -142.196 45.2961)
(278.16 -104.646 60.6854)
(295.549 -68.1932 68.1614)
(271.499 -34.5996 73.059)
(192.897 -0.623479 71.6237)
(-52.4077 17.6213 49.1734)
(-247.439 1.86002 17.1702)
(-162.798 -12.844 14.1679)
(-117.405 -15.2323 15.3187)
(-102.067 -11.8671 11.9907)
(-79.0536 -12.365 9.58162)
(-54.8248 -17.8657 8.50574)
(-36.9154 -19.8075 8.19329)
(-22.4871 -19.8201 10.4787)
(-9.34721 -19.8632 11.1073)
(0.551038 -20.6145 11.9425)
(8.85124 -20.5043 12.6004)
(16.5535 -18.8694 12.1145)
(23.2729 -16.9101 10.9537)
(27.4164 -15.2016 9.77316)
(28.5096 -13.4821 9.05002)
(27.5109 -11.5168 9.08833)
(26.1166 -9.43818 9.38713)
(26.1562 -7.71985 9.39494)
(27.5465 -6.6649 9.02435)
(29.1487 -6.15185 8.61327)
(30.8561 -5.58421 8.2043)
(35.0293 -5.10238 7.48945)
(38.8835 -4.14048 6.28109)
(28.5585 -260.834 52.9984)
(118.409 -190.96 93.183)
(106.336 -90.0926 102.883)
(18.9645 -29.4124 110.195)
(-88.6849 21.7761 107.457)
(-127.377 50.493 79.4718)
(-195.562 36.7448 37.8017)
(-245.611 -7.73163 6.55386)
(-162.422 -35.6158 -2.08354)
(-108.219 -32.0518 -5.47368)
(-86.3392 -18.3997 -7.34509)
(-65.7433 -4.11887 -5.69454)
(-45.9643 0.451097 -3.25655)
(-31.7309 -2.05149 -1.07836)
(-20.7477 -8.5041 1.07129)
(-10.2897 -12.4879 2.14112)
(-1.68655 -15.9241 3.45933)
(7.02661 -17.9413 4.43686)
(16.3391 -19.5106 5.09418)
(23.893 -20.2202 5.31122)
(27.9203 -19.4513 4.88942)
(28.3629 -17.1511 4.3157)
(26.8958 -13.9435 4.08164)
(25.8888 -10.7343 3.75074)
(26.8081 -8.57776 3.28993)
(28.8415 -7.57305 3.06383)
(30.675 -6.60249 3.08429)
(31.1173 -5.14621 2.76508)
(32.7385 -4.17001 1.89635)
(35.3906 -2.68174 1.45933)
(-32.0815 -338.86 79.1604)
(-35.9181 -172.119 113.493)
(-185.312 -89.8437 125.624)
(-272.508 -66.2845 126.5)
(-281.107 -24.6325 108.368)
(-262.848 22.8329 70.6268)
(-255.564 18.1978 21.3599)
(-226.713 -36.4847 -10.8022)
(-150.392 -60.3444 -15.4394)
(-97.2036 -49.8826 -12.0972)
(-71.5821 -30.1676 -11.2862)
(-52.5068 -12.4756 -9.89115)
(-36.5005 -4.42066 -9.8927)
(-22.5602 0.0896644 -11.3658)
(-11.7248 2.17063 -10.7736)
(-5.30172 1.22282 -8.81415)
(-0.191616 -3.76111 -6.55245)
(8.91947 -10.0531 -3.90529)
(19.542 -15.5914 -1.47662)
(26.8943 -18.1628 0.422662)
(29.6895 -17.314 0.526006)
(29.6572 -14.474 -0.797219)
(29.3168 -11.3737 -1.86228)
(29.6953 -9.00625 -2.07628)
(30.0417 -7.64259 -1.70342)
(29.7378 -6.69176 -1.02959)
(29.6403 -5.46946 -0.437585)
(29.1094 -4.43276 -0.625212)
(29.6234 -3.78021 -1.83757)
(30.531 -1.48249 -2.16669)
(-94.7761 -351.451 100.995)
(-201.866 -161.992 131.981)
(-364.603 -115.2 133.707)
(-404.199 -97.8146 111.314)
(-366.528 -51.0161 69.4361)
(-302.069 -2.79045 24.7093)
(-251.36 -10.0127 -13.9504)
(-194.727 -57.5139 -33.4429)
(-126.651 -69.0413 -24.2822)
(-81.8116 -54.9997 -10.3997)
(-56.1174 -33.3602 -6.35128)
(-41.3873 -14.4014 -9.99666)
(-30.9506 -8.98595 -8.21554)
(-18.5411 -4.37967 -10.2243)
(-8.49146 -0.593071 -11.6251)
(-3.39911 0.00868776 -11.7571)
(2.9709 -3.35548 -8.99181)
(15.7757 -10.5589 -6.4204)
(28.1255 -16.7615 -3.56075)
(35.2992 -19.3323 -0.620905)
(37.4629 -18.236 0.573979)
(36.9638 -15.3596 0.0382241)
(36.2738 -12.5468 -0.430785)
(36.0718 -10.5618 -0.152086)
(35.5366 -9.3687 0.478624)
(34.5654 -8.43096 1.24646)
(33.5176 -7.27495 1.48763)
(31.5297 -6.10992 0.888082)
(29.6898 -4.7282 -0.754091)
(28.5622 -1.28772 -2.0112)
(-150.584 -344.58 127.751)
(-310.128 -153.286 148.182)
(-445.751 -114.52 122.423)
(-406.788 -89.4023 63.3544)
(-296.669 -35.6399 -11.5678)
(-238.516 -12.2603 -58.1626)
(-218.106 -37.89 -58.0681)
(-163.343 -66.4649 -43.1947)
(-102.936 -63.0121 -21.5308)
(-65.607 -48.9277 1.92565)
(-43.4896 -26.2571 2.55792)
(-32.5244 -9.05533 -12.0754)
(-26.2363 -8.97682 -7.22928)
(-15.3586 -5.16314 -8.39487)
(-5.73201 -0.0224089 -10.9535)
(-3.75175 4.58733 -10.5203)
(7.96039 -1.6365 -9.92741)
(23.794 -10.673 -8.89347)
(34.8538 -16.8179 -5.66968)
(40.1489 -18.8757 -1.34546)
(41.4745 -17.6452 1.47554)
(40.7773 -14.992 2.20214)
(40.1638 -12.7244 2.39449)
(39.7489 -11.3955 2.74359)
(38.129 -10.8624 3.31366)
(35.5926 -10.4372 3.78007)
(33.1849 -9.4075 3.13729)
(29.4949 -7.98307 1.28614)
(26.0941 -5.93474 -1.25877)
(24.9896 -1.29386 -2.5906)
(-197.669 -320.782 161.573)
(-377.221 -133.798 157.456)
(-430.02 -90.9451 91.6393)
(-268.353 -57.5956 -10.0943)
(-162.222 -37.8007 -94.2323)
(-161.975 -49.1325 -105.936)
(-165.203 -55.3606 -73.3632)
(-135.418 -57.1751 -35.199)
(-88.2091 -44.5294 -11.0118)
(-63.2961 -44.1486 15.2346)
(-42.5147 -18.0912 -2.8184)
(-27.8563 -0.0571536 -17.5673)
(-23.0804 -4.8732 -7.59911)
(-11.5926 -1.91581 -8.13232)
(-1.80615 4.49438 -11.745)
(0.651386 5.58844 -12.3631)
(16.096 -4.72773 -14.1562)
(29.2967 -13.1931 -12.1971)
(35.6389 -17.517 -6.80371)
(38.1453 -18.6461 -0.279786)
(38.7383 -17.4527 3.98386)
(38.0009 -14.9949 5.30688)
(36.478 -12.9122 5.49224)
(33.9519 -12.1089 5.31725)
(30.3821 -12.2993 5.24606)
(27.0538 -12.3887 4.84802)
(24.8335 -11.3252 3.33272)
(21.3222 -9.53718 0.00718379)
(16.9105 -7.01819 -5.64477)
(16.9779 -1.05169 -6.9011)
(-239.331 -280.96 199.243)
(-404.314 -104.356 160.892)
(-318.16 -58.3537 50.0744)
(-90.6448 -41.7543 -82.2255)
(-85.9626 -77.7452 -115.212)
(-92.8617 -77.2011 -78.9154)
(-99.6422 -45.4779 -45.6134)
(-108.149 -28.7239 -19.1622)
(-78.4733 -21.8966 -12.8706)
(-60.3135 -28.2259 7.35322)
(-19.2643 32.9389 -14.2423)
(-26.4398 11.9634 -25.4301)
(-21.8636 3.144 -10.431)
(-6.72899 1.65625 -10.1293)
(-0.133188 5.12313 -11.6033)
(6.68665 -2.85175 -15.8494)
(22.559 -10.6537 -17.1216)
(30.1698 -16.3842 -12.2473)
(32.9986 -19.2801 -3.98299)
(33.178 -21.0834 4.34466)
(31.3138 -20.9584 7.87684)
(29.0576 -18.7804 7.77141)
(25.6476 -15.9914 6.44053)
(21.6115 -14.3341 4.76943)
(17.7995 -13.7315 3.59414)
(15.2394 -13.3326 2.68069)
(14.0575 -11.8694 1.54284)
(12.4597 -9.04258 -1.63457)
(7.24251 -4.03646 -9.78867)
(5.65666 2.37011 -10.4308)
(-275.007 -228.033 235.333)
(-390.603 -68.8869 161.594)
(-137.272 -23.933 1.30087)
(-5.07756 -59.8356 -116.973)
(-35.4703 -97.2945 -76.9353)
(-8.55059 -68.9155 -15.7534)
(-5.04103 -8.28575 5.38579)
(-57.6481 26.8738 -8.26271)
(-58.5677 27.5414 -34.5118)
(-60.9426 -0.342855 -28.9248)
(-17.7335 52.1274 -29.1864)
(-36.0921 30.2911 -34.8248)
(-24.1389 12.7386 -19.6818)
(-5.83127 7.47227 -16.7322)
(-1.98904 -4.00306 -15.7792)
(11.7328 -8.42245 -17.8992)
(27.1923 -13.4316 -14.7857)
(31.5881 -18.6882 -8.94683)
(33.2252 -20.963 -0.0835099)
(28.8568 -23.1804 7.51973)
(24.7776 -24.2604 8.67917)
(21.5414 -22.9871 7.23385)
(17.1578 -19.4964 4.09434)
(12.7513 -16.249 -0.528685)
(9.56344 -14.2039 -4.05852)
(8.10647 -12.7113 -5.46597)
(7.36321 -10.1688 -4.7067)
(7.24215 -6.01008 -4.19013)
(4.2867 1.73465 -10.2748)
(-0.568586 6.76033 -11.1268)
(-306.592 -169.929 262.685)
(-354.672 -36.3861 166.892)
(92.4033 11.4952 -24.9669)
(36.1498 -64.8671 -105.433)
(65.6428 -66.8161 -45.2579)
(96.8522 -37.9022 19.8008)
(101.07 28.4774 40.1132)
(128.248 98.3576 -14.1333)
(22.4296 84.6947 -127.381)
(-28.7043 55.9103 -33.964)
(-24.2434 73.3349 -89.1396)
(-64.2438 48.515 -53.2683)
(-37.2067 22.053 -25.733)
(-14.8133 13.5473 -20.8258)
(-6.5469 -0.693815 -17.5668)
(15.8353 0.0231955 -17.1054)
(33.2929 -12.5394 -11.4745)
(36.8389 -18.5452 -5.01046)
(33.2999 -17.1281 2.99311)
(27.528 -15.7348 8.14558)
(24.126 -17.2916 7.55618)
(20.4435 -18.9519 6.60859)
(15.7594 -18.6369 2.60739)
(11.7242 -17.4885 -4.35311)
(8.93487 -15.9572 -9.73615)
(6.61887 -13.5711 -12.6796)
(4.25282 -9.63752 -11.9481)
(5.11285 -3.80116 -8.01613)
(6.04049 5.79933 -10.0227)
(5.32266 10.2995 -10.6439)
(-363.111 -112.948 270.288)
(-378.549 -52.7175 163.413)
(185.388 -42.8762 -26.3855)
(149.64 -33.1993 -107.686)
(140.448 -29.2507 -60.8917)
(180.84 -9.27613 6.70156)
(201.559 24.2539 2.06886)
(404.465 47.4468 -55.9394)
(251.429 88.3168 -272.649)
(-91.9358 112.023 -101.221)
(-78.1848 164.133 -235.624)
(-148.386 62.2051 -51.1727)
(-43.6037 10.0515 -32.8923)
(-8.15843 33.2588 -19.3076)
(-1.7969 6.60145 -18.4596)
(21.6365 3.9941 -15.0238)
(39.9201 -10.0649 -9.84576)
(41.6374 -14.3558 -2.73281)
(34.9148 -7.84111 5.72812)
(30.4755 -6.02957 6.11616)
(27.8519 -10.4925 3.75904)
(23.5701 -14.1743 4.15807)
(18.6226 -16.2733 2.71927)
(12.8771 -17.3374 -3.13784)
(6.49516 -16.4299 -10.5136)
(1.91972 -13.1055 -15.6614)
(-2.1212 -8.54819 -15.7605)
(0.806318 -1.99239 -12.1442)
(5.43179 8.29521 -13.0781)
(15.3834 12.6154 -13.181)
(-457.243 -41.5276 257.212)
(-428.881 -70.0767 125.647)
(53.3161 -117.094 -74.8396)
(30.4267 -59.2379 -126.543)
(73.2289 -31.0298 -69.8157)
(154.642 -36.8256 -34.5427)
(217.678 -69.166 -61.2525)
(381.31 -113.359 -147.625)
(79.2895 56.6433 -473.05)
(-86.5792 78.9928 -401.88)
(23.7507 7.07098 48.915)
(36.1475 31.3127 2.81675)
(54.2621 20.5427 -7.02628)
(46.6129 3.8335 -7.79993)
(40.0333 -2.23072 -1.95915)
(36.5893 1.32402 4.72051)
(32.1951 -0.400524 3.93675)
(28.5887 -7.12076 1.72296)
(25.4001 -10.9452 2.96175)
(21.5019 -12.9766 4.03419)
(14.5423 -14.0419 0.228493)
(3.57888 -12.4705 -8.64409)
(-6.40933 -7.17436 -17.1405)
(-17.8955 -1.13896 -17.833)
(-15.8855 3.28248 -15.4682)
(-14.6872 8.85519 -17.4164)
(9.41694 10.1411 -17.7124)
(-569.215 77.8085 238.875)
(-625.121 -13.8219 126.14)
(-270.017 -98.2859 -5.78911)
(-114.671 -90.5003 -59.8877)
(-39.6606 -83.0556 -48.9852)
(35.3799 -96.2292 -55.4171)
(82.7247 -132.284 -97.8778)
(131.712 -167.932 -180.323)
(48.1837 -120.633 -403.433)
(1.55468 -54.0038 -293.558)
(55.5733 99.1404 -136.223)
(-208.748 -115.973 -73.2176)
(-39.163 -10.6868 -38.378)
(23.4488 -18.3005 22.4755)
(6.54065 12.5643 -14.4982)
(20.1813 10.4651 -13.3748)
(15.476 5.38773 -9.41811)
(17.7703 5.43961 -2.13683)
(22.4587 6.0292 2.00143)
(25.2651 2.10304 1.7129)
(24.8958 -2.33571 1.06658)
(23.6802 -5.32578 1.03624)
(21.4713 -7.72011 1.00483)
(15.6188 -8.92544 -0.14972)
(4.6091 -7.48547 -4.75268)
(-3.67133 -1.68013 -11.293)
(-14.4756 5.0666 -13.8591)
(-19.8471 7.76324 -11.6885)
(-20.4563 4.80484 -15.9949)
(3.36277 0.488237 -17.3442)
(-609.307 223.281 224.118)
(-793.121 82.5008 142.202)
(-639.673 -23.4468 60.1875)
(-417.622 -63.2397 23.0219)
(-308.371 -67.1687 10.1467)
(-233.15 -71.3052 -16.5677)
(-149.343 -92.2849 -54.9981)
(-72.4099 -113.519 -97.4488)
(-12.532 -108.815 -154.781)
(-0.374812 -58.4838 -162.912)
(81.8543 211.374 -78.1454)
(-91.0733 -153.425 -18.4321)
(-33.1287 -0.414828 -44.6411)
(-5.47015 81.632 -56.7327)
(-9.47046 4.75119 -22.8016)
(0.306443 8.45066 -15.0511)
(5.21582 8.32952 -10.8164)
(10.9898 5.85369 -3.82728)
(17.4622 1.67077 -0.997007)
(21.8243 -0.974851 -1.12978)
(23.5454 -2.62184 -1.98479)
(23.9145 -4.68659 -2.97107)
(22.7104 -6.49522 -3.52426)
(18.6351 -6.90952 -3.88536)
(11.2622 -4.78106 -5.17576)
(5.9045 0.705578 -7.48243)
(1.18884 6.37689 -9.61465)
(0.0541465 8.23536 -9.24711)
(4.60442 3.45853 -11.8873)
(24.7421 -2.72824 -12.1412)
(-560.267 364.353 202.001)
(-776.041 195.928 142.978)
(-790.97 114.139 82.6881)
(-711.224 111.359 59.3074)
(-636.571 129.638 50.3778)
(-537.696 125.277 38.5801)
(-402.884 89.5317 19.6846)
(-254.792 43.9805 -11.9695)
(-137.738 43.7478 -65.8602)
(-128.881 213.25 -110.926)
(-131.739 482.312 -89.6998)
(-46.4039 -105.033 -26.4944)
(-80.4827 22.5598 -34.1784)
(-19.4547 14.0482 -24.2671)
(-11.4744 4.23536 -22.1797)
(-2.75917 8.41735 -17.2367)
(4.61953 7.46127 -13.1214)
(10.8908 4.94549 -7.05681)
(15.7819 2.67879 -2.66851)
(18.4758 0.351057 -1.04923)
(19.798 -2.44699 -1.61046)
(19.7417 -5.12914 -2.32331)
(18.8435 -6.9764 -2.4369)
(16.2959 -7.13126 -2.51661)
(12.454 -4.71983 -3.01985)
(11.5114 0.643353 -4.45749)
(11.2402 5.65388 -6.21646)
(12.9301 7.00011 -6.09308)
(16.3257 1.81062 -6.06645)
(27.4653 -4.34744 -4.28558)
(-440.211 458.505 175.796)
(-568.103 236.935 136.278)
(-559.532 105.994 89.4589)
(-490.288 81.5184 76.2877)
(-475.562 115.016 77.8004)
(-420.252 122.567 74.9429)
(-325.43 96.9885 61.0992)
(-230.817 78.4112 27.5272)
(-185.856 137.054 -30.1686)
(-178.517 299.11 -75.3255)
(-137.495 394.593 -69.2719)
(-41.6969 -70.0198 -10.0677)
(-83.9716 15.484 -25.3977)
(-29.8651 6.60639 -15.4579)
(-16.8172 5.91702 -15.1712)
(-6.94677 10.1929 -14.691)
(-1.91585 8.28552 -10.2009)
(6.75463 6.31931 -6.03492)
(12.7746 5.66756 -2.27897)
(14.7926 5.44437 -0.653189)
(14.9839 3.77685 -1.65067)
(15.1188 0.642232 -3.33818)
(15.3602 -2.01592 -4.1833)
(14.5179 -2.73861 -4.52895)
(13.4859 -1.09027 -4.76434)
(14.2494 2.54874 -4.6974)
(15.5479 6.14713 -4.33004)
(17.5428 7.64081 -2.76758)
(20.4788 3.14914 -2.3309)
(26.6986 -3.2285 -1.65395)
(-304.512 501.161 148.374)
(-336.396 234.949 123.961)
(-311.805 54.5832 80.4435)
(-276.887 17.2393 62.9744)
(-294.199 55.9769 67.4365)
(-267.871 67.3299 66.3026)
(-227.246 64.0459 50.8951)
(-201.768 94.538 19.634)
(-196.612 187.568 -19.3153)
(-181.515 304.897 -47.5599)