/*--------------------------------*- C++ -*----------------------------------*\
| =========                 |                                                 |
| \\      /  F ield         | OpenFOAM: The Open Source CFD Toolbox           |
|  \\    /   O peration     | Version:  2512                                  |
|   \\  /    A nd           | Website:  www.openfoam.com                      |
|    \\/     M anipulation  |                                                 |
\*---------------------------------------------------------------------------*/
FoamFile
{
    version     2.0;
    format      ascii;
    arch        "LSB;label=32;scalar=64";
    class       volVectorField;
    location    "20";
    object      U;
}
// * * * * * * * * * * * * * * * * * * * * * * * * * * * * * * * * * * * * * //

dimensions      [0 1 -1 0 0 0 0];

internalField   nonuniform List<vector> 
84826
(
(75.5799 -2.35372 -29.9449)
(178.534 3.08219 -26.792)
(224.096 5.18614 -9.64078)
(201.155 1.37116 4.8058)
(152.28 1.41557 13.1429)
(73.7967 11.3446 16.4465)
(-61.1765 8.73456 2.08501)
(-44.2605 -6.84403 3.85964)
(-40.4055 -9.51458 6.97179)
(-42.2566 -8.39358 6.25479)
(-40.7123 -7.70537 4.76546)
(-35.6163 -7.95205 2.61136)
(-30.2182 -6.4869 1.63937)
(-27.1242 -3.17936 0.505647)
(-26.328 -0.837106 -1.32982)
(-23.2581 -0.775741 -1.77472)
(-20.5722 -0.334515 -1.59425)
(-17.9481 -0.32843 -1.13188)
(-15.2315 -0.868927 -0.543425)
(-11.5909 -1.88972 0.0614925)
(-5.5247 -3.14194 0.782673)
(0.750413 -3.89849 1.25757)
(4.03781 -3.86616 1.36689)
(6.01074 -3.54396 1.15435)
(7.8077 -3.00717 0.871098)
(9.38417 -2.42808 0.660293)
(10.6808 -1.92053 0.5302)
(11.7545 -1.51664 0.455482)
(12.5936 -1.25045 0.439775)
(13.234 -1.00361 0.357844)
(83.5319 -41.7462 -9.5721)
(126.865 -45.8232 16.8508)
(87.3373 -29.4565 29.1586)
(-16.748 -35.6833 28.1256)
(-48.296 -24.4411 22.3297)
(-36.4012 0.79306 17.2618)
(-59.1861 -2.82474 10.4545)
(-60.0959 -17.4604 6.8809)
(-63.4413 -20.8246 6.20226)
(-60.082 -20.5533 4.98186)
(-51.8874 -20.4344 2.25999)
(-40.8113 -21.7268 -0.0706057)
(-29.6238 -19.5906 -0.177572)
(-22.1023 -10.8987 0.485837)
(-23.3464 -2.37748 -0.858065)
(-21.0194 -2.46045 -1.72553)
(-18.2458 -1.04689 -1.89655)
(-15.2095 -0.65948 -2.13062)
(-11.7214 -0.916889 -2.22584)
(-8.46317 -2.04496 -1.36046)
(-0.829034 -5.18288 0.271899)
(7.06018 -7.33949 1.02081)
(11.7826 -7.87477 1.24484)
(14.1253 -7.30817 1.15807)
(15.1832 -6.22954 0.956404)
(15.6249 -5.05372 0.764753)
(15.716 -3.98786 0.617311)
(15.6541 -3.11107 0.510799)
(15.5176 -2.50759 0.450104)
(15.017 -1.96662 0.323267)
(47.8929 -108.457 0.193454)
(21.7187 -85.7931 24.3307)
(-47.159 -60.8011 22.1144)
(-82.1192 -53.8984 19.5777)
(-103.804 -57.4309 12.9981)
(-93.2053 -48.1236 6.16371)
(-76.668 -34.092 0.844252)
(-70.4395 -27.561 -1.7265)
(-67.0278 -24.8256 0.0959979)
(-61.3177 -24.326 1.39627)
(-54.1873 -25.8366 -0.384848)
(-44.4848 -29.5226 -3.23431)
(-31.6059 -29.6535 -3.42502)
(-18.6889 -18.9054 -0.810392)
(-16.989 -3.41672 0.216945)
(-17.1502 -5.17743 -1.58003)
(-13.7944 -3.1666 -2.18112)
(-10.5123 -2.50556 -2.88445)
(-7.57742 -1.93664 -3.25999)
(-3.88228 -3.13165 -1.56534)
(6.35471 -7.71553 0.0782994)
(15.0148 -11.0182 0.723435)
(19.6148 -11.6063 0.898808)
(21.4215 -10.6491 0.853304)
(21.7255 -9.04554 0.729907)
(21.2979 -7.32841 0.604926)
(20.5045 -5.7644 0.501242)
(19.5882 -4.45862 0.419671)
(18.7006 -3.52104 0.36637)
(17.2586 -2.66057 0.239117)
(3.51509 -123.867 8.20008)
(-65.2027 -98.9352 21.4683)
(-87.7418 -76.0307 7.71634)
(-79.3802 -58.9591 6.28684)
(-95.416 -62.7459 5.68781)
(-95.1349 -61.1786 -0.181526)
(-80.0441 -47.5491 -7.0161)
(-64.8379 -29.7525 -10.6485)
(-58.1796 -19.092 -7.83265)
(-54.9892 -17.9876 -3.72898)
(-51.3367 -21.3005 -3.70723)
(-44.6932 -28.3258 -6.40921)
(-33.6465 -32.9836 -6.8894)
(-18.6312 -23.5923 -3.09145)
(-12.7287 -3.2183 1.99496)
(-14.6937 -7.58119 -0.255797)
(-9.15718 -5.98467 -1.18359)
(-6.46644 -4.25019 -2.01512)
(-4.65991 -2.17604 -2.58808)
(2.95211 -5.48793 -0.963811)
(15.392 -11.535 0.0574261)
(23.9416 -14.6572 0.291364)
(28.0358 -14.8336 0.357188)
(29.1821 -13.3696 0.376786)
(28.7285 -11.2498 0.373364)
(27.4971 -9.04662 0.362509)
(25.9152 -7.05099 0.347038)
(24.2399 -5.37532 0.328116)
(22.7047 -4.13754 0.314276)
(20.4413 -2.98613 0.215259)
(-29.3698 -110.689 19.6748)
(-121.945 -99.3535 19.8954)
(-104.842 -71.189 -8.44429)
(-63.7362 -52.1976 -11.1396)
(-73.0611 -55.6273 -3.99074)
(-79.4672 -57.3873 -5.05339)
(-69.7785 -46.3503 -10.9243)
(-54.1751 -24.8906 -16.027)
(-47.9667 -7.09275 -14.7683)
(-47.0494 -4.63602 -9.40977)
(-47.049 -9.9221 -7.87087)
(-43.6925 -20.3359 -9.77462)
(-34.6007 -29.6121 -9.65818)
(-21.0414 -21.9565 -4.54611)
(-16.7984 -4.16683 2.96206)
(-12.675 -10.845 1.78517)
(-5.45271 -9.88325 1.37733)
(-3.2105 -6.28076 -0.315633)
(-0.0265798 -4.3933 -1.12332)
(12.0941 -9.35469 -0.747325)
(25.185 -15.2546 -0.688376)
(33.217 -17.5935 -0.658338)
(36.661 -17.1311 -0.487219)
(37.1246 -15.1804 -0.269439)
(35.9492 -12.6748 -0.0742189)
(33.9843 -10.1513 0.0834031)
(31.6998 -7.88462 0.200838)
(29.352 -5.97692 0.284957)
(27.2593 -4.5431 0.345777)
(24.2625 -3.18817 0.306771)
(-55.3423 -80.4914 32.7406)
(-171.129 -83.2076 22.0014)
(-119.981 -57.0415 -14.6943)
(-62.4948 -31.8916 -19.202)
(-66.8622 -32.5591 -11.2845)
(-69.1328 -38.3738 -11.0694)
(-58.7084 -32.6803 -13.6807)
(-42.3242 -11.8916 -16.648)
(-39.9936 9.09605 -17.3983)
(-42.5493 12.4541 -13.1673)
(-44.1755 4.63455 -11.2896)
(-42.9686 -10.3742 -12.7142)
(-36.2925 -23.5281 -10.8707)
(-25.938 -16.4188 -4.04315)
(-17.984 -6.69249 3.1847)
(-8.52052 -16.666 2.21897)
(-3.11247 -13.5569 3.76939)
(-0.0215623 -7.2738 0.483755)
(7.80942 -7.50395 -0.994382)
(22.14 -12.9378 -1.9456)
(34.5411 -17.5 -2.25158)
(41.7868 -18.9091 -2.04055)
(44.4426 -17.8523 -1.56736)
(44.1999 -15.6023 -1.06762)
(42.3611 -12.9632 -0.639442)
(39.764 -10.3865 -0.298337)
(36.8978 -8.09736 -0.0365235)
(34.0041 -6.175 0.16141)
(31.4802 -4.71018 0.313297)
(27.8763 -3.29342 0.357479)
(-87.4736 -38.7743 42.8787)
(-235.22 -63.5507 26.7684)
(-185.022 -46.4854 -9.66543)
(-116.82 -11.7945 -18.2582)
(-85.3246 0.992896 -16.8872)
(-73.4591 -11.0371 -15.4241)
(-54.7899 -12.3972 -14.0943)
(-33.8863 10.1052 -12.6074)
(-38.6201 28.9079 -13.5326)
(-47.4555 27.8855 -11.1176)
(-45.2475 15.5622 -12.7361)
(-42.8868 -4.0393 -13.7184)
(-38.7905 -17.1996 -7.11048)
(-33.982 -11.8024 -0.368131)
(-20.5694 -11.4163 1.54546)
(-4.01813 -18.6348 1.16451)
(0.150214 -13.5765 2.52769)
(5.78559 -8.58802 -0.347326)
(17.3011 -10.0711 -2.724)
(31.3817 -14.5084 -3.87127)
(41.7771 -17.3363 -3.90484)
(47.2931 -17.6833 -3.36086)
(49.0499 -16.3843 -2.63204)
(48.2292 -14.2277 -1.93)
(45.9401 -11.8283 -1.34383)
(42.9536 -9.54119 -0.879238)
(39.7407 -7.53171 -0.516234)
(36.5287 -5.85467 -0.235752)
(33.7636 -4.55848 -0.00682766)
(29.7929 -3.28105 0.142532)
(-121.582 8.2988 47.0782)
(-296.741 -42.845 28.0556)
(-292.669 -49.4759 -2.80821)
(-250.833 -28.8377 -12.414)
(-178.572 -10.9403 -16.2104)
(-102.961 -2.95252 -18.354)
(-59.9636 4.45827 -15.1003)
(-23.7789 31.0701 -9.69479)
(-24.4374 41.4645 -2.30198)
(-46.1997 40.2477 1.16919)
(-37.37 29.1904 -9.40674)
(-49.6044 16.1891 -8.79794)
(-40.9605 -1.71075 5.80307)
(-32.2596 -11.8145 6.4595)
(-18.23 -16.9985 -1.98423)
(-1.98692 -15.4661 -0.809458)
(4.70125 -11.68 -0.0764391)
(13.1114 -9.02126 -2.47918)
(25.3604 -10.7952 -4.46675)
(36.5884 -13.5109 -5.03199)
(43.3706 -14.6309 -4.67106)
(46.3856 -14.1817 -3.94329)
(46.9235 -12.8302 -3.17017)
(45.8837 -11.0925 -2.48153)
(43.8066 -9.28024 -1.9023)
(41.01 -7.56888 -1.41633)
(37.8923 -6.07865 -1.01625)
(34.6821 -4.8455 -0.688587)
(31.8258 -3.87477 -0.403992)
(27.6648 -2.94661 -0.134839)
(-127.472 59.1976 45.1133)
(-296.162 -17.1197 22.8084)
(-344.884 -47.2876 -2.78557)
(-348.957 -50.7555 -9.24006)
(-303.608 -47.6745 -8.28463)
(-241.253 -39.3657 -5.9597)
(-177.57 -25.7292 -5.99826)
(-107.097 -0.190788 -5.57304)
(-53.9527 37.3738 1.30544)
(-54.4905 64.1135 -6.14734)
(-31.3418 57.7202 -15.1842)
(-52.874 32.2614 -21.2227)
(-36.7165 -6.9392 -3.9423)
(-39.1119 -14.4799 4.88078)
(-18.8825 -15.1535 -3.99299)
(-1.989 -10.953 -3.22948)
(7.8073 -8.4063 -2.658)
(16.4918 -7.48215 -3.69138)
(24.9136 -8.57662 -4.36601)
(30.38 -9.68557 -4.29347)
(32.9257 -9.90544 -3.83053)
(33.9092 -9.3711 -3.27202)
(34.188 -8.39193 -2.74532)
(33.9937 -7.21683 -2.26985)
(33.2943 -6.01728 -1.8327)
(31.9494 -4.91763 -1.41377)
(29.9342 -3.97171 -1.01401)
(27.4406 -3.20119 -0.640383)
(24.8616 -2.56476 -0.287952)
(20.6791 -2.19068 0.0412941)
(-86.5412 107.817 36.0112)
(-200.453 20.8799 13.6354)
(-253.968 -17.072 -11.2209)
(-251.691 -30.3305 -21.2886)
(-225.624 -35.9651 -24.2235)
(-210.631 -33.4549 -24.0836)
(-198.671 -31.4529 -27.4885)
(-174.29 -33.9699 -31.1565)
(-151.064 -38.6119 -21.2988)
(-134.08 -36.4729 2.53825)
(-33.8283 137.061 -35.7075)
(-34.3041 69.538 -15.2252)
(-65.5135 25.7266 6.31368)
(-39.8721 -42.1584 -1.56036)
(-27.5111 -7.4177 -5.20013)
(-4.71475 -1.04443 -4.99911)
(4.23047 -0.77447 -3.23387)
(8.35758 -2.09196 -2.35878)
(8.97992 -3.92259 -2.05514)
(8.66704 -5.17565 -1.96927)
(8.63587 -5.72924 -1.94066)
(9.40606 -5.69711 -1.87106)
(10.9949 -5.20341 -1.73882)
(12.8692 -4.42152 -1.5196)
(14.7033 -3.5272 -1.24857)
(16.0399 -2.69691 -0.923958)
(16.5449 -2.01056 -0.559789)
(16.0854 -1.47204 -0.168025)
(14.7804 -1.00401 0.224203)
(11.5655 -1.16573 0.434144)
(-38.3692 124.759 22.8578)
(-92.2635 39.0443 12.0799)
(-129.187 2.77164 -9.37621)
(-114.139 -24.0122 -21.2917)
(-91.8311 -31.5532 -24.6218)
(-68.6721 -21.7616 -26.6755)
(-39.3594 -12.7148 -34.3296)
(8.19672 -17.6461 -45.9343)
(58.7016 -36.9785 -53.1782)
(43.1663 -58.3282 -37.0791)
(-206.506 -10.9301 5.43364)
(-10.2482 180.552 -51.4261)
(-9.33534 4.38916 -12.5142)
(-22.5864 4.77219 -1.7596)
(-6.64915 7.46437 -1.42289)
(-4.7416 -0.390949 -0.636986)
(-4.28281 -3.6307 -1.05331)
(-5.20833 -4.71794 -1.21348)
(-5.38467 -5.22309 -1.37774)
(-5.47705 -5.34378 -1.46942)
(-5.54701 -5.17187 -1.43451)
(-4.36377 -4.67572 -1.3346)
(-3.14921 -3.83401 -0.977883)
(-1.29142 -2.82318 -0.648148)
(0.863155 -1.93695 -0.323284)
(2.6427 -1.19183 0.00988698)
(3.79467 -0.54633 0.309732)
(4.09864 0.000198658 0.527811)
(4.04594 -0.420793 0.383367)
(-10.1079 108.638 10.5352)
(-69.7491 26.5598 11.6463)
(-114.895 4.82705 -2.28808)
(-132.687 -21.2801 -7.09784)
(-130.154 -26.6963 -10.491)
(-101.305 -19.1738 -16.563)
(-55.4329 -13.3838 -26.6631)
(-13.5538 -19.798 -32.996)
(4.29938 -32.82 -24.8702)
(-38.8474 19.3874 5.1033)
(-159.711 69.8025 24.8424)
(-75.9901 89.9135 3.45214)
(-32.615 7.11103 3.4047)
(8.22048 83.1483 -38.3308)
(-0.8165 9.27859 -6.49043)
(-6.00165 4.17511 -1.88383)
(-0.256603 -2.15534 -4.56586)
(2.90048 -3.18167 -3.08028)
(3.44729 -3.91493 -2.28629)
(2.27564 -4.38415 -1.72513)
(-0.49396 -4.73062 -1.37892)
(-2.84761 -4.28825 -1.24463)
(-3.09796 -3.48562 -1.05739)
(-5.49025 -2.61776 -0.50061)
(-5.58858 -1.51448 -0.114433)
(-3.46589 -0.986544 0.119989)
(-1.49567 -0.377101 0.362027)
(-0.00510678 0.168088 0.442903)
(0.918992 0.543371 0.399727)
(2.3652 0.0822126 0.134382)
(8.56571 92.7364 3.55924)
(-50.9734 19.5465 16.165)
(-109.048 -6.32494 7.05056)
(-124.655 -20.4397 1.74948)
(-129.965 -21.769 -5.2372)
(-104.822 -16.3239 -12.6154)
(-68.6157 -10.7223 -18.526)
(-35.6793 -7.44352 -16.8885)
(-27.2916 1.91634 -2.59757)
(-61.5559 29.3726 20.5329)
(-113.636 65.3283 14.4973)
(-41.6985 1.23481 7.4612)
(-45.5521 26.9071 -10.731)
(-0.399865 53.1405 -20.3265)
(-7.30491 13.554 -5.45518)
(-6.70021 4.92682 -4.72292)
(-1.80947 1.86567 -5.40218)
(1.14695 -0.119246 -3.77335)
(2.75569 -1.10074 -2.73597)
(3.39044 -1.53758 -2.0003)
(2.46446 -1.57207 -1.36421)
(0.536807 -1.58002 -1.14906)
(-0.947228 -1.53919 -0.96883)
(-5.3141 -0.897352 -0.500418)
(-8.55683 0.203976 -0.0163055)
(-6.86603 0.294925 0.202382)
(-3.5913 -0.131266 0.576745)
(-2.77643 0.52449 0.6244)
(-2.16474 0.907826 0.413365)
(0.166665 0.327798 0.0614476)
(28.4834 83.0692 0.331597)
(-18.5936 15.0942 21.8753)
(-89.137 -21.031 16.7464)
(-107.685 -27.6909 12.207)
(-122.652 -23.9699 6.41951)
(-116.301 -14.9928 -0.942722)
(-87.3081 -5.10917 -7.56147)
(-61.2292 5.38899 -7.83697)
(-51.1508 16.5663 -2.76515)
(-49.9954 22.9472 -1.74461)
(-23.7641 -3.59529 -20.7548)
(-20.9169 -20.1749 0.277782)
(-55.6899 28.1106 -3.89231)
(-22.3282 26.9301 -6.44924)
(-16.8563 12.5325 -6.2877)
(-9.84247 5.74087 -6.31843)
(-4.27409 3.23489 -5.24779)
(-1.18838 1.73502 -3.59192)
(0.817169 0.456243 -2.58118)
(1.80431 -0.290026 -2.07406)
(2.01305 -0.551623 -1.73365)
(2.01816 -0.671967 -1.5111)
(1.45614 -0.71375 -1.30733)
(0.52531 -0.542913 -1.17565)
(-1.21092 -0.438033 -1.00871)
(-1.92582 -0.864492 -0.561189)
(-2.88191 -0.360111 -0.0746616)
(-3.49848 0.198826 0.0327147)
(-2.06835 0.0617237 -0.153687)
(0.886289 -0.322812 -0.273641)
(45.3316 64.6524 -2.39509)
(39.2355 25.6834 19.727)
(-16.8251 -29.578 17.1101)
(-52.5722 -43.7512 11.9211)
(-71.774 -38.0638 9.43092)
(-92.6267 -20.3817 5.20303)
(-94.4748 0.671508 -1.1746)
(-74.3379 14.6083 -4.82692)
(-58.3677 25.1735 -6.96323)
(-40.8334 26.009 -15.6506)
(-13.6467 4.97949 -28.0538)
(-6.31023 -25.4487 -0.199481)
(-51.9796 18.4686 -1.44599)
(-33.7221 21.2461 -5.18274)
(-22.7859 11.4939 -5.86895)
(-14.4338 6.20125 -5.37529)
(-9.5131 4.68012 -4.34387)
(-5.25001 2.98898 -3.11024)
(-1.43501 1.19075 -2.18181)
(0.399647 0.293587 -1.76313)
(1.28367 0.00770987 -1.58263)
(1.48847 -0.105783 -1.44379)
(1.14657 -0.147105 -1.31834)
(0.513661 -0.181206 -1.19334)
(-0.247156 -0.176215 -1.0646)
(-0.705952 0.0191452 -0.909558)
(-0.48989 0.20936 -0.716744)
(0.399785 0.245166 -0.580512)
(1.44887 0.0270549 -0.528302)
(3.29311 -0.285403 -0.464743)
(49.7952 36.003 -6.29126)
(69.4143 7.28157 7.73824)
(44.669 -28.0038 9.30463)
(9.64144 -49.3484 4.5912)
(-14.4737 -49.8867 2.16983)
(-43.3406 -35.2034 2.09718)
(-69.6372 -4.23815 2.97535)
(-65.8402 20.4784 -1.96995)
(-50.3021 28.9517 -7.4478)
(-30.1058 28.3779 -16.5289)
(-1.88023 10.7933 -24.0679)
(11.9237 -23.7135 -1.93907)
(-39.903 8.14298 -0.337714)
(-36.4575 13.8827 -3.4487)
(-28.6862 10.2539 -4.06186)
(-24.1744 8.18346 -3.67952)
(-19.0986 6.76146 -3.16093)
(-9.92521 3.71089 -2.30446)
(-4.89532 1.89914 -1.68576)
(-1.37753 0.763765 -1.36898)
(0.0101005 0.580372 -1.24075)
(0.366344 0.397813 -1.16134)
(0.402427 0.355804 -1.07389)
(0.323162 0.392587 -0.989914)
(0.266649 0.417209 -0.907113)
(0.400889 0.474067 -0.814061)
(0.86793 0.561876 -0.708367)
(1.69911 0.531047 -0.614526)
(2.60942 0.307215 -0.551945)
(4.1633 -0.0281638 -0.4749)
(41.4474 6.17872 -8.97668)
(65.1809 -22.3043 -6.87637)
(57.5181 -47.2305 -5.23369)
(35.6709 -50.6248 -5.07464)
(12.8733 -45.2201 -6.34366)
(-6.99245 -37.6593 -6.06391)
(-32.3306 -19.342 -0.151054)
(-48.034 16.1635 3.16401)
(-36.7749 29.7488 -4.04493)
(-17.4403 28.5641 -12.1617)
(8.00399 15.5573 -16.8959)
(23.1883 -11.9568 -4.58155)
(-18.0841 -2.89067 0.137679)
(-33.8976 5.69861 -1.5932)
(-34.7359 7.96337 -2.17531)
(-31.4267 6.41368 -2.16636)
(-24.1761 5.68283 -1.90921)
(-15.0511 3.9073 -1.4968)
(-8.2256 2.10615 -1.1335)
(-4.18199 0.802989 -0.921305)
(-1.74125 0.424011 -0.814696)
(-0.955422 0.708599 -0.782908)
(-0.550375 0.713724 -0.771494)
(-0.145591 0.722828 -0.762234)
(0.301577 0.723481 -0.739838)
(0.856424 0.709044 -0.704046)
(1.57666 0.674825 -0.655911)
(2.48501 0.578702 -0.602934)
(3.39804 0.375489 -0.555193)
(4.8072 0.0662022 -0.479523)
(32.1219 -6.65246 -10.0133)
(56.8625 -25.8137 -14.3571)
(60.0121 -44.7479 -15.6785)
(44.6428 -46.6806 -16.0059)
(25.9002 -39.119 -14.8318)
(10.1069 -30.6779 -11.9948)
(-4.15209 -23.3137 -7.89592)
(-19.2316 -11.7072 2.04565)
(-25.723 19.6199 2.95696)
(-5.82523 26.8997 -5.12314)
(17.5379 19.0904 -8.40483)
(37.8461 -0.821107 -3.91839)
(8.71929 -13.3222 -0.181154)
(-23.6588 0.535507 -0.285658)
(-30.9263 3.53874 -0.750231)
(-52.4628 7.90716 -1.48165)
(-37.8181 6.28801 -1.37737)
(-21.9804 3.32893 -1.00052)
(-11.5188 1.34484 -0.473844)
(-5.30016 0.308598 -0.176123)
(-2.67235 0.139249 -0.177127)
(-1.95638 0.336919 -0.283348)
(-1.11423 0.525189 -0.387879)
(-0.342843 0.661677 -0.4603)
(0.399375 0.730933 -0.503778)
(1.16887 0.732206 -0.520354)
(2.01379 0.679254 -0.517111)
(2.95624 0.576192 -0.500829)
(3.87205 0.409606 -0.482369)
(5.18523 0.137909 -0.430917)
(26.1598 -7.42871 -8.37487)
(45.8281 -19.4773 -16.3763)
(54.0396 -29.837 -20.4444)
(46.1548 -31.2742 -21.6948)
(29.0615 -26.5532 -19.8384)
(12.0255 -20.7685 -15.5561)
(-1.47224 -15.5985 -9.73541)
(-11.5524 -7.6092 -1.72009)
(-13.4647 8.47994 3.97005)
(2.39125 19.4393 1.65885)
(22.4456 17.8725 -0.133803)
(34.4563 7.99841 1.6121)
(33.6015 -2.76164 2.21845)
(15.5619 -7.09304 1.2912)
(-11.6479 -5.14488 -0.429506)
(-48.6288 4.28418 -2.15174)
(-42.9151 5.76928 -2.09004)
(-25.4354 2.8483 -1.34357)
(-14.4762 1.08681 -0.554644)
(-7.33482 0.0693977 -0.0359234)
(-3.36709 -0.159413 0.160557)
(-2.50535 0.105708 0.0582825)
(-1.85359 0.207152 -0.102926)
(-1.01118 0.382759 -0.228427)
(-0.143437 0.518803 -0.320103)
(0.76085 0.560061 -0.374886)
(1.72835 0.53188 -0.402888)
(2.76433 0.456714 -0.411594)
(3.74902 0.340102 -0.414124)
(5.10971 0.146841 -0.381986)
(22.7318 -3.17512 -7.07054)
(37.0129 -7.95523 -16.7955)
(45.8674 -12.548 -22.5888)
(40.344 -13.4819 -24.0509)
(24.0821 -11.6181 -21.1162)
(6.80863 -9.39467 -15.1898)
(-7.29251 -7.71144 -8.0952)
(-14.8382 -4.75098 -0.599033)
(-9.43039 2.13638 4.77578)
(6.75005 8.37931 5.45297)
(23.3511 9.00139 5.10449)
(33.6167 4.82296 5.22422)
(33.0074 -0.245822 4.55029)
(12.8821 -3.27823 2.76354)
(-48.3636 1.02075 -1.3636)
(-39.9683 1.85058 -1.67361)
(-31.9243 1.43587 -1.50539)
(-22.9185 0.901328 -1.09105)
(-15.3113 0.386351 -0.556853)
(-9.32381 -0.0993526 -0.150802)
(-5.36398 -0.3293 0.0845125)
(-2.84167 -0.261135 0.251895)
(-3.07268 -0.0487653 0.141502)
(-2.75402 0.0590117 -0.047537)
(-1.76486 0.191617 -0.198716)
(-0.591014 0.248853 -0.280543)
(0.695549 0.254752 -0.322992)
(2.02855 0.229296 -0.341496)
(3.25978 0.183069 -0.353377)
(4.82015 0.101117 -0.332236)
(67.2672 -65.9933 -9.02587)
(165.609 -76.0431 25.9072)
(225.575 -54.2918 46.7455)
(222.776 -36.5227 53.1577)
(202.925 -21.3884 53.4327)
(160.345 -0.515194 53.1679)
(25.2322 19.3402 41.8614)
(-102.389 6.98948 10.9586)
(-82.0884 -7.69856 14.8429)
(-68.337 -8.25313 18.8355)
(-65.5921 -8.02658 13.367)
(-53.7305 -8.94119 7.83487)
(-41.075 -8.19697 4.9699)
(-30.8108 -5.16096 2.02441)
(-23.5779 -1.94058 -1.62958)
(-19.4961 -1.47354 -2.9561)
(-17.0143 -0.564927 -3.38732)
(-16.0462 0.146607 -3.15577)
(-15.4173 0.396008 -2.49843)
(-14.9797 0.142968 -1.14895)
(-13.4615 -0.87061 0.720882)
(-9.04017 -2.20384 1.97422)
(-2.98679 -3.54535 2.82175)
(1.85229 -4.31179 3.14127)
(5.13441 -4.3045 3.00288)
(7.33924 -3.86654 2.70763)
(8.71398 -3.26248 2.37883)
(9.64938 -2.65949 2.06864)
(10.2249 -2.18701 1.82977)
(11.2331 -1.67151 1.35564)
(30.8423 -151.608 28.0269)
(78.928 -109.139 72.0936)
(29.1232 -49.8228 76.4079)
(-106.535 -31.7082 59.9857)
(-124.163 -12.3881 47.8083)
(-83.4574 8.31076 44.3692)
(-99.1978 10.5358 33.7923)
(-99.3039 -7.00003 19.3761)
(-78.4789 -16.5632 15.025)
(-70.6674 -16.0465 13.0809)
(-62.9605 -17.438 10.3574)
(-50.4568 -20.8845 7.34858)
(-36.7829 -21.7034 5.76318)
(-26.1454 -14.7569 3.73326)
(-21.8811 -3.91372 -0.721381)
(-16.185 -3.97 -2.84061)
(-13.5771 -1.86483 -3.91961)
(-12.2748 0.11266 -4.46201)
(-11.5672 1.52626 -4.64721)
(-11.5759 2.11672 -3.99139)
(-9.55805 1.3329 -2.4932)
(-3.29843 -1.17484 -0.00708314)
(5.99421 -5.40541 2.03204)
(11.7373 -7.27165 2.89604)
(14.7133 -7.45167 3.01631)
(15.9348 -6.75374 2.78066)
(16.1312 -5.73128 2.42381)
(15.8662 -4.69016 2.05107)
(15.4006 -3.8603 1.73002)
(14.9709 -2.9801 1.20397)
(-21.579 -187.943 45.7924)
(-61.8133 -107.405 64.2695)
(-145.942 -58.2888 46.3035)
(-156.48 -54.3766 31.8539)
(-138.695 -61.027 19.6386)
(-113.044 -51.4579 13.5844)
(-90.9759 -32.8653 8.65332)
(-74.6768 -24.2535 2.94283)
(-65.0819 -20.8597 0.71715)
(-61.2772 -17.8713 1.71272)
(-56.1347 -18.3718 2.66561)
(-46.3295 -24.3839 2.4655)
(-33.28 -31.4178 2.31324)
(-21.1514 -25.3615 2.59596)
(-20.5048 -3.33278 0.76293)
(-12.977 -5.84415 -2.44021)
(-9.4703 -3.27127 -4.06288)
(-7.81255 -0.726582 -5.44401)
(-7.55282 1.85124 -6.36039)
(-8.04023 2.67046 -5.89976)
(-6.80789 2.83858 -4.74111)
(3.12787 -1.83697 -1.08036)
(13.8423 -7.24938 1.57063)
(20.053 -9.59078 2.74623)
(22.7794 -9.76639 3.01939)
(23.3407 -8.81153 2.83974)
(22.7273 -7.44399 2.48297)
(21.6142 -6.05311 2.08433)
(20.3966 -4.91934 1.72707)
(18.9281 -3.73455 1.15209)
(-61.5637 -178.29 58.562)
(-106.797 -104.605 49.453)
(-117.207 -57.417 13.9489)
(-120.445 -64.4377 8.12378)
(-113.444 -71.9339 1.26721)
(-94.9366 -63.0545 -7.52394)
(-76.6206 -44.7802 -16.2072)
(-63.032 -29.0852 -21.0827)
(-52.4516 -19.5229 -18.9936)
(-46.5767 -12.4125 -12.9238)
(-47.0214 -10.2584 -7.62018)
(-42.8681 -17.8378 -5.4931)
(-31.7894 -32.206 -4.57799)
(-18.4187 -33.7683 -1.99116)
(-18.3786 0.215459 1.68012)
(-10.5052 -6.77193 -2.81283)
(-5.58233 -4.317 -4.16029)
(-4.03443 -1.13135 -6.19106)
(-4.23593 2.29178 -7.55761)
(-5.6965 3.94683 -6.89864)
(-2.8346 3.67618 -4.9732)
(10.8165 -3.28968 -1.02335)
(22.3877 -9.08282 1.52404)
(28.6834 -11.4296 2.6831)
(30.97 -11.3954 2.99892)
(30.8453 -10.1444 2.87014)
(29.4816 -8.46842 2.54969)
(27.6241 -6.79105 2.17278)
(25.7726 -5.41648 1.82896)
(23.4732 -4.02553 1.24837)
(-83.7307 -152.574 79.7723)
(-98.7663 -96.969 42.3194)
(-63.4512 -57.2173 -22.5413)
(-101.421 -71.176 -12.9176)
(-109.059 -74.3585 -10.1804)
(-95.4384 -67.5676 -16.6389)
(-73.9583 -52.1078 -26.2102)
(-51.7168 -31.3502 -35.1214)
(-36.5878 -14.4046 -35.3479)
(-29.6641 -2.40956 -26.5045)
(-34.9661 2.64123 -17.2813)
(-37.0657 -5.97747 -13.7277)
(-30.5087 -25.8375 -12.1459)
(-17.6479 -37.0635 -7.31028)
(-15.5339 0.923129 0.491285)
(-8.08433 -7.09204 -3.48432)
(-2.66521 -5.40341 -3.90518)
(-1.14938 -1.21453 -6.5069)
(-1.86311 2.66316 -7.60412)
(-3.38228 5.17227 -6.8902)
(4.81184 2.13883 -4.26869)
(19.8582 -5.47734 -0.924199)
(31.169 -10.7991 1.25431)
(36.8951 -12.7319 2.356)
(38.4325 -12.3731 2.75717)
(37.5074 -10.8648 2.75696)
(35.3963 -8.9834 2.56153)
(32.8578 -7.14267 2.29303)
(30.4754 -5.64524 2.02882)
(27.4861 -4.15422 1.51459)
(-103.801 -108.359 106.142)
(-89.3602 -87.9128 47.6234)
(-23.1471 -62.7089 -38.251)
(-73.5192 -68.1107 -20.4534)
(-90.881 -66.7325 -19.0795)
(-88.7068 -63.9182 -22.8887)
(-70.3398 -53.7555 -27.6066)
(-42.9742 -29.8916 -35.6904)
(-26.7316 -5.04115 -40.2559)
(-20.2411 10.7933 -32.3585)
(-26.8319 17.0271 -22.5381)
(-32.808 5.2776 -20.0551)
(-29.0274 -21.6534 -18.6349)
(-17.4956 -38.9998 -12.5416)
(-13.6029 2.83658 -1.79984)
(-5.53925 -8.94919 -3.94355)
(-1.38747 -6.3819 -2.71489)
(1.1134 -0.825858 -6.19096)
(-0.731603 4.12682 -7.24987)
(1.07368 4.99299 -6.79146)
(13.9865 -0.864616 -4.57766)
(28.5585 -7.76824 -1.80374)
(38.5927 -12.0034 0.26706)
(43.024 -13.2223 1.50856)
(43.4372 -12.4938 2.15453)
(41.5622 -10.8309 2.42307)
(38.6624 -8.90821 2.47109)
(35.4511 -7.08198 2.4082)
(32.5265 -5.60849 2.29258)
(28.7859 -4.16163 1.90641)
(-126.747 -48.7579 127.042)
(-93.2023 -76.4285 58.2698)
(-16.9106 -62.7699 -30.7175)
(-67.1374 -56.8947 -17.5332)
(-82.5598 -55.8699 -29.014)
(-81.7903 -56.928 -33.3012)
(-64.3213 -51.8586 -29.5152)
(-34.7583 -25.2252 -27.8507)
(-19.7613 12.6827 -32.3646)
(-22.322 30.247 -24.0621)
(-27.8336 28.1328 -20.9162)
(-34.2531 10.0954 -24.4528)
(-27.8283 -26.3175 -21.4417)
(-18.4566 -42.7139 -15.9605)
(-16.307 7.60522 -3.69404)
(-3.40266 -8.88355 -3.62117)
(0.14114 -4.86808 -2.12555)
(1.80914 1.2301 -5.77357)
(0.587704 4.9505 -7.89455)
(8.51303 1.73807 -8.09068)
(23.434 -5.17034 -6.03591)
(35.7252 -10.3334 -3.45413)
(42.7766 -12.7087 -1.29076)
(45.0934 -12.8978 0.246561)
(44.1711 -11.7766 1.24935)
(41.4609 -10.0806 1.86506)
(37.9677 -8.29033 2.20906)
(34.2513 -6.65729 2.38244)
(30.8266 -5.34323 2.44958)
(26.2165 -4.13383 2.20723)
(-147.999 17.7891 135.649)
(-103.963 -61.8545 62.1861)
(-51.9241 -55.7506 -8.19569)
(-93.5192 -46.4135 -9.48821)
(-95.0468 -51.6028 -36.1472)
(-84.2231 -55.2424 -41.8191)
(-66.1447 -53.5316 -28.9402)
(-32.7997 -23.4609 -16.6151)
(-14.6731 31.8906 -28.3612)
(-30.1524 49.0228 -15.7247)
(-32.2212 35.3014 -13.1277)
(-36.7244 25.6926 -25.0944)
(-31.5703 -16.1025 -18.5809)
(-34.894 -28.9637 -9.54449)
(-20.9136 -2.06108 -2.63884)
(-3.17789 -6.5823 -2.13887)
(0.514596 -2.54987 -2.43613)
(1.15713 1.901 -6.63751)
(5.33671 0.890306 -9.40688)
(17.7408 -4.82663 -9.13061)
(29.3407 -9.66173 -7.1267)
(36.6733 -12.1132 -4.80252)
(39.8669 -12.5673 -2.72051)
(40.061 -11.775 -1.03885)
(38.2806 -10.3395 0.218057)
(35.5366 -8.71967 1.10188)
(32.2752 -7.17425 1.68625)
(28.7636 -5.83826 2.05062)
(25.3744 -4.77437 2.2862)
(20.4458 -3.96722 2.14204)
(-147.969 82.3511 129.244)
(-109.765 -49.8699 51.2294)
(-106.34 -44.7362 7.49342)
(-122.545 -42.1028 -5.54962)
(-110.659 -52.8593 -29.9937)
(-100.376 -53.2156 -27.7736)
(-98.2443 -46.032 -7.54896)
(-72.1084 -24.2418 9.25797)
(3.16458 21.8421 -3.38534)
(4.45602 62.3563 -4.33928)
(-34.8219 31.2844 -0.723401)
(-37.2011 44.5604 -35.962)
(-28.8801 4.96989 -26.7573)
(-54.8264 -11.9701 -15.1187)
(-14.1386 -12.3801 -1.00972)
(-3.87295 -8.79693 -1.76131)
(0.573316 -4.74923 -3.81061)
(4.5123 -3.80669 -7.76928)
(12.1313 -6.59646 -9.33044)
(18.9333 -9.61255 -8.65241)
(22.8018 -11.1764 -7.07263)
(24.3623 -11.3337 -5.32272)
(24.5971 -10.5899 -3.62178)
(24.0253 -9.38318 -2.07047)
(22.9519 -8.00596 -0.750688)
(21.5105 -6.61691 0.305009)
(19.7428 -5.37659 1.08188)
(17.64 -4.38133 1.5976)
(15.4396 -3.6549 1.92409)
(11.9998 -3.4104 1.71073)
(-118.151 132.397 104.997)
(-113.066 -44.6767 30.7173)
(-127.818 -31.9212 5.04474)
(-108.407 -40.1121 -8.76958)
(-101.041 -51.402 -21.7007)
(-109.617 -40.9731 -10.1982)
(-148.315 -15.9645 16.7371)
(-195.49 9.93256 39.3463)
(-201.565 21.9636 45.3263)
(-233.699 19.6099 53.3605)
(-463.581 -44.7269 123.559)
(-99.8544 129.275 -111.2)
(-43.8198 24.4225 -69.1509)
(26.3859 -132.678 -33.7338)
(-12.4018 -15.8619 -5.35024)
(-3.38041 -7.13039 -5.17293)
(4.3031 -5.61074 -5.19402)
(7.70246 -6.80804 -6.75071)
(8.15149 -8.46557 -7.38095)
(7.07762 -9.1969 -6.96185)
(5.70231 -9.01937 -6.15816)
(4.76299 -8.35076 -5.15943)
(4.35671 -7.42704 -3.99367)
(4.2665 -6.39526 -2.71597)
(4.34712 -5.3348 -1.49831)
(4.50334 -4.36835 -0.449095)
(4.73153 -3.57004 0.347563)
(5.23247 -2.9732 0.821824)
(5.74169 -2.60265 1.00583)
(6.05351 -2.76959 0.560266)
(-84.1694 145.119 74.261)
(-119.952 -43.3497 20.8547)
(-117.378 -26.1736 -4.66761)
(-91.7216 -47.2399 -20.3144)
(-91.0773 -54.9587 -30.1457)
(-82.7855 -42.5731 -31.9638)
(-75.5554 -23.0618 -31.8673)
(-62.5447 -19.2445 -31.6516)
(-8.79544 -50.6277 -41.1799)
(19.508 -62.498 -38.3207)
(-48.9671 9.66333 -59.3393)
(-40.712 39.2233 -88.654)
(-19.568 -8.20616 -9.34968)
(-3.24816 -1.55631 -7.92753)
(2.13237 -3.60062 -6.05029)
(3.76672 -5.78563 -5.69174)
(3.44207 -6.52693 -5.38094)
(2.8859 -6.60386 -5.01914)
(2.22972 -6.37537 -4.61417)
(1.43697 -5.92988 -4.06187)
(0.676016 -5.31345 -3.40002)
(0.229706 -4.62041 -2.55586)
(0.372013 -3.92566 -1.84692)
(1.0671 -3.33588 -1.27857)
(2.1719 -2.88253 -0.86792)
(3.56517 -2.53767 -0.663726)
(4.94149 -2.30851 -0.639158)
(6.83071 -2.33482 -0.937189)
(-61.709 133.037 52.0712)
(-130.961 -36.5298 30.9335)
(-132.389 -32.6952 7.33217)
(-103.866 -52.1526 -6.13149)
(-95.0471 -55.4671 -19.081)
(-75.5774 -46.0757 -27.2992)
(-48.2702 -34.7549 -34.6446)
(-16.4197 -31.0766 -37.7746)
(9.35993 -39.5651 -38.6383)
(35.1997 -54.743 -42.9451)
(14.5611 -9.70126 -40.5546)
(-125.945 -1.94195 -17.7787)
(-24.8956 -18.241 -42.14)
(50.8032 -43.7031 -51.1016)
(-14.0962 -6.29855 -10.7113)
(-0.376323 -2.93799 -9.15667)
(3.2396 -2.6418 -6.58566)
(5.96185 -3.66935 -5.11692)
(7.49811 -4.45962 -4.26982)
(7.85173 -4.84397 -3.69914)
(7.35105 -4.86927 -3.20396)
(6.29732 -4.61005 -2.73999)
(4.88812 -4.15155 -2.28831)
(3.54358 -3.55748 -1.73034)
(2.64208 -2.94812 -1.30524)
(2.46335 -2.41351 -0.990807)
(2.90639 -2.01968 -0.746909)
(3.83439 -1.73516 -0.682267)
(4.79256 -1.555 -0.767687)
(6.33789 -1.57536 -1.01555)
(-42.94 120.245 40.2652)
(-122.284 -28.8977 42.6042)
(-154.943 -42.8569 21.3002)
(-121.068 -53.5468 7.22301)
(-97.3178 -57.8745 -7.39047)
(-74.2234 -52.7108 -19.4473)
(-51.2233 -44.4179 -26.874)
(-26.9089 -36.926 -27.2228)
(-1.33072 -30.3907 -23.9643)
(17.7538 -8.21337 -19.3991)
(41.9277 -23.2933 53.2529)
(-57.857 -49.5673 -2.08079)
(-36.0721 -21.1191 -16.8067)
(-24.2151 -16.1309 -20.0158)
(-9.40253 -0.839096 -12.3354)
(-2.05767 -1.69026 -9.88736)
(2.29769 -1.40596 -7.3274)
(5.01521 -1.69536 -5.34305)
(6.69555 -2.17683 -4.1157)
(7.43245 -2.51465 -3.31956)
(7.40956 -2.70661 -2.66716)
(6.87858 -2.76119 -2.20748)
(5.78098 -2.64294 -1.82712)
(4.41881 -2.32471 -1.43401)
(3.02046 -1.96164 -1.12785)
(2.25942 -1.62953 -0.862665)
(2.31511 -1.33953 -0.629104)
(3.09532 -1.09979 -0.523581)
(4.04279 -0.953389 -0.606411)
(5.59555 -1.00073 -0.794725)
(-16.2169 119.937 32.4782)
(-73.5013 -21.2401 53.3641)
(-137.515 -52.2623 34.4508)
(-122.923 -58.526 20.1979)
(-97.8625 -61.3789 8.67801)
(-74.2572 -54.9547 -3.07083)
(-57.7593 -43.3641 -11.1475)
(-38.116 -30.8884 -14.4352)
(-12.3929 -16.1019 -17.5076)
(-5.4272 23.8128 -23.7603)
(-39.1056 73.0712 -33.2627)
(-2.5643 -56.0821 -3.70683)
(-53.752 -8.6116 -6.23132)
(-26.1215 -4.34845 -12.8705)
(-9.96032 -1.37363 -12.2549)
(-3.23709 -1.03535 -9.97854)
(0.99248 -0.871536 -7.57089)
(3.62112 -0.97505 -5.37408)
(5.38073 -1.30383 -3.95905)
(6.36576 -1.53303 -3.18921)
(6.65237 -1.57499 -2.71982)
(6.47791 -1.56772 -2.40703)
(5.99247 -1.51097 -2.13423)
(5.30796 -1.39411 -1.89777)
(4.51078 -1.27074 -1.66434)
(3.89483 -1.12885 -1.36215)
(3.79544 -0.950347 -1.0845)
(4.24846 -0.790344 -0.894531)
(4.85992 -0.740302 -0.86859)
(6.06021 -0.783291 -0.871053)
(11.4041 116.254 21.2537)
(27.7708 19.0555 54.868)
(-40.533 -51.4231 40.655)
(-71.5006 -63.9256 25.5633)
(-56.9685 -65.2688 15.7637)
(-56.2301 -54.5892 8.38799)
(-56.8031 -36.9642 3.76216)
(-52.7322 -15.2839 0.705824)
(-27.3344 4.35249 -9.7709)
(-19.6302 36.5193 -23.1747)
(-31.742 64.085 -29.971)
(-0.441745 -39.3485 -1.29116)
(-48.1943 -9.22612 -0.688183)
(-35.849 2.45758 -7.89925)
(-12.1331 -1.73216 -9.81884)
(-6.84627 -0.529629 -8.49255)
(-1.54944 -0.174471 -6.65663)
(1.72522 -0.0316174 -4.84224)
(3.98579 -0.278247 -3.49293)