# Force and moment coefficients
# dragDir     : (1.000000e+00 0.000000e+00 0.000000e+00)
# sideDir     : (0.000000e+00 1.000000e+00 0.000000e+00)
# liftDir     : (0.000000e+00 0.000000e+00 1.000000e+00)
# rollAxis    : (1.000000e+00 0.000000e+00 0.000000e+00)
# pitchAxis   : (0.000000e+00 1.000000e+00 0.000000e+00)
# yawAxis     : (0.000000e+00 0.000000e+00 1.000000e+00)
# magUInf     : 2.000000e+01
# lRef        : 1.500000e+00
# Aref        : 1.000000e+00
# CofR        : (0.000000e+00 0.000000e+00 0.000000e+00)
#
# Time        	Cd            	Cd(f)         	Cd(r)         	Cl            	Cl(f)         	Cl(r)         	CmPitch       	CmRoll        	CmYaw         	Cs            	Cs(f)         	Cs(r)         
1             	1.023912e+01	5.119622e+00	5.119496e+00	-3.528426e-02	2.969768e+00	-3.005052e+00	2.987410e+00	6.281565e-05	-4.193659e-04	-6.508704e-05	-4.519094e-04	3.868224e-04
2             	3.726304e+00	1.863196e+00	1.863107e+00	-6.184022e-02	1.086189e+00	-1.148029e+00	1.117109e+00	4.468783e-05	3.531908e-03	-7.921543e-04	3.135830e-03	-3.927985e-03
3             	-1.480264e+02	-7.376058e+01	-7.426586e+01	-2.481970e-01	-4.608185e+01	4.583365e+01	-4.595775e+01	2.526430e-01	3.623141e-02	-7.251002e-01	-3.263187e-01	-3.987815e-01
4             	2.076224e+02	1.068031e+02	1.008193e+02	2.151916e-01	7.816264e+01	-7.794745e+01	7.805505e+01	2.991857e+00	2.868669e+00	-7.832215e+00	-1.047439e+00	-6.784777e+00
5             	1.836485e+02	9.721268e+01	8.643583e+01	2.318735e+00	2.937790e+01	-2.705917e+01	2.821853e+01	5.388425e+00	-5.402521e+01	-1.425676e+01	-6.115358e+01	4.689683e+01
6             	1.366767e+02	7.368449e+01	6.299224e+01	2.248116e+00	1.609371e+01	-1.384559e+01	1.496965e+01	5.346125e+00	-5.616691e+01	-1.528970e+01	-6.381176e+01	4.852206e+01
7             	4.449107e+01	2.618361e+01	1.830747e+01	1.924708e+00	3.843410e+00	-1.918702e+00	2.881056e+00	3.938072e+00	-2.750884e+01	-1.236845e+01	-3.369306e+01	2.132462e+01
8             	-3.722971e+01	-2.081527e+01	-1.641444e+01	3.631250e+00	-1.253029e+00	4.884278e+00	-3.068654e+00	-2.200415e+00	9.356174e+00	4.979711e+01	3.425473e+01	1.554238e+01
9             	-1.241835e+02	-4.816403e+02	3.574568e+02	3.486576e+00	-3.517393e+01	3.866050e+01	-3.691722e+01	-4.195486e+02	-4.823298e+01	6.615156e+03	3.259345e+03	3.355811e+03
10            	-4.922562e+02	-6.492960e+02	1.570397e+02	1.735259e+00	-1.166767e+02	1.184120e+02	-1.175444e+02	-4.031678e+02	-1.413107e+02	7.414827e+03	3.566103e+03	3.848724e+03
11            	-1.248608e+03	-7.262994e+02	-5.223090e+02	-6.246517e-01	-1.865418e+02	1.859172e+02	-1.862295e+02	-1.019952e+02	-1.000756e+02	2.395636e+03	1.097742e+03	1.297893e+03
12            	-2.089742e+03	-8.990383e+02	-1.190704e+03	-3.975034e+00	-1.833850e+02	1.794099e+02	-1.813975e+02	1.458328e+02	1.134794e+01	-2.587583e+03	-1.282444e+03	-1.305140e+03
13            	-2.262684e+03	-9.481039e+02	-1.314580e+03	-7.379129e+00	-1.296039e+02	1.222248e+02	-1.259144e+02	1.832379e+02	5.935706e+01	-3.692661e+03	-1.786974e+03	-1.905688e+03
14            	-1.785282e+03	-7.681109e+02	-1.017171e+03	-9.390520e+00	-9.104735e+01	8.165683e+01	-8.635209e+01	1.245300e+02	3.195310e+01	-2.391305e+03	-1.163699e+03	-1.227606e+03
15            	-1.155236e+03	-4.764425e+02	-6.787939e+02	-9.220398e+00	-8.434220e+01	7.512180e+01	-7.973200e+01	1.011757e+02	-1.298739e+00	-1.536331e+03	-7.694644e+02	-7.668669e+02
16            	-6.664764e+02	-2.630222e+02	-4.034541e+02	-7.898191e+00	-8.236732e+01	7.446913e+01	-7.841822e+01	7.021596e+01	-3.052401e+00	-1.006945e+03	-5.065249e+02	-5.004201e+02
17            	-4.133904e+02	-1.775961e+02	-2.357943e+02	-6.779207e+00	-7.328901e+01	6.650980e+01	-6.989940e+01	2.909908e+01	7.321396e+00	-4.979431e+02	-2.416501e+02	-2.562929e+02
18            	-2.675615e+02	-1.386028e+02	-1.289587e+02	-6.568500e+00	-5.230545e+01	4.573695e+01	-4.902120e+01	-4.822007e+00	1.138158e+01	-1.146471e+01	5.649225e+00	-1.711394e+01
19            	-1.459893e+02	-8.387318e+01	-6.211614e+01	-5.135565e+00	-2.837782e+01	2.324225e+01	-2.581004e+01	-1.087852e+01	1.240343e+01	1.331305e+02	7.896867e+01	5.416180e+01
20            	-7.356886e+01	-3.786929e+01	-3.569957e+01	-1.871964e+00	-1.592375e+01	1.405179e+01	-1.498777e+01	-1.084856e+00	1.011081e+01	4.386688e+01	3.204424e+01	1.182263e+01
21            	-3.179878e+01	-9.644687e+00	-2.215410e+01	1.762424e+00	-1.281711e+01	1.457954e+01	-1.369833e+01	6.254704e+00	7.028270e+00	-6.335137e+01	-2.464741e+01	-3.870395e+01
22            	-3.116303e+01	-1.054559e+01	-2.061744e+01	4.247234e+00	-1.341402e+01	1.766125e+01	-1.553764e+01	5.035925e+00	4.347194e+00	-5.258144e+01	-2.194353e+01	-3.063791e+01
23            	-4.673875e+01	-2.381889e+01	-2.291985e+01	3.738518e+00	-1.303855e+01	1.677707e+01	-1.490781e+01	-4.495199e-01	3.430842e+00	2.513652e+01	1.599910e+01	9.137416e+00
24            	-4.888007e+01	-2.892089e+01	-1.995919e+01	4.456807e-01	-1.054844e+01	1.099412e+01	-1.077128e+01	-4.480848e+00	4.216057e+00	6.881892e+01	3.862551e+01	3.019340e+01
25            	-3.015407e+01	-2.000581e+01	-1.014827e+01	-2.191854e+00	-7.574396e+00	5.382542e+00	-6.478469e+00	-4.928771e+00	5.151109e+00	5.054351e+01	3.042287e+01	2.012065e+01
26            	-7.347068e+00	-7.275301e+00	-7.176694e-02	-2.852112e+00	-5.871938e+00	3.019826e+00	-4.445882e+00	-3.601767e+00	4.831249e+00	1.421153e+01	1.193702e+01	2.274518e+00
27            	-2.465309e+00	-3.353305e+00	8.879961e-01	-1.552383e+00	-5.811940e+00	4.259557e+00	-5.035749e+00	-2.120650e+00	3.055425e+00	-7.182732e+00	-5.359410e-01	-6.646791e+00
28            	-1.328840e+01	-7.787245e+00	-5.501152e+00	3.139794e+00	-6.082422e+00	9.222216e+00	-7.652319e+00	-1.143046e+00	1.016024e+00	-8.758360e+00	-3.363156e+00	-5.395204e+00
29            	-2.227428e+01	-1.236497e+01	-9.909309e+00	1.032680e+01	-5.645300e+00	1.597210e+01	-1.080870e+01	-1.227831e+00	6.236530e-01	2.409981e+00	1.828643e+00	5.813375e-01
30            	-2.625771e+01	-1.540156e+01	-1.085615e+01	1.467328e+01	-5.020007e+00	1.969329e+01	-1.235665e+01	-2.272704e+00	1.817966e+00	1.369579e+01	8.665858e+00	5.029927e+00
31            	-2.507611e+01	-1.592410e+01	-9.152013e+00	1.430836e+01	-4.781153e+00	1.908951e+01	-1.193533e+01	-3.386045e+00	3.784080e+00	1.619597e+01	1.188207e+01	4.313908e+00
32            	-2.256705e+01	-1.539826e+01	-7.168797e+00	6.666070e+00	-4.861667e+00	1.152774e+01	-8.194702e+00	-4.114729e+00	6.113366e+00	1.025245e+01	1.123959e+01	-9.871406e-01
33            	-1.986950e+01	-1.405733e+01	-5.812172e+00	-7.384253e+00	-3.965632e+00	-3.418620e+00	-2.735060e-01	-4.122580e+00	7.526392e+00	2.145084e+00	8.598934e+00	-6.453850e+00
34            	-1.436033e+01	-1.093780e+01	-3.422525e+00	-1.543434e+01	-2.134815e+00	-1.329953e+01	5.582355e+00	-3.757640e+00	7.153304e+00	2.182368e+00	8.244488e+00	-6.062120e+00
35            	-7.862067e+00	-7.254507e+00	-6.075597e-01	-1.545423e+01	-5.526210e-01	-1.490161e+01	7.174496e+00	-3.323474e+00	5.947391e+00	6.352623e+00	9.123702e+00	-2.771079e+00
36            	-1.467432e+00	-3.617940e+00	2.150508e+00	-1.031607e+01	6.266094e-01	-1.094268e+01	5.784643e+00	-2.884224e+00	4.663084e+00	9.202912e+00	9.264540e+00	-6.162793e-02
37            	1.644942e+00	-1.581094e+00	3.226036e+00	-2.223818e+00	6.871960e-01	-2.911014e+00	1.799105e+00	-2.403565e+00	3.604777e+00	8.554514e+00	7.882034e+00	6.724800e-01
38            	-9.968182e-01	-2.374633e+00	1.377815e+00	4.104845e+00	-6.527069e-01	4.757552e+00	-2.705129e+00	-1.876224e+00	2.859004e+00	5.007262e+00	5.362635e+00	-3.553726e-01
39            	-5.863432e+00	-4.363494e+00	-1.499938e+00	4.706882e+00	-2.155466e+00	6.862349e+00	-4.508908e+00	-1.431778e+00	2.382890e+00	1.988944e+00	3.377362e+00	-1.388418e+00
40            	-9.248371e+00	-5.715168e+00	-3.533203e+00	2.090073e+00	-3.012919e+00	5.102992e+00	-4.057956e+00	-1.090983e+00	1.959198e+00	7.754830e-01	2.346939e+00	-1.571456e+00
41            	-1.097227e+01	-6.255626e+00	-4.716645e+00	-1.205979e+00	-3.190453e+00	1.984474e+00	-2.587463e+00	-7.694907e-01	1.416799e+00	5.492339e-01	1.691416e+00	-1.142182e+00
42            	-1.152362e+01	-6.238450e+00	-5.285170e+00	-3.176469e+00	-2.832815e+00	-3.436544e-01	-1.244580e+00	-4.766403e-01	8.246657e-01	4.416733e-01	1.045502e+00	-6.038291e-01
43            	-1.087014e+01	-5.847947e+00	-5.022191e+00	-2.025315e+00	-2.301244e+00	2.759287e-01	-1.288586e+00	-4.128784e-01	5.948478e-01	5.182470e-01	8.539713e-01	-3.357243e-01
44            	-9.910200e+00	-5.449729e+00	-4.460472e+00	7.195903e-01	-2.027299e+00	2.746890e+00	-2.387094e+00	-4.946283e-01	6.470125e-01	6.450168e-01	9.695209e-01	-3.245041e-01
45            	-9.011675e+00	-5.066870e+00	-3.944805e+00	3.079057e+00	-1.995782e+00	5.074839e+00	-3.535311e+00	-5.610321e-01	7.009341e-01	7.591322e-01	1.080500e+00	-3.213680e-01
46            	-7.865390e+00	-4.520711e+00	-3.344679e+00	4.401787e+00	-1.987241e+00	6.389028e+00	-4.188135e+00	-5.880158e-01	6.994270e-01	9.341421e-01	1.166498e+00	-2.323559e-01
47            	-6.593115e+00	-3.855941e+00	-2.737173e+00	4.462862e+00	-1.847763e+00	6.310625e+00	-4.079194e+00	-5.593839e-01	6.341107e-01	9.997524e-01	1.133987e+00	-1.342345e-01
48            	-5.568168e+00	-3.267721e+00	-2.300448e+00	3.620639e+00	-1.549278e+00	5.169917e+00	-3.359597e+00	-4.836366e-01	5.446032e-01	8.243751e-01	9.567907e-01	-1.324156e-01
49            	-4.800055e+00	-2.777617e+00	-2.022438e+00	2.520806e+00	-1.132621e+00	3.653427e+00	-2.393024e+00	-3.775898e-01	4.475978e-01	4.499857e-01	6.725907e-01	-2.226050e-01
50            	-3.874550e+00	-2.183206e+00	-1.691344e+00	1.580405e+00	-6.396871e-01	2.220092e+00	-1.429890e+00	-2.459313e-01	3.085345e-01	-8.902113e-03	3.040835e-01	-3.129856e-01
51            	-2.895396e+00	-1.603122e+00	-1.292274e+00	1.380746e+00	-3.089992e-01	1.689745e+00	-9.993720e-01	-1.554240e-01	1.778758e-01	-2.448950e-01	5.542831e-02	-3.003233e-01
52            	-2.176016e+00	-1.192014e+00	-9.840020e-01	1.686702e+00	-1.912765e-01	1.877978e+00	-1.034627e+00	-1.040062e-01	5.471300e-02	-2.847355e-01	-8.765476e-02	-1.970808e-01
53            	-1.682436e+00	-8.906159e-01	-7.918202e-01	1.922864e+00	-1.414149e-01	2.064279e+00	-1.102847e+00	-4.939784e-02	-8.168509e-02	-3.208917e-01	-2.421310e-01	-7.876078e-02
54            	-1.295727e+00	-6.253640e-01	-6.703626e-01	1.903215e+00	-6.802781e-02	1.971243e+00	-1.019635e+00	2.249932e-02	-2.221483e-01	-4.183366e-01	-4.313166e-01	1.298002e-02
55            	-1.029410e+00	-4.141849e-01	-6.152252e-01	1.598681e+00	4.380973e-02	1.554872e+00	-7.555310e-01	1.005202e-01	-3.317052e-01	-5.590556e-01	-6.112330e-01	5.217737e-02
56            	-8.730172e-01	-2.662538e-01	-6.067633e-01	1.027762e+00	1.775500e-01	8.502122e-01	-3.363311e-01	1.702548e-01	-3.934157e-01	-7.074452e-01	-7.471384e-01	3.969310e-02
57            	-7.950029e-01	-1.953436e-01	-5.996593e-01	2.687253e-01	2.973592e-01	-2.863382e-02	1.629965e-01	2.021578e-01	-3.774794e-01	-7.772625e-01	-7.661107e-01	-1.115181e-02
58            	-7.682212e-01	-2.185317e-01	-5.496895e-01	-1.409924e-01	3.400705e-01	-4.810629e-01	4.105667e-01	1.655789e-01	-2.738850e-01	-6.656302e-01	-6.067001e-01	-5.893006e-02
59            	-7.420434e-01	-2.530867e-01	-4.889567e-01	-1.427202e-01	3.361946e-01	-4.789148e-01	4.075547e-01	1.179350e-01	-1.885534e-01	-5.168790e-01	-4.469929e-01	-6.988609e-02
60            	-7.084657e-01	-2.757015e-01	-4.327642e-01	-4.149959e-02	3.303509e-01	-3.718505e-01	3.511007e-01	7.853139e-02	-1.224792e-01	-3.797221e-01	-3.123402e-01	-6.738188e-02
61            	-6.920175e-01	-3.090965e-01	-3.829210e-01	6.132505e-02	3.287677e-01	-2.674427e-01	2.981052e-01	3.691222e-02	-3.884580e-02	-2.265129e-01	-1.521022e-01	-7.441064e-02
62            	-7.163726e-01	-3.741426e-01	-3.422299e-01	1.206027e-01	3.261591e-01	-2.055564e-01	2.658577e-01	-1.595636e-02	8.453777e-02	-4.205913e-02	6.350821e-02	-1.055673e-01
63            	-7.731636e-01	-4.758867e-01	-2.972769e-01	1.195231e-01	3.139064e-01	-1.943832e-01	2.541448e-01	-8.930494e-02	2.610759e-01	1.908000e-01	3.564759e-01	-1.656759e-01
64            	-8.161904e-01	-5.826160e-01	-2.335744e-01	7.772094e-02	2.842163e-01	-2.064953e-01	2.453558e-01	-1.745208e-01	4.652343e-01	4.413849e-01	6.859268e-01	-2.445418e-01
65            	-7.974540e-01	-6.079595e-01	-1.894945e-01	1.010784e-01	2.460765e-01	-1.449981e-01	1.955373e-01	-2.092325e-01	5.562594e-01	5.297683e-01	8.211435e-01	-2.913753e-01
66            	-7.553563e-01	-5.714989e-01	-1.838575e-01	1.803370e-01	2.164042e-01	-3.606721e-02	1.262357e-01	-1.938207e-01	5.331925e-01	4.734808e-01	7.699329e-01	-2.964521e-01
67            	-6.970568e-01	-5.039134e-01	-1.931435e-01	2.820770e-01	1.878615e-01	9.421551e-02	4.682300e-02	-1.553849e-01	4.634748e-01	3.567456e-01	6.418476e-01	-2.851020e-01
68            	-6.273777e-01	-4.086793e-01	-2.186984e-01	3.891173e-01	1.563521e-01	2.327651e-01	-3.820650e-02	-9.499042e-02	3.530390e-01	1.846850e-01	4.453815e-01	-2.606964e-01
69            	-5.607388e-01	-2.988291e-01	-2.619098e-01	4.430608e-01	1.273294e-01	3.157314e-01	-9.420098e-02	-1.845964e-02	2.097602e-01	-2.547478e-02	1.970228e-01	-2.224975e-01
70            	-4.980973e-01	-1.805214e-01	-3.175759e-01	3.860530e-01	1.108855e-01	2.751674e-01	-8.214095e-02	6.852726e-02	3.844925e-02	-2.598635e-01	-9.148247e-02	-1.683810e-01
71            	-4.115263e-01	-3.519877e-02	-3.763275e-01	1.864886e-01	1.191163e-01	6.737229e-02	2.587202e-02	1.705644e-01	-1.751438e-01	-5.358693e-01	-4.430785e-01	-9.279083e-02
72            	-2.706562e-01	1.417506e-01	-4.124068e-01	-1.120694e-01	1.608864e-01	-2.729558e-01	2.169211e-01	2.770787e-01	-4.097104e-01	-8.286332e-01	-8.240270e-01	-4.606143e-03
73            	-1.194729e-01	2.883750e-01	-4.078479e-01	-3.239705e-01	2.125537e-01	-5.365242e-01	3.745389e-01	3.481114e-01	-5.756600e-01	-1.026194e+00	-1.088757e+00	6.256314e-02
74            	1.180413e-02	3.943374e-01	-3.825332e-01	-4.063205e-01	2.563472e-01	-6.626676e-01	4.595074e-01	3.884353e-01	-6.761140e-01	-1.139407e+00	-1.245817e+00	1.064105e-01
75            	1.628630e-01	5.023188e-01	-3.394557e-01	-4.459310e-01	3.057168e-01	-7.516478e-01	5.286823e-01	4.208872e-01	-7.599815e-01	-1.227988e+00	-1.373976e+00	1.459875e-01
76            	3.485757e-01	6.168688e-01	-2.682931e-01	-4.887466e-01	3.677515e-01	-8.564982e-01	6.121248e-01	4.425809e-01	-8.228998e-01	-1.279398e+00	-1.462599e+00	1.832010e-01
77            	5.448173e-01	7.103166e-01	-1.654993e-01	-5.383438e-01	4.343914e-01	-9.727353e-01	7.035634e-01	4.379079e-01	-8.309213e-01	-1.248766e+00	-1.455305e+00	2.065382e-01
78            	7.212688e-01	7.567487e-01	-3.547987e-02	-5.734820e-01	4.921742e-01	-1.065656e+00	7.789152e-01	3.961143e-01	-7.594872e-01	-1.107972e+00	-1.313473e+00	2.055011e-01
79            	8.498517e-01	7.480958e-01	1.017559e-01	-5.638756e-01	5.257933e-01	-1.089669e+00	8.077311e-01	3.231699e-01	-6.187509e-01	-8.789474e-01	-1.058225e+00	1.792772e-01
80            	9.149999e-01	7.118532e-01	2.031467e-01	-4.996742e-01	5.282553e-01	-1.027929e+00	7.780923e-01	2.543532e-01	-4.809200e-01	-6.695462e-01	-8.156931e-01	1.461469e-01
81            	9.513121e-01	6.914798e-01	2.598324e-01	-4.148046e-01	5.177403e-01	-9.325449e-01	7.251426e-01	2.158237e-01	-4.031193e-01	-5.544890e-01	-6.803638e-01	1.258748e-01
82            	9.967194e-01	6.951232e-01	3.015962e-01	-3.444183e-01	5.128394e-01	-8.572576e-01	6.850485e-01	1.967635e-01	-3.662057e-01	-4.962480e-01	-6.143297e-01	1.180817e-01
83            	1.057314e+00	7.083716e-01	3.489422e-01	-2.951700e-01	5.163175e-01	-8.114874e-01	6.639024e-01	1.797147e-01	-3.349641e-01	-4.413212e-01	-5.556246e-01	1.143035e-01
84            	1.113670e+00	7.148810e-01	3.987887e-01	-2.643883e-01	5.218418e-01	-7.862301e-01	6.540360e-01	1.580461e-01	-2.948171e-01	-3.716180e-01	-4.806261e-01	1.090081e-01
85            	1.142711e+00	7.069283e-01	4.357830e-01	-2.464437e-01	5.213858e-01	-7.678295e-01	6.446077e-01	1.355726e-01	-2.524013e-01	-3.012420e-01	-4.030223e-01	1.017803e-01
86            	1.141844e+00	6.904669e-01	4.513771e-01	-2.347281e-01	5.126708e-01	-7.473989e-01	6.300348e-01	1.195449e-01	-2.226503e-01	-2.532576e-01	-3.492791e-01	9.602149e-02
87            	1.131249e+00	6.778599e-01	4.533888e-01	-2.250623e-01	5.013594e-01	-7.264217e-01	6.138906e-01	1.122356e-01	-2.112113e-01	-2.335486e-01	-3.279856e-01	9.443700e-02
88            	1.131186e+00	6.740352e-01	4.571504e-01	-2.160563e-01	4.942313e-01	-7.102876e-01	6.022594e-01	1.084424e-01	-2.079672e-01	-2.245194e-01	-3.202270e-01	9.570751e-02
89            	1.141739e+00	6.730092e-01	4.687297e-01	-2.083451e-01	4.914531e-01	-6.997981e-01	5.956256e-01	1.021398e-01	-2.002440e-01	-2.073821e-01	-3.039350e-01	9.655290e-02
90            	1.150650e+00	6.672402e-01	4.834102e-01	-2.018801e-01	4.888395e-01	-6.907196e-01	5.897796e-01	9.191496e-02	-1.845197e-01	-1.786285e-01	-2.738339e-01	9.520548e-02
91            	1.148928e+00	6.547769e-01	4.941507e-01	-1.958511e-01	4.833120e-01	-6.791632e-01	5.812376e-01	8.031308e-02	-1.655949e-01	-1.468860e-01	-2.390379e-01	9.215193e-02
92            	1.138332e+00	6.397207e-01	4.986109e-01	-1.889287e-01	4.751116e-01	-6.640403e-01	5.695760e-01	7.055493e-02	-1.501170e-01	-1.221424e-01	-2.111882e-01	8.904575e-02
93            	1.126964e+00	6.271473e-01	4.998164e-01	-1.808322e-01	4.665869e-01	-6.474191e-01	5.570030e-01	6.366547e-02	-1.404121e-01	-1.069605e-01	-1.938924e-01	8.693188e-02
94            	1.120120e+00	6.184700e-01	5.016499e-01	-1.725499e-01	4.595800e-01	-6.321299e-01	5.458549e-01	5.841006e-02	-1.340239e-01	-9.684789e-02	-1.824478e-01	8.559993e-02
95            	1.116503e+00	6.113538e-01	5.051493e-01	-1.653295e-01	4.539979e-01	-6.193274e-01	5.366626e-01	5.310223e-02	-1.274065e-01	-8.636614e-02	-1.705896e-01	8.422342e-02
96            	1.111501e+00	6.028625e-01	5.086390e-01	-1.596036e-01	4.485124e-01	-6.081160e-01	5.283142e-01	4.711177e-02	-1.191324e-01	-7.367245e-02	-1.559686e-01	8.229617e-02
97            	1.102101e+00	5.920099e-01	5.100908e-01	-1.547564e-01	4.421325e-01	-5.968889e-01	5.195107e-01	4.095953e-02	-1.101585e-01	-6.043496e-02	-1.403759e-01	7.994099e-02
98            	1.089330e+00	5.800826e-01	5.092473e-01	-1.499649e-01	4.350405e-01	-5.850054e-01	5.100230e-01	3.541762e-02	-1.019676e-01	-4.893459e-02	-1.264349e-01	7.750027e-02
99            	1.076252e+00	5.688717e-01	5.073806e-01	-1.449291e-01	4.280803e-01	-5.730094e-01	5.005449e-01	3.074551e-02	-9.507018e-02	-3.978341e-02	-1.149619e-01	7.517848e-02
100           	1.065041e+00	5.592401e-01	5.058010e-01	-1.399673e-01	4.218603e-01	-5.618276e-01	4.918440e-01	2.671955e-02	-8.900992e-02	-3.215869e-02	-1.050893e-01	7.293057e-02
101           	1.055650e+00	5.507676e-01	5.048829e-01	-1.355258e-01	4.163162e-01	-5.518420e-01	4.840791e-01	2.294235e-02	-8.300936e-02	-2.484933e-02	-9.543402e-02	7.058469e-02
102           	1.046516e+00	5.424449e-01	5.040715e-01	-1.316922e-01	4.109148e-01	-5.426071e-01	4.767610e-01	1.918672e-02	-7.666576e-02	-1.725702e-02	-8.529426e-02	6.803725e-02
103           	1.036338e+00	5.336445e-01	5.026936e-01	-1.282037e-01	4.051960e-01	-5.333997e-01	4.692979e-01	1.547546e-02	-7.007349e-02	-9.578548e-03	-7.486276e-02	6.528422e-02
104           	1.025096e+00	5.245527e-01	5.005430e-01	-1.246478e-01	3.990763e-01	-5.237241e-01	4.614002e-01	1.200485e-02	-6.364817e-02	-2.479182e-03	-6.488776e-02	6.240858e-02
105           	1.013697e+00	5.157527e-01	4.979447e-01	-1.208059e-01	3.927837e-01	-5.135895e-01	4.531866e-01	8.904021e-03	-5.766387e-02	3.645796e-03	-5.584098e-02	5.948677e-02
106           	1.002905e+00	5.076135e-01	4.952915e-01	-1.167431e-01	3.865667e-01	-5.033098e-01	4.449383e-01	6.161001e-03	-5.211446e-02	8.864873e-03	-4.768202e-02	5.654689e-02
107           	9.927706e-01	5.000642e-01	4.927064e-01	-1.127861e-01	3.804545e-01	-4.932406e-01	4.368475e-01	3.678877e-03	-4.681552e-02	1.348717e-02	-4.007194e-02	5.355910e-02
108           	9.827044e-01	4.927279e-01	4.899765e-01	-1.092821e-01	3.742580e-01	-4.835401e-01	4.288990e-01	1.375738e-03	-4.160689e-02	1.773649e-02	-3.273864e-02	5.047513e-02
109           	9.722353e-01	4.853381e-01	4.868973e-01	-1.064056e-01	3.678566e-01	-4.742622e-01	4.210594e-01	-7.796177e-04	-3.645023e-02	2.170280e-02	-2.559883e-02	4.730163e-02
110           	9.613324e-01	4.778936e-01	4.834388e-01	-1.041449e-01	3.613111e-01	-4.654560e-01	4.133835e-01	-2.772580e-03	-3.142415e-02	2.535230e-02	-1.874801e-02	4.410030e-02
111           	9.503720e-01	4.706422e-01	4.797299e-01	-1.024550e-01	3.547922e-01	-4.572472e-01	4.060197e-01	-4.543853e-03	-2.669128e-02	2.850350e-02	-1.243953e-02	4.094303e-02
112           	9.395482e-01	4.636892e-01	4.758590e-01	-1.012825e-01	3.483875e-01	-4.496700e-01	3.990287e-01	-6.084914e-03	-2.228779e-02	3.109856e-02	-6.738512e-03	3.783707e-02
113           	9.287254e-01	4.569181e-01	4.718073e-01	-1.005140e-01	3.421148e-01	-4.426288e-01	3.923718e-01	-7.444611e-03	-1.812241e-02	3.324377e-02	-1.500523e-03	3.474429e-02
114           	9.177881e-01	4.502672e-01	4.675209e-01	-1.000999e-01	3.359985e-01	-4.360984e-01	3.860484e-01	-8.626858e-03	-1.420451e-02	3.493371e-02	3.262352e-03	3.167136e-02
115           	9.068023e-01	4.438141e-01	4.629882e-01	-1.000548e-01	3.300864e-01	-4.301411e-01	3.801138e-01	-9.587060e-03	-1.065646e-02	3.603320e-02	7.360133e-03	2.867306e-02
116           	8.957139e-01	4.375621e-01	4.581518e-01	-1.004275e-01	3.243585e-01	-4.247860e-01	3.745722e-01	-1.029482e-02	-7.564778e-03	3.643956e-02	1.065500e-02	2.578456e-02
117           	8.845291e-01	4.315147e-01	4.530143e-01	-1.012506e-01	3.187762e-01	-4.200269e-01	3.694016e-01	-1.074980e-02	-4.947056e-03	3.613246e-02	1.311918e-02	2.301329e-02
118           	8.733692e-01	4.257095e-01	4.476596e-01	-1.024983e-01	3.133621e-01	-4.158603e-01	3.646112e-01	-1.097505e-02	-2.781821e-03	3.517393e-02	1.480515e-02	2.036879e-02
119           	8.621823e-01	4.200908e-01	4.420915e-01	-1.040753e-01	3.081042e-01	-4.121795e-01	3.601419e-01	-1.100035e-02	-1.018626e-03	3.363702e-02	1.579988e-02	1.783713e-02
120           	8.503375e-01	4.143126e-01	4.360249e-01	-1.057112e-01	3.028294e-01	-4.085406e-01	3.556850e-01	-1.085615e-02	4.375412e-04	3.157395e-02	1.622452e-02	1.534943e-02
121           	8.373928e-01	4.081788e-01	4.292140e-01	-1.070689e-01	2.975612e-01	-4.046301e-01	3.510957e-01	-1.051761e-02	1.530109e-03	2.889248e-02	1.597635e-02	1.291613e-02
122           	8.248569e-01	4.025464e-01	4.223106e-01	-1.082334e-01	2.930904e-01	-4.013238e-01	3.472071e-01	-9.882093e-03	1.897856e-03	2.539605e-02	1.459588e-02	1.080017e-02
123           	8.176790e-01	3.995929e-01	4.180862e-01	-1.112746e-01	2.901532e-01	-4.014277e-01	3.457905e-01	-9.246638e-03	1.759935e-03	2.236445e-02	1.294216e-02	9.422288e-03
124           	8.081258e-01	3.956425e-01	4.124832e-01	-1.156658e-01	2.863192e-01	-4.019850e-01	3.441521e-01	-8.420366e-03	1.462623e-03	1.850324e-02	1.071425e-02	7.788999e-03
125           	7.932065e-01	3.892670e-01	4.039395e-01	-1.211667e-01	2.807199e-01	-4.018867e-01	3.413033e-01	-7.336222e-03	1.120607e-03	1.341374e-02	7.827478e-03	5.586265e-03
126           	7.776457e-01	3.825504e-01	3.950953e-01	-1.251816e-01	2.751942e-01	-4.003759e-01	3.377851e-01	-6.272468e-03	7.534297e-04	8.467071e-03	4.986965e-03	3.480106e-03
127           	7.659289e-01	3.776651e-01	3.882638e-01	-1.272492e-01	2.711007e-01	-3.983500e-01	3.347253e-01	-5.299309e-03	1.022554e-04	4.214167e-03	2.209339e-03	2.004828e-03
128           	7.565218e-01	3.739667e-01	3.825551e-01	-1.294062e-01	2.678113e-01	-3.972175e-01	3.325144e-01	-4.294174e-03	-9.189651e-04	1.535748e-04	-8.421777e-04	9.957525e-04
129           	7.461070e-01	3.700081e-01	3.760989e-01	-1.330485e-01	2.641500e-01	-3.971985e-01	3.306743e-01	-3.045423e-03	-2.376375e-03	-4.669212e-03	-4.710981e-03	4.176925e-05
130           	7.340460e-01	3.654678e-01	3.685782e-01	-1.381581e-01	2.598632e-01	-3.980213e-01	3.289423e-01	-1.555158e-03	-4.147922e-03	-1.033297e-02	-9.314408e-03	-1.018564e-03
131           	7.196500e-01	3.599989e-01	3.596511e-01	-1.440370e-01	2.547169e-01	-3.987539e-01	3.267354e-01	1.739065e-04	-6.223799e-03	-1.673973e-02	-1.459366e-02	-2.146068e-03
132           	7.047246e-01	3.542167e-01	3.505079e-01	-1.488735e-01	2.493479e-01	-3.982214e-01	3.237847e-01	1.854398e-03	-8.280675e-03	-2.272850e-02	-1.964492e-02	-3.083573e-03
133           	6.907634e-01	3.487410e-01	3.420224e-01	-1.515057e-01	2.443625e-01	-3.958683e-01	3.201154e-01	3.359293e-03	-1.025273e-02	-2.777243e-02	-2.413894e-02	-3.633485e-03
134           	6.785702e-01	3.440523e-01	3.345179e-01	-1.527575e-01	2.401160e-01	-3.928735e-01	3.164947e-01	4.767214e-03	-1.229586e-02	-3.220976e-02	-2.840074e-02	-3.809016e-03
135           	6.697455e-01	3.407881e-01	3.289574e-01	-1.550308e-01	2.368566e-01	-3.918874e-01	3.143720e-01	5.915324e-03	-1.403596e-02	-3.575862e-02	-3.191527e-02	-3.843345e-03
136           	6.579739e-01	3.365133e-01	3.214606e-01	-1.587612e-01	2.325276e-01	-3.912888e-01	3.119082e-01	7.526387e-03	-1.656598e-02	-4.063539e-02	-3.688368e-02	-3.751716e-03
137           	6.429262e-01	3.310053e-01	3.119209e-01	-1.633630e-01	2.270249e-01	-3.903878e-01	3.087063e-01	9.542167e-03	-1.975871e-02	-4.658682e-02	-4.305212e-02	-3.534699e-03
138           	6.269150e-01	3.249418e-01	3.019733e-01	-1.669241e-01	2.212227e-01	-3.881468e-01	3.046847e-01	1.148426e-02	-2.283411e-02	-5.209547e-02	-4.888185e-02	-3.213621e-03
139           	6.119008e-01	3.189950e-01	2.929058e-01	-1.677278e-01	2.159177e-01	-3.836455e-01	2.997816e-01	1.304457e-02	-2.533357e-02	-5.621793e-02	-5.344253e-02	-2.775400e-03
140           	5.992748e-01	3.138743e-01	2.854005e-01	-1.661115e-01	2.117151e-01	-3.778266e-01	2.947708e-01	1.423691e-02	-2.734229e-02	-5.905755e-02	-5.687107e-02	-2.186484e-03
141           	5.909599e-01	3.106165e-01	2.803435e-01	-1.659660e-01	2.086367e-01	-3.746028e-01	2.916197e-01	1.513650e-02	-2.896418e-02	-6.102631e-02	-5.947734e-02	-1.548975e-03
142           	5.794466e-01	3.062066e-01	2.732400e-01	-1.668558e-01	2.043565e-01	-3.712122e-01	2.877843e-01	1.648329e-02	-3.138150e-02	-6.405445e-02	-6.340873e-02	-6.457204e-04
143           	5.631956e-01	2.999707e-01	2.632249e-01	-1.681390e-01	1.983448e-01	-3.664838e-01	2.824143e-01	1.837290e-02	-3.467986e-02	-6.831665e-02	-6.883818e-02	5.215328e-04
144           	5.450114e-01	2.927518e-01	2.522596e-01	-1.677756e-01	1.917968e-01	-3.595725e-01	2.756846e-01	2.024610e-02	-3.784593e-02	-7.226359e-02	-7.397772e-02	1.714131e-03
145           	5.314110e-01	2.871062e-01	2.443048e-01	-1.648661e-01	1.868481e-01	-3.517142e-01	2.692812e-01	2.140073e-02	-3.975740e-02	-7.414073e-02	-7.682777e-02	2.687031e-03
146           	5.227792e-01	2.834230e-01	2.393562e-01	-1.617451e-01	1.833553e-01	-3.451004e-01	2.642278e-01	2.203337e-02	-4.085826e-02	-7.452489e-02	-7.812070e-02	3.595809e-03
147           	5.145528e-01	2.799728e-01	2.345800e-01	-1.600492e-01	1.798023e-01	-3.398515e-01	2.598269e-01	2.269642e-02	-4.208715e-02	-7.482804e-02	-7.950117e-02	4.673127e-03
148           	5.014883e-01	2.745359e-01	2.269525e-01	-1.581875e-01	1.743355e-01	-3.325230e-01	2.534293e-01	2.379171e-02	-4.403631e-02	-7.574530e-02	-8.190896e-02	6.163658e-03
149           	4.849120e-01	2.674471e-01	2.174649e-01	-1.546140e-01	1.678868e-01	-3.225009e-01	2.451939e-01	2.499113e-02	-4.606528e-02	-7.643774e-02	-8.428415e-02	7.846416e-03
150           	4.735611e-01	2.623157e-01	2.112454e-01	-1.503062e-01	1.634864e-01	-3.137926e-01	2.386395e-01	2.553516e-02	-4.703528e-02	-7.521167e-02	-8.464112e-02	9.429449e-03
151           	4.673372e-01	2.591848e-01	2.081525e-01	-1.463183e-01	1.608323e-01	-3.071506e-01	2.339914e-01	2.551616e-02	-4.721012e-02	-7.251956e-02	-8.346990e-02	1.095034e-02
152           	4.617015e-01	2.562330e-01	2.054686e-01	-1.428312e-01	1.582841e-01	-3.011153e-01	2.296997e-01	2.538220e-02	-4.730360e-02	-6.965869e-02	-8.213295e-02	1.247425e-02
153           	4.536712e-01	2.520653e-01	2.016059e-01	-1.383527e-01	1.548279e-01	-2.931806e-01	2.240043e-01	2.522969e-02	-4.742206e-02	-6.650420e-02	-8.067417e-02	1.416996e-02
154           	4.445238e-01	2.472354e-01	1.972884e-01	-1.325846e-01	1.512110e-01	-2.837956e-01	2.175033e-01	2.497346e-02	-4.732870e-02	-6.300068e-02	-7.882904e-02	1.582836e-02
155           	4.377479e-01	2.434513e-01	1.942966e-01	-1.268349e-01	1.488290e-01	-2.756638e-01	2.122464e-01	2.457732e-02	-4.690312e-02	-5.965662e-02	-7.673143e-02	1.707481e-02
156           	4.336731e-01	2.409449e-01	1.927282e-01	-1.221020e-01	1.475481e-01	-2.696501e-01	2.085991e-01	2.410833e-02	-4.625339e-02	-5.699050e-02	-7.474864e-02	1.775815e-02
157           	4.299269e-01	2.385652e-01	1.913617e-01	-1.179988e-01	1.463253e-01	-2.643240e-01	2.053247e-01	2.360173e-02	-4.545250e-02	-5.498983e-02	-7.294741e-02	1.795758e-02
158           	4.247968e-01	2.353772e-01	1.894195e-01	-1.134726e-01	1.445307e-01	-2.580033e-01	2.012670e-01	2.297885e-02	-4.436245e-02	-5.325157e-02	-7.098824e-02	1.773667e-02
159           	4.185419e-01	2.314583e-01	1.870836e-01	-1.084887e-01	1.423465e-01	-2.508352e-01	1.965909e-01	2.218737e-02	-4.285900e-02	-5.164502e-02	-6.868151e-02	1.703649e-02
160           	4.125040e-01	2.274975e-01	1.850065e-01	-1.037067e-01	1.403234e-01	-2.440300e-01	1.921767e-01	2.124550e-02	-4.096765e-02	-5.026792e-02	-6.610161e-02	1.583369e-02
161           	4.076188e-01	2.240734e-01	1.835454e-01	-9.974038e-02	1.386956e-01	-2.384360e-01	1.885658e-01	2.026396e-02	-3.889631e-02	-4.939617e-02	-6.359439e-02	1.419822e-02
162           	4.034636e-01	2.210100e-01	1.824537e-01	-9.650207e-02	1.371855e-01	-2.336876e-01	1.854365e-01	1.927814e-02	-3.667719e-02	-4.899403e-02	-6.117420e-02	1.218018e-02
163           	3.991658e-01	2.177921e-01	1.813737e-01	-9.350679e-02	1.354646e-01	-2.289714e-01	1.822180e-01	1.820923e-02	-3.410389e-02	-4.873519e-02	-5.847149e-02	9.736297e-03
164           	3.944295e-01	2.142688e-01	1.801607e-01	-9.047673e-02	1.335039e-01	-2.239807e-01	1.787423e-01	1.705402e-02	-3.116368e-02	-4.848436e-02	-5.540587e-02	6.921500e-03
165           	3.896133e-01	2.107390e-01	1.788743e-01	-8.754001e-02	1.314889e-01	-2.190289e-01	1.752589e-01	1.593231e-02	-2.817303e-02	-4.838156e-02	-5.236381e-02	3.982255e-03