/*--------------------------------*- C++ -*----------------------------------*\
| =========                 |                                                 |
| \\      /  F ield         | OpenFOAM: The Open Source CFD Toolbox           |
|  \\    /   O peration     | Version:  2512                                  |
|   \\  /    A nd           | Website:  www.openfoam.com                      |
|    \\/     M anipulation  |                                                 |
\*---------------------------------------------------------------------------*/
FoamFile
{
    version     2.0;
    format      ascii;
    arch        "LSB;label=32;scalar=64";
    class       volScalarField;
    location    "140";
    object      k;
}
// * * * * * * * * * * * * * * * * * * * * * * * * * * * * * * * * * * * * * //

dimensions      [0 2 -2 0 0 0 0];

internalField   nonuniform List<scalar> 
84826
(
0.231932
0.224217
0.216975
0.210159
0.203733
0.197663
0.191926
0.186488
0.181385
0.176588
0.172094
0.167897
0.163936
0.160185
0.156579
0.15309
0.149697
0.146425
0.143269
0.140227
0.137298
0.134481
0.131772
0.129164
0.126652
0.124233
0.121902
0.119655
0.117487
0.115396
0.231933
0.224219
0.216979
0.210168
0.203748
0.197687
0.191961
0.186536
0.181447
0.176666
0.172192
0.168013
0.16407
0.160329
0.156726
0.153234
0.149832
0.146553
0.143388
0.140338
0.137402
0.134578
0.131862
0.129249
0.126732
0.124309
0.121975
0.119724
0.117553
0.115459
0.231933
0.224221
0.216983
0.210175
0.203762
0.197712
0.192
0.186593
0.18153
0.176783
0.172352
0.168217
0.164317
0.160602
0.15701
0.153514
0.150099
0.146805
0.143625
0.140561
0.137613
0.13478
0.132055
0.129432
0.126909
0.124479
0.122138
0.119881
0.117705
0.115606
0.231934
0.224222
0.216986
0.210182
0.203775
0.197735
0.192038
0.186653
0.181626
0.176933
0.172579
0.168526
0.164702
0.161035
0.157464
0.153967
0.150534
0.147219
0.144016
0.140931
0.137966
0.135117
0.132379
0.129745
0.127209
0.124768
0.122417
0.120151
0.117965
0.115857
0.231934
0.224223
0.216989
0.210188
0.203786
0.197755
0.192075
0.186716
0.181737
0.177122
0.172808
0.168812
0.165154
0.161577
0.15805
0.154558
0.151106
0.147766
0.144537
0.14143
0.138447
0.135586
0.132838
0.130196
0.127653
0.125205
0.122848
0.120575
0.118382
0.116266
0.231934
0.224224
0.21699
0.210191
0.203794
0.197773
0.19211
0.186784
0.181867
0.177252
0.173023
0.169198
0.165642
0.162178
0.158715
0.155227
0.151745
0.148364
0.145099
0.14198
0.139012
0.136189
0.133495
0.130915
0.128437
0.12605
0.123745
0.121514
0.119359
0.117277
0.231934
0.224223
0.216991
0.210194
0.203801
0.197788
0.192143
0.186872
0.181962
0.177398
0.173609
0.170424
0.167898
0.164758
0.161318
0.157728
0.154178
0.150959
0.148697
0.14734
0.146612
0.146193
0.145847
0.145423
0.144824
0.143996
0.142946
0.141695
0.14035
0.138896
0.231934
0.224223
0.21699
0.210195
0.203806
0.197801
0.192175
0.186957
0.182008
0.177596
0.173458
0.166996
0.163785
0.163569
0.21637
0.210239
0.226745
0.251165
0.277158
0.301325
0.321554
0.337125
0.348271
0.355548
0.359551
0.360887
0.360112
0.357848
0.354357
0.350411
0.231933
0.224222
0.21699
0.210196
0.203809
0.197811
0.192202
0.187026
0.182124
0.177889
0.174309
0.175337
0.322129
0.820264
1.84641
1.65625
1.52617
1.42217
1.33629
1.26332
1.19953
1.14268
1.09134
1.04445
1.00125
0.961262
0.924138
0.889836
0.857812
0.828072
0.231935
0.224225
0.216994
0.210201
0.203816
0.197822
0.192223
0.187026
0.182178
0.178218
0.17575
0.179869
1.45529
3.36579
2.86373
2.47358
2.25228
2.07375
1.92746
1.8045
1.6987
1.60656
1.52536
1.45285
1.3874
1.32793
1.27382
1.22441
1.18013
1.1382
0.231937
0.224228
0.216998
0.210206
0.203822
0.197822
0.192223
0.187026
0.182179
0.178227
0.176181
0.180278
5.40174
3.92766
3.37664
3.04016
2.75564
2.51463
2.3093
2.13359
1.98296
1.85292
1.7395
1.63968
1.55127
1.47281
1.4027
1.34102
1.28347
0.231937
0.224226
0.216994
0.210202
0.203816
0.197812
0.192203
0.187026
0.182127
0.177903
0.174769
0.176238
0.446768
1.86172
1.82088
1.6438
1.52648
1.43242
1.35307
1.28375
1.22215
1.16717
1.11798
1.07404
1.03459
0.999105
0.967056
0.938112
0.911189
0.887501
0.231936
0.224224
0.216991
0.210197
0.203808
0.197804
0.192178
0.186962
0.182015
0.177611
0.173742
0.169772
0.183832
0.224775
0.205968
0.200228
0.207446
0.224256
0.245934
0.268933
0.291093
0.311625
0.330511
0.347729
0.363377
0.377518
0.390191
0.401523
0.411345
0.420405
0.231934
0.224224
0.216992
0.210196
0.203803
0.197791
0.192147
0.186878
0.181967
0.177409
0.173658
0.170625
0.168197
0.165037
0.161546
0.157964
0.154405
0.150988
0.147742
0.14512
0.143327
0.14238
0.142318
0.14317
0.144933
0.147538
0.150914
0.154939
0.159596
0.164594
0.231934
0.224224
0.216991
0.210193
0.203797
0.197777
0.192115
0.186791
0.18188
0.177266
0.173047
0.169249
0.165725
0.162269
0.158851
0.155402
0.151956
0.148597
0.145325
0.142157
0.139116
0.136213
0.133452
0.130847
0.128412
0.126163
0.124112
0.122271
0.120657
0.119274
0.231934
0.224224
0.216989
0.210189
0.203788
0.197759
0.19208
0.186723
0.181749
0.177143
0.172831
0.168836
0.165182
0.161645
0.158154
0.154689
0.151257
0.147927
0.144695
0.141568
0.138552
0.135648
0.13285
0.130154
0.127556
0.125055
0.122649
0.120335
0.118111
0.115981
0.231934
0.224222
0.216987
0.210184
0.203777
0.197738
0.192043
0.18666
0.181638
0.176954
0.172612
0.168576
0.164774
0.161134
0.157584
0.154103
0.150678
0.147367
0.144154
0.141047
0.13805
0.135165
0.132385
0.129707
0.127125
0.124638
0.12224
0.119929
0.1177
0.115551
0.231933
0.224221
0.216983
0.210176
0.203764
0.197714
0.192004
0.1866
0.181543
0.176804
0.172385
0.168265
0.164384
0.160687
0.15711
0.15363
0.150222
0.146936
0.14375
0.140663
0.137684
0.134814
0.132049
0.129385
0.126818
0.124344
0.121959
0.11966
0.117442
0.115305
0.231933
0.224219
0.216979
0.210168
0.203749
0.197689
0.191965
0.186544
0.181461
0.176689
0.172227
0.168061
0.164134
0.160407
0.156815
0.153335
0.149941
0.146667
0.143499
0.140432
0.137466
0.134606
0.131852
0.129198
0.126641
0.124177
0.121802
0.119513
0.117304
0.115176
0.231932
0.224217
0.216974
0.210159
0.203733
0.197665
0.191931
0.186498
0.181401
0.176614
0.172132
0.167948
0.164001
0.160262
0.156665
0.153187
0.1498
0.146532
0.143371
0.140314
0.137357
0.134503
0.131754
0.129106
0.126553
0.124094
0.121724
0.119439
0.117235
0.115112
0.238838
0.237493
0.236013
0.234426
0.232751
0.231008
0.229217
0.227404
0.225602
0.223848
0.222143
0.220402
0.218529
0.216591
0.214689
0.21283
0.210978
0.209127
0.207281
0.205443
0.203614
0.201802
0.200007
0.19823
0.196468
0.19473
0.193013
0.191317
0.189641
0.187993
0.238838
0.237493
0.236014
0.234426
0.232752
0.231008
0.229219
0.227413
0.225627
0.22391
0.22227
0.220597
0.218783
0.216878
0.214988
0.213132
0.211274
0.209417
0.207562
0.205713
0.203874
0.202051
0.200246
0.198457
0.196689
0.194945
0.193222
0.191521
0.189842
0.188192
0.238839
0.237493
0.236014
0.234426
0.232752
0.23101
0.229223
0.227433
0.225689
0.22407
0.222614
0.221129
0.219473
0.217653
0.215795
0.213943
0.212064
0.210188
0.208309
0.206435
0.204574
0.202729
0.200902
0.199095
0.197312
0.195552
0.193815
0.192101
0.19041
0.18875
0.23884
0.237493
0.236014
0.234426
0.232752
0.231013
0.229236
0.227478
0.225826
0.22444
0.223414
0.222379
0.221068
0.219413
0.217603
0.215735
0.213804
0.211865
0.209918
0.207976
0.206047
0.20414
0.202252
0.200394
0.198562
0.196756
0.194976
0.193222
0.191494
0.189798
0.23884
0.237495
0.236014
0.234426
0.232754
0.231019
0.22926
0.227566
0.226109
0.225231
0.225019
0.224796
0.224194
0.222852
0.22113
0.219215
0.217163
0.215084
0.213003
0.210935
0.208887
0.206865
0.204874
0.202919
0.200996
0.199104
0.197244
0.195416
0.193617
0.191855
0.23884
0.237496
0.236016
0.234427
0.232756
0.23103
0.229303
0.227731
0.226663
0.226613
0.227667
0.228322
0.228682
0.228105
0.226584
0.224577
0.222312
0.219953
0.21757
0.215204
0.212869
0.210581
0.208346
0.206161
0.204024
0.201934
0.199888
0.197886
0.195927
0.194019
0.23884
0.237496
0.236018
0.234431
0.23276
0.231046
0.229374
0.228021
0.227653
0.2288
0.23213
0.235587
0.237355
0.237376
0.236443
0.234349
0.231997
0.229557
0.227083
0.224596
0.22214
0.219742
0.217406
0.215134
0.212918
0.210755
0.208655
0.206629
0.204711
0.202936
0.23884
0.237496
0.236018
0.234434
0.232769
0.231072
0.229474
0.228466
0.228898
0.232189
0.234048
0.243459
0.249466
0.253324
0.277356
0.272643
0.268175
0.264531
0.261976
0.260414
0.259687
0.259679
0.260295
0.261425
0.262982
0.264961
0.267413
0.27052
0.274248
0.279262
0.23884
0.237496
0.236019
0.234435
0.232776
0.231097
0.229588
0.229017
0.230336
0.237539
0.246161
0.280812
0.373633
0.46627
1.18616
1.08374
1.01129
0.955387
0.912451
0.879443
0.854533
0.836559
0.824558
0.817565
0.814802
0.815841
0.82053
0.828892
0.840728
0.854606
0.23884
0.237496
0.236019
0.234436
0.232779
0.23111
0.229667
0.22931
0.231559
0.242554
0.265824
0.901281
4.62961
3.3461
3.18299
2.64887
2.36418
2.1695
2.02773
1.91972
1.83444
1.76542
1.70762
1.65703
1.61131
1.56948
1.53162
1.49745
1.46794
1.43926
0.23884
0.237496
0.236019
0.234436
0.232779
0.231111
0.22967
0.229317
0.231577
0.242573
0.267671
9.31394
5.01024
4.21369
3.72902
3.35053
3.04894
2.8056
2.60681
2.44283
2.30518
2.18683
2.08281
1.99082
1.91006
1.83873
1.77783
1.71941
0.23884
0.237496
0.236016
0.234436
0.232777
0.231099
0.229594
0.229032
0.230374
0.23761
0.254561
0.629396
5.81948
15.2063
2.68455
2.35497
2.11679
1.94058
1.81043
1.71201
1.63654
1.57669
1.52852
1.48718
1.4521
1.42219
1.39625
1.37327
1.35314
1.33462
0.238839
0.237496
0.236016
0.234435
0.232769
0.231074
0.229478
0.228489
0.228946
0.232302
0.237328
0.264578
0.318723
0.339656
0.320377
0.322021
0.322025
0.322138
0.323457
0.326466
0.331652
0.339976
0.35293
0.372437
0.397428
0.427064
0.460339
0.496418
0.534022
0.573959
0.238839
0.237496
0.236018
0.234431
0.23276
0.231047
0.229379
0.228041
0.227701
0.228897
0.232373
0.236371
0.238951
0.239266
0.238891
0.237269
0.235431
0.233604
0.231767
0.229908
0.228128
0.226778
0.225999
0.226006
0.227005
0.229195
0.232755
0.237849
0.244631
0.253215
0.23884
0.237496
0.236016
0.234427
0.232756
0.231031
0.229308
0.227746
0.22671
0.226699
0.22784
0.228703
0.22931
0.228915
0.227639
0.225879
0.223855
0.221667
0.219377
0.217046
0.21471
0.212414
0.210196
0.208079
0.206091
0.204262
0.202621
0.201213
0.200091
0.19928
0.23884
0.237495
0.236014
0.234427
0.232754
0.23102
0.229264
0.227578
0.226141
0.225309
0.225148
0.225035
0.224584
0.223426
0.221895
0.220144
0.218205
0.216193
0.214149
0.2121
0.210046
0.207986
0.205931
0.203884
0.201846
0.199826
0.197827
0.195855
0.193926
0.192056
0.23884
0.237493
0.236014
0.234426
0.232753
0.231014
0.22924
0.227487
0.225849
0.224491
0.223511
0.222554
0.221322
0.219757
0.218047
0.21627
0.214418
0.212529
0.210618
0.208688
0.206745
0.204797
0.202846
0.200906
0.198974
0.197052
0.195145
0.193251
0.191375
0.189529
0.238839
0.237493
0.236014
0.234426
0.232752
0.231011
0.229227
0.227442
0.225707
0.224106
0.222677
0.221226
0.219605
0.217827
0.216027
0.214232
0.212409
0.21056
0.2087
0.206834
0.204964
0.203095
0.201226
0.199364
0.197509
0.195663
0.193826
0.192
0.190189
0.1884
0.238838
0.237493
0.236014
0.234426
0.232752
0.23101
0.229222
0.22742
0.225643
0.223938
0.222316
0.220658
0.218856
0.21697
0.215118
0.213303
0.211484
0.20964
0.207795
0.205948
0.204105
0.202265
0.200431
0.198599
0.196775
0.194963
0.193162
0.191374
0.189602
0.187853
0.238838
0.237493
0.236013
0.234425
0.232751
0.231009
0.22922
0.227411
0.225616
0.223873
0.222182
0.220449
0.218579
0.216652
0.214779
0.212954
0.211131
0.209289
0.207447
0.205606
0.203769
0.20194
0.200116
0.198299
0.196487
0.194688
0.192902
0.191129
0.189371
0.187638
0.239049
0.238077
0.237093
0.236095
0.235082
0.234059
0.233037
0.232036
0.231101
0.230267
0.229512
0.228696
0.227674
0.226525
0.225379
0.224258
0.223124
0.221956
0.220777
0.219588
0.218391
0.217192
0.215991
0.214791
0.213587
0.212386
0.211191
0.21
0.208812
0.207638
0.239049
0.238078
0.237094
0.236095
0.235083
0.234062
0.233045
0.232056
0.231153
0.230382
0.229735
0.229037
0.228108
0.227016
0.225895
0.224783
0.22365
0.222476
0.22129
0.220092
0.218887
0.217679
0.216471
0.215261
0.21405
0.212845
0.211644
0.210448
0.209255
0.208076
0.239049
0.238078
0.237094
0.236096
0.235086
0.234068
0.233063
0.232107
0.23128
0.230674
0.230308
0.229908
0.229215
0.228262
0.227201
0.226103
0.224962
0.223776
0.222567
0.221345
0.220116
0.218886
0.217654
0.216423
0.215193
0.213972
0.212754
0.211541
0.210332
0.209138
0.23905
0.238078
0.237095
0.236098
0.23509
0.23408
0.233095
0.232201
0.231531
0.231276
0.231364
0.231475
0.231269
0.230605
0.229677
0.228607
0.227438
0.226212
0.224958
0.223689
0.222415
0.22114
0.219861
0.218588
0.21732
0.216059
0.214802
0.213551
0.212305
0.211075
0.23905
0.238079
0.237095
0.236099
0.235095
0.234098
0.233149
0.232366
0.231998
0.232202
0.232974
0.233771
0.234242
0.234181
0.233612
0.232663
0.231474
0.230182
0.228857
0.227525
0.226191
0.224856
0.223521
0.222194
0.220873
0.219555
0.218241
0.21693
0.215625
0.214334
0.239051
0.23808
0.237097
0.236102
0.235103
0.234123
0.233233
0.232643
0.232706
0.233629
0.235728
0.237593
0.238994
0.239538
0.239451
0.238771
0.237672
0.236361
0.234971
0.233548
0.232103
0.230643
0.229177
0.227715
0.22625
0.224784
0.22332
0.221859
0.220406
0.218973
0.239051
0.238081
0.237099
0.236106
0.235113
0.234156
0.233355
0.233085
0.23367
0.23584
0.240327
0.245114
0.248015
0.249702
0.250331
0.249832
0.248643
0.247292
0.245912
0.244503
0.243039
0.241551
0.24003
0.238476
0.236877
0.235235
0.23356
0.231863
0.230174
0.228496
0.239051
0.238083
0.237102
0.236111
0.235125
0.234198
0.233509
0.233588
0.234952
0.239358
0.242679
0.255691
0.263598
0.267664
0.291704
0.298381
0.301399
0.301156
0.29903
0.295802
0.29199
0.287866
0.283672
0.279506
0.275451
0.271577
0.267947
0.264632
0.26169
0.25923
0.239051
0.238083
0.237104
0.236116
0.23514
0.234236
0.233675
0.234049
0.236355
0.244686
0.254133
0.298515
0.387409
0.397593
1.57774
1.36839
1.19854
1.0679
0.96419
0.880494
0.810791
0.752524
0.70306
0.660868
0.62489
0.594383
0.568885
0.548106
0.531929
0.520816
0.239051
0.238083
0.237105
0.23612
0.235148
0.234261
0.233787
0.234369
0.237642
0.250061
0.271427
0.885326
8.23722
5.64424
2.66329
2.08403
1.75064
1.52663
1.36103
1.23494
1.13526
1.05507
0.989627
0.93563
0.890792
0.853552
0.82282
0.797911
0.778521
0.763823
0.239051
0.238083
0.237105
0.236118
0.235145
0.234261
0.233788
0.234371
0.237649
0.250079
0.273052
7.38781
4.74487
3.73846
3.15644
2.75736
2.46059
2.23287
2.0517
1.90634
1.7862
1.68506
1.59874
1.5246
1.46086
1.40591
1.35899
1.31778
0.23905
0.238082
0.237101
0.236114
0.235137
0.234237
0.233679
0.234061
0.236382
0.244729
0.2592
0.676499
12.3052
11.7925
2.42479
2.09786
1.85643
1.68095
1.5518
1.45511
1.38137
1.32393
1.28012
1.24692
1.22302
1.20651
1.19606
1.1903
1.18849
1.18877
0.239049
0.238081
0.237098
0.236111
0.235126
0.2342
0.233515
0.233604
0.234987
0.239436
0.245847
0.27236
0.299656
0.322794
0.308877
0.321109
0.328551
0.333029
0.336275
0.339177
0.342183
0.345891
0.350926
0.35772
0.366732
0.37833
0.392788
0.410239
0.430686
0.454376
0.23905
0.238081
0.237099
0.236107
0.235113
0.234158
0.233361
0.233108
0.233715
0.235921
0.240497
0.245505
0.248823
0.250969
0.252145
0.252085
0.25118
0.250103
0.248998
0.247895
0.246819
0.245815
0.244944
0.244261
0.243837
0.243753
0.244124
0.245072
0.246773
0.249251
0.239051
0.23808
0.237097
0.236102
0.235103
0.234124
0.233239
0.232661
0.232742
0.233698
0.235858
0.237876
0.239472
0.240284
0.240492
0.240315
0.239704
0.238682
0.237405
0.235996
0.234527
0.233037
0.231546
0.230088
0.228674
0.227325
0.226045
0.224862
0.223808
0.222896
0.23905
0.238079
0.237095
0.2361
0.235096
0.234099
0.233154
0.23238
0.232035
0.232262
0.233074
0.233954
0.234542
0.234629
0.234376
0.233647
0.232566
0.231306
0.229975
0.228612
0.227235
0.225846
0.22445
0.22306
0.221682
0.220319
0.218966
0.217621
0.216299
0.215012
0.23905
0.238078
0.237094
0.236098
0.23509
0.234081
0.233099
0.232212
0.231559
0.231335
0.231447
0.2316
0.231459
0.23092
0.230136
0.229174
0.228071
0.226888
0.225658
0.224392
0.223099
0.22179
0.220465
0.219137
0.217809
0.216485
0.215169
0.213853
0.212546
0.211255
0.239049
0.238078
0.237094
0.236096
0.235086
0.23407
0.233067
0.232116
0.231301
0.230716
0.23038
0.230015
0.229355
0.228448
0.227454
0.22642
0.22532
0.224164
0.222969
0.221746
0.220504
0.219249
0.217984
0.216714
0.215439
0.214167
0.212896
0.211627
0.210362
0.209107
0.239049
0.238077
0.237094
0.236095
0.235084
0.234063
0.233049
0.232065
0.23117
0.230414
0.229785
0.229102
0.228181
0.227104
0.226023
0.224954
0.223852
0.222705
0.22153
0.220333
0.21912
0.217897
0.216665
0.215425
0.214178
0.212932
0.211688
0.210444
0.209203
0.207974
0.239048
0.238077
0.237093
0.236094
0.235082
0.23406
0.23304
0.232043
0.231116
0.230294
0.229552
0.228742
0.227717
0.226571
0.225452
0.224365
0.223257
0.222112
0.220941
0.219751
0.218547
0.217334
0.216112
0.214886
0.213651
0.212414
0.211182
0.20995
0.208719
0.207502
0.239058
0.23811
0.237169
0.236233
0.235303
0.234385
0.233484
0.232628
0.231849
0.231173
0.230576
0.229936
0.229138
0.228241
0.22735
0.226479
0.225599
0.224695
0.223778
0.222852
0.221919
0.220983
0.220046
0.219107
0.218168
0.217226
0.216287
0.215348
0.214413
0.213487
0.239058
0.238111
0.237169
0.236233
0.235305
0.234388
0.233493
0.232649
0.231899
0.231281
0.230782
0.230249
0.229539
0.228696
0.227838
0.226983
0.22611
0.225207
0.224291
0.223363
0.222428
0.22149
0.220549
0.219608
0.218665
0.217721
0.216777
0.215837
0.214898
0.21397
0.239058
0.238111
0.237169
0.236234
0.235307
0.234394
0.233512
0.232697
0.232017
0.231547
0.231298
0.231033
0.230543
0.229834
0.229048
0.228226
0.22736
0.226456
0.225534
0.224597
0.223652
0.222703
0.221753
0.220801
0.219845
0.218891
0.217938
0.216987
0.216038
0.215099
0.239058
0.238111
0.23717
0.236235
0.235311
0.234406
0.233545
0.232785
0.232247
0.232082
0.232265
0.232463
0.232393
0.231952
0.231311
0.230545
0.229683
0.228771
0.227834
0.226879
0.225915
0.224944
0.22397
0.222993
0.222013
0.221033
0.220056
0.219079
0.218103
0.217138
0.239058
0.238111
0.23717
0.236237
0.235316
0.234423
0.233595
0.232935
0.232659
0.232924
0.233663
0.234415
0.234927
0.235007
0.234701
0.234083
0.233255
0.232351
0.231405
0.23044
0.229464
0.228478
0.227483
0.226481
0.225474
0.224463
0.22345
0.222435
0.221419
0.220412
0.239059
0.238111
0.237171
0.23624
0.235324
0.234446
0.233672
0.23318
0.233311
0.234148
0.235875
0.237569
0.238794
0.239445
0.239637
0.239425
0.23883
0.238058
0.237192
0.23627
0.235306
0.234305
0.233266
0.2322
0.231104
0.229991
0.228863
0.227724
0.22658
0.225441
0.239059
0.238113
0.237172
0.236242
0.235333
0.234477
0.233779
0.233554
0.234117
0.235913
0.239426
0.243013
0.245426
0.246993
0.247817
0.247918
0.247499
0.246789
0.24593
0.24498
0.243961
0.242878
0.241737
0.240544
0.239299
0.238014
0.236695
0.235352
0.233998
0.232645
0.23906
0.238114
0.237174
0.236245
0.235342
0.234511
0.233909
0.234027
0.235174
0.238673
0.241671
0.25149
0.257521
0.260664
0.268746
0.269664
0.269838
0.269292
0.268221
0.2668
0.265104
0.263181
0.261095
0.258871
0.25657
0.254219
0.251861
0.249529
0.247266
0.245097
0.23906
0.238115
0.237177
0.23625
0.235356
0.234542
0.234042
0.234402
0.236271
0.242458
0.249664
0.274374
0.295038
0.298796
0.385495
0.373456
0.360613
0.348243
0.336944
0.326863
0.317822
0.309844
0.302869
0.296872
0.291751
0.287459
0.283958
0.281226
0.279243
0.278021
0.23906
0.238116
0.237179
0.236256
0.235366
0.234569
0.23414
0.234659
0.237206
0.246432
0.259998
0.745249
6.59328
4.69805
1.67427
1.35136
1.13963
0.992324
0.885859
0.80862
0.750083
0.705166
0.670941
0.644342
0.623496
0.606991
0.593826
0.583201
0.574764
0.567465
0.23906
0.238115
0.237179
0.236253
0.235361
0.234568
0.23414
0.234661
0.237209
0.246427
0.261398
0.717623
7.99946
5.61945
2.22644
1.958
1.74014
1.5734
1.44448
1.3419
1.25826
1.18976
1.13304
1.08548
1.04616
1.01329
0.985977
0.963462
0.945252
0.930429
0.239058
0.238113
0.237175
0.236247
0.235351
0.234542
0.234045
0.23441
0.236289
0.242481
0.251987
0.514557
0.830569
13.2265
0.794779
0.781503
0.761769
0.745019
0.732078
0.722808
0.717147
0.715503
0.717347
0.721565
0.727912
0.73552
0.744383
0.754203
0.765218
0.777102
0.239058
0.238113
0.237173
0.236245
0.235343
0.234512
0.233914
0.234038
0.235199
0.238722
0.243791
0.260188
0.269633
0.274843
0.273876
0.278735
0.282571
0.284937
0.286775
0.288471
0.29038
0.292634
0.295406
0.298789
0.302916
0.307869
0.313808
0.32089
0.329332
0.339242
0.239058
0.238113
0.237172
0.236242
0.235333
0.234478
0.233784
0.233571
0.23415
0.235971
0.239532
0.24323
0.245866
0.247728
0.248916
0.249443
0.249676
0.249525
0.249002
0.24828
0.247478
0.246659
0.245865
0.24512
0.244455
0.243894
0.243472
0.243221
0.243188
0.243414
0.239059
0.238111
0.237171
0.23624
0.235324
0.234448
0.233677
0.233195
0.233339
0.2342
0.235965
0.23775
0.239101
0.239944
0.240348
0.240405
0.240121
0.239543
0.238773
0.237892
0.236949
0.235973
0.234972
0.233969
0.232968
0.231981
0.231006
0.230054
0.229138
0.228274
0.239058
0.238111
0.23717
0.236237
0.235317
0.234424
0.2336
0.232947
0.23269
0.232973
0.233738
0.234538
0.235132
0.235333
0.23528
0.234819
0.234067
0.233182
0.232225
0.231235
0.230227
0.22921
0.228188
0.227166
0.226149
0.225139
0.224137
0.22314
0.222155
0.221201
0.239058
0.238111
0.23717
0.236235
0.235311
0.234407
0.233549
0.232795
0.23227
0.232131
0.232332
0.23256
0.232569
0.232228
0.231703
0.231021
0.230209
0.229326
0.228401
0.227444
0.226466
0.225475
0.224475
0.22347
0.222463
0.221456
0.220457
0.219461
0.218471
0.217501
0.239058
0.238111
0.237169
0.236234
0.235307
0.234396
0.233516
0.232706
0.232036
0.231584
0.231358
0.231121
0.230661
0.229993
0.229263
0.228493
0.227662
0.226781
0.225867
0.224927
0.22397
0.223003
0.222031
0.221055
0.220074
0.219094
0.218116
0.217142
0.216173
0.215217
0.239058
0.23811
0.237169
0.236233
0.235305
0.234389
0.233496
0.232657
0.231914
0.231309
0.230825
0.230305
0.229603
0.228775
0.227948
0.22713
0.226283
0.225397
0.224488
0.22356
0.222619
0.221668
0.220713
0.219753
0.218788
0.217823
0.216857
0.215894
0.214934
0.213987
0.239057
0.23811
0.237168
0.236232
0.235303
0.234385
0.233487
0.232635
0.231863
0.231197
0.230612
0.229977
0.229177
0.228283
0.227413
0.22657
0.225711
0.224822
0.223912
0.222985
0.222046
0.2211
0.220149
0.219194
0.218236
0.217275
0.216316
0.215358
0.214402
0.213459
0.239058
0.238112
0.237174
0.236243
0.235322
0.234415
0.233526
0.232681
0.231901
0.231203
0.230566
0.229902
0.229134
0.228304
0.227482
0.226676
0.225866
0.225041
0.224209
0.223372
0.222532
0.221692
0.220854
0.220017
0.219183
0.21835
0.217518
0.21669
0.215865
0.215052
0.239058
0.238112
0.237174
0.236243
0.235323
0.234417
0.233533
0.232698
0.231941
0.231288
0.230723
0.230142
0.229441
0.228656
0.227862
0.227073
0.226273
0.225452
0.224624
0.223789
0.222951
0.222113
0.221276
0.22044
0.219605
0.218773
0.21794
0.217112
0.216287
0.215474
0.239058
0.238112
0.237174
0.236244
0.235325
0.234423
0.233548
0.232738
0.232036
0.231493
0.231114
0.230738
0.230204
0.229528
0.228801
0.228048
0.227265
0.226451
0.225627
0.224793
0.223955
0.223115
0.222276
0.221437
0.2206
0.219763
0.218929
0.218096
0.217268
0.216452
0.239058
0.238113
0.237175
0.236245
0.235328
0.234432
0.233576
0.232809
0.232214
0.2319
0.231906
0.231933
0.231704
0.231232
0.230621
0.229923
0.229161
0.228351
0.227526
0.226686
0.225839
0.224988
0.224138
0.223287
0.222437
0.221586
0.220738
0.219893
0.21905
0.21822
0.239058
0.238113
0.237175
0.236247
0.235333
0.234446
0.233618
0.232926
0.232528
0.232629
0.233072
0.233551
0.233804
0.233754
0.233388
0.232812
0.232093
0.231309
0.23049
0.22965
0.2288
0.227944
0.227084
0.226222
0.225356
0.224488
0.22362
0.222753
0.221887
0.221032
0.239058
0.238113
0.237176
0.236249
0.235339
0.234466
0.233678
0.233112
0.233051
0.233565
0.234707
0.235876
0.236688
0.237122
0.237254
0.237045
0.236531
0.235889
0.235153
0.234366
0.233546
0.232702
0.231837
0.230952
0.230047
0.22913
0.228203
0.22727
0.226331
0.225399
0.239058
0.238113
0.237176
0.236251
0.235347
0.23449
0.23376
0.233389
0.233698
0.2349
0.237251
0.239302
0.240947
0.242074
0.242715
0.242997
0.243018
0.242799
0.242315
0.241662
0.240898
0.240048
0.239128
0.238145
0.237112
0.236038
0.234939
0.233817
0.232682
0.231546
0.239059
0.238113
0.237179
0.236253
0.235354
0.234516
0.23386
0.233751
0.234495
0.236732
0.241234
0.245884
0.248803
0.250937
0.2523
0.252875
0.253088
0.253024
0.252519
0.251737
0.250771
0.24969
0.248496
0.247212
0.245852
0.244433
0.242974
0.241488
0.239991
0.238504
0.239059
0.238115
0.237181
0.236257
0.235363
0.234541
0.233954
0.234098
0.235309
0.239065
0.243099
0.255185
0.261933
0.265783
0.271487
0.273127
0.273808
0.273688
0.272508
0.270662
0.268464
0.266124
0.263659
0.261155
0.258663
0.256234
0.253887
0.251651
0.249543
0.247593
0.23906
0.238116
0.237183
0.236263
0.235372
0.23456
0.234018
0.234279
0.235911
0.241195
0.248554
0.275424
0.303974
0.351629
0.322937
0.325116
0.322473
0.317912
0.312789
0.307802
0.303197
0.299085
0.295442
0.292368
0.289922
0.28806
0.28677
0.286037
0.285851
0.286211
0.23906
0.238115
0.237181
0.236261
0.23537
0.23456
0.234019
0.23428
0.235912
0.241186
0.24891
0.280792
0.290956
0.303017
0.3117
0.332577
0.344712
0.352503
0.358101
0.36257
0.366313
0.3697
0.372788
0.375836
0.378859
0.382065
0.385535
0.38939
0.393748
0.39865
0.239058
0.238113
0.237178
0.236255
0.235361
0.234541
0.233956
0.234103
0.235318
0.239079
0.244655
0.262735
0.270154
0.274002
0.275497
0.281872
0.287634
0.291246
0.294001
0.296446
0.298871
0.30148
0.304411
0.30778
0.31169
0.316284
0.321647
0.327884
0.33504
0.343127
0.239058
0.238113
0.237177
0.236253
0.235355
0.234518
0.233864
0.233763
0.234516
0.236765
0.241294
0.246031
0.249116
0.251492
0.253077
0.253864
0.254492
0.254671
0.254493
0.254137
0.253726
0.253332
0.252987
0.25273
0.252624
0.252772
0.253248
0.254092
0.255369
0.257144
0.239058
0.238113
0.237176
0.236251
0.235347
0.234491
0.233764
0.233401
0.23372
0.234942
0.237319
0.239454
0.241226
0.242537
0.243362
0.243832
0.244086
0.244144
0.243903
0.24337
0.242684
0.241917
0.241102
0.240257
0.239408
0.238578
0.237786
0.237048
0.236382
0.235825
0.239058
0.238113
0.237176
0.236249
0.23534
0.234467
0.233682
0.233123
0.23308
0.233609
0.234776
0.235994
0.236893
0.237456
0.237737
0.237737
0.237357
0.23678
0.236072
0.235287
0.234465
0.233628
0.232786
0.231942
0.231095
0.230256
0.229421
0.228597
0.22779
0.227038
0.239058
0.238113
0.237175
0.236247
0.235333
0.234447
0.233622
0.232936
0.232552
0.232666
0.233127
0.233639
0.233947
0.234031
0.23383
0.233363
0.232699
0.231934
0.231113
0.230256
0.229382
0.228502
0.227621
0.226743
0.225868
0.225003
0.224148
0.223302
0.222471
0.221693
0.239058
0.238113
0.237175
0.236245
0.235329
0.234433
0.233579
0.232817
0.232233
0.231937
0.231971
0.232036
0.231859
0.231457
0.230923
0.230284
0.229556
0.228764
0.227945
0.2271
0.226241
0.225375
0.224508
0.223642
0.222778
0.221916
0.221063
0.220215
0.21938
0.218582
0.239058
0.238112
0.237174
0.236244
0.235325
0.234424
0.233551
0.232745
0.232051
0.231523
0.231162
0.230807
0.230297
0.229653
0.228967
0.228249
0.22749
0.22669
0.225871
0.225033
0.224185
0.223333
0.22248
0.221627
0.220776
0.219927
0.219082
0.218241
0.21741
0.216606
0.239058
0.238112
0.237174
0.236243
0.235323
0.234418
0.233536
0.232705
0.231955
0.231312
0.23076
0.230189
0.229497
0.228724
0.227952
0.227186
0.226403
0.225592
0.224768
0.223932
0.223088
0.222241
0.221394
0.220546
0.219701
0.218857
0.218013
0.217175
0.216344
0.215532
0.239058
0.238112
0.237173
0.236242
0.235322
0.234415
0.233528
0.232687
0.231913
0.231224
0.230596
0.229938
0.229171
0.228344
0.227536
0.226748
0.225952
0.225135
0.224307
0.223468
0.222624
0.221776
0.220929
0.220082
0.219236
0.218393
0.217552
0.216714
0.215881
0.215065
0.239058
0.238112
0.237174
0.236244
0.235323
0.234415
0.233524
0.232671
0.231867
0.231125
0.230424
0.229708
0.228927
0.228108
0.227296
0.226497
0.225696
0.224885
0.224072
0.223256
0.222441
0.221628
0.220817
0.220011
0.219208
0.218409
0.217613
0.216823
0.216036
0.215263
0.239058
0.238112
0.237174
0.236244
0.235324
0.234417
0.23353
0.232684
0.231898
0.231187
0.230536
0.229876
0.229144
0.228359
0.227569
0.226782
0.22599
0.225183
0.224375
0.223562
0.22275
0.221938
0.22113
0.220326
0.219525
0.218727
0.217933
0.217143
0.216358
0.215587
0.239058
0.238113
0.237174
0.236245
0.235325
0.234422
0.233542
0.232714
0.231968
0.231333
0.230806
0.230288
0.229673
0.22897
0.228231
0.227474
0.226698
0.225901
0.225098
0.22429
0.223481
0.222672
0.221866
0.221063
0.220264
0.219468
0.218675
0.217886
0.217102
0.216332
0.239058
0.238113
0.237175
0.236245
0.235328
0.23443
0.233562
0.232767
0.232096
0.231614
0.231343
0.231104
0.230714
0.230162
0.229514
0.228807
0.228055
0.227269
0.226473
0.225667
0.224858
0.224049
0.223242
0.222437
0.221635
0.220835
0.220038
0.219246
0.218457
0.217684
0.239058
0.238113
0.237175
0.236247
0.235332
0.23444
0.233595
0.232852
0.232314
0.232115
0.232273
0.232455
0.232439
0.232139
0.231638
0.231009
0.230288
0.229514
0.228719
0.227908
0.227093
0.226277
0.225463
0.22465
0.22384
0.223031
0.222224
0.221421
0.220622
0.21984
0.239058
0.238113
0.237176
0.236248
0.235337
0.234455
0.233639
0.23298
0.232667
0.232869
0.233473
0.234118
0.234524
0.234674
0.234503
0.234064
0.233442
0.232749
0.231993
0.231207
0.230409
0.229606
0.228799
0.227988
0.227173
0.226353
0.22553
0.224706
0.223884
0.223077
0.239058
0.238113
0.237176
0.23625
0.235342
0.234473
0.233697
0.233165
0.233198
0.23382
0.235154
0.236459
0.2374
0.237992
0.238298
0.238339
0.238061
0.237573
0.23693
0.236202
0.235428
0.23463
0.23381
0.232968
0.232105
0.231223
0.230329
0.229423
0.228511
0.227614
0.239059
0.238114
0.237178
0.236252
0.235348
0.234492
0.233765
0.233402
0.233731
0.234998
0.237483
0.239535
0.241191
0.242334
0.243101
0.24349
0.243574
0.24336
0.24285
0.242172
0.241401
0.240572
0.239696
0.238776
0.237811
0.23681
0.235779
0.234729
0.233661
0.232608
0.239059
0.238116
0.237182
0.236255
0.235353
0.234509
0.233829
0.233638
0.234274
0.2363
0.240296
0.244155
0.246644
0.248433
0.249967
0.250956
0.251492
0.251629
0.251301
0.250546
0.249556
0.248442
0.247237
0.245967
0.244634
0.243268
0.241886
0.240502
0.239123
0.237793
0.23906
0.238116
0.237184
0.236261
0.235359
0.234521
0.233871
0.233806
0.234651
0.237424
0.24326
0.248481
0.252163
0.254648
0.256992
0.258568
0.259478
0.259795
0.259466
0.258518
0.257263
0.255868
0.25438
0.252859
0.251318
0.249804
0.24834