/*--------------------------------*- C++ -*----------------------------------*\
| =========                 |                                                 |
| \\      /  F ield         | OpenFOAM: The Open Source CFD Toolbox           |
|  \\    /   O peration     | Version:  2512                                  |
|   \\  /    A nd           | Website:  www.openfoam.com                      |
|    \\/     M anipulation  |                                                 |
\*---------------------------------------------------------------------------*/
FoamFile
{
    version     2.0;
    format      ascii;
    arch        "LSB;label=32;scalar=64";
    class       volScalarField;
    location    "140";
    object      k;
}
// * * * * * * * * * * * * * * * * * * * * * * * * * * * * * * * * * * * * * //

dimensions      [0 2 -2 0 0 0 0];

internalField   nonuniform List<scalar> 
90398
(
0.231951
0.22429
0.217174
0.210604
0.204614
0.199219
0.194395
0.190173
0.188549
0.245862
0.824068
3.28097
10.0573
21.1441
33.134
44.012
53.2497
60.8657
67.1609
72.4269
76.9517
81.0055
84.8315
88.6445
92.6243
96.9214
101.633
106.81
112.572
119.55
0.231956
0.224304
0.217199
0.21064
0.204658
0.199269
0.194452
0.190298
0.191196
0.302306
1.20158
4.36709
11.4722
22.0445
33.2571
43.5012
52.2861
59.5705
65.6076
70.6557
74.9847
78.8542
82.5012
86.1366
89.9459
94.0704
98.6177
103.637
109.266
116.056
0.231963
0.224325
0.217239
0.210696
0.204732
0.199358
0.194548
0.190505
0.194661
0.357506
1.52989
5.23017
12.7035
22.5783
32.772
42.0893
50.1241
56.8182
62.3699
67.0058
70.975
74.524
77.8787
81.2516
84.8186
88.716
93.0547
97.8822
103.32
109.838
0.231969
0.224346
0.217282
0.210762
0.204818
0.199466
0.194669
0.190759
0.198205
0.399995
1.79241
5.98254
13.4777
22.538
31.6477
39.9068
47.0006
52.892
57.7564
61.804
65.2701
68.3893
71.3757
74.4394
77.7385
81.4053
85.5399
90.183
95.4185
101.614
0.231975
0.224366
0.217323
0.210829
0.204907
0.199582
0.1948
0.191034
0.20109
0.423417
1.95644
6.59567
13.8041
22.0433
30.0822
37.1969
43.1866
48.0825
52.075
55.3774
58.2205
60.8273
63.4065
66.1434
69.1848
72.6449
76.6047
81.088
86.1273
91.9737
0.231984
0.224384
0.217359
0.210891
0.20499
0.199695
0.194947
0.19128
0.202278
0.419202
2.00992
7.02495
14.0311
21.5494
28.4949
34.3173
39.0047
42.7096
45.6628
48.0915
50.2246
52.2803
54.4448
56.8769
59.7018
63.005
66.8347
71.1886
76.0404
81.5242
0.231993
0.224408
0.217391
0.210946
0.20506
0.199783
0.195082
0.191435
0.200482
0.368548
1.87523
7.88828
15.3882
22.562
28.0804
32.1318
35.0748
37.2482
38.9303
40.3396
41.6969
43.1921
44.9778
47.1788
49.8739
53.097
56.849
61.0927
65.7458
70.8397
0.231997
0.224429
0.217434
0.211012
0.205115
0.199822
0.195155
0.191415
0.194803
0.195719
0.293365
2.41003
7.91378
13.2756
33.7524
33.5096
33.1484
32.8773
32.7644
32.9539
33.571
34.6588
36.2629
38.4144
41.1244
44.3696
48.0809
52.1805
56.5087
60.9142
0.232
0.224439
0.217464
0.211064
0.205183
0.19984
0.195143
0.191206
0.186902
0.181403
0.422326
5.68024
15.6737
21.1852
37.0492
32.2474
29.0684
27.0348
25.9134
25.6122
26.0885
27.2929
29.1574
31.6019
34.5393
37.8843
41.5467
45.4358
49.4009
53.2889
0.232001
0.224443
0.217468
0.211068
0.205216
0.199853
0.19511
0.191198
0.186687
0.18046
1.34978
18.9903
18.7149
14.0949
21.4701
19.447
18.0833
17.4988
17.8011
18.9352
20.7549
23.0859
25.7626
28.6618
31.7067
34.8599
38.089
41.3583
44.5763
47.6347
0.232002
0.224444
0.217469
0.211067
0.205209
0.199839
0.195091
0.191416
0.186563
0.179696
41.7172
15.5086
8.49973
21.0856
19.6565
19.3601
19.8095
20.8947
22.471
24.4387
26.702
29.0638
31.4103
33.689
35.8784
37.9923
40.0713
42.0792
43.9419
0.232001
0.224442
0.217466
0.211062
0.205172
0.199816
0.195117
0.191829
0.186831
0.179068
0.496092
9.77726
12.6349
15.3221
28.2368
26.1964
25.3923
25.6719
26.743
28.3095
30.1051
31.9953
33.8583
35.5508
37.0287
38.2857
39.3421
40.2332
40.9988
41.6094
0.231999
0.224434
0.217438
0.211014
0.205108
0.199805
0.195161
0.192644
0.204747
0.204038
0.226928
0.92878
3.45244
6.48029
20.5786
22.5903
24.654
26.9936
29.5224
32.0357
34.3405
36.2602
37.8129
38.9732
39.7531
40.1847
40.3154
40.2071
39.9289
39.4897
0.231996
0.224415
0.2174
0.21095
0.205059
0.199782
0.195137
0.193394
0.220423
0.414121
1.39484
4.58147
9.3086
13.9185
17.9869
21.6642
25.2337
28.8251
32.3179
35.4488
37.9952
39.8293
40.9241
41.4191
41.4693
41.1055
40.3956
39.4245
38.2832
37.0011
0.231989
0.224394
0.217371
0.210901
0.205004
0.199716
0.195085
0.194065
0.232061
0.540076
2.04474
5.4586
9.47054
13.5793
17.6716
21.8026
26.1089
30.515
34.7077
38.2563
40.8604
42.4327
43.0271
42.8055
42.1377
41.0405
39.5951
37.9065
36.0943
34.1678
0.23198
0.224378
0.217337
0.210844
0.204937
0.199623
0.195029
0.194509
0.23882
0.608806
2.33996
5.56531
9.25369
13.1335
17.2429
21.73
26.6797
31.8305
36.6344
40.4698
42.9885
44.1695
44.1791
43.287
41.9558
40.2155
38.1652
35.9175
33.6191
31.2634
0.231975
0.22436
0.217299
0.210782
0.204863
0.199532
0.194979
0.194619
0.24008
0.620768
2.37468
5.38441
8.85411
12.5839
16.7126
21.5141
27.0632
32.897
38.2017
42.1787
44.4735
45.1786
44.5741
43.1037
41.2009
38.9248
36.4061
33.7629
31.1519
28.5726
0.231969
0.224339
0.217255
0.210714
0.204781
0.199441
0.194911
0.194371
0.236349
0.590623
2.23926
5.06721
8.34735
11.9373
16.0939
21.2051
27.3211
33.7584
39.4413
43.4299
45.4112
45.6117
44.4391
42.5107
40.1519
37.4675
34.6162
31.7255
28.9488
26.3476
0.231969
0.224329
0.217226
0.210668
0.204727
0.199385
0.194855
0.19384
0.228837
0.532565
2.01337
4.66032
7.75403
11.21
15.3884
20.7507
27.3579
34.3395
40.3097
44.2333
45.8855
45.6299
43.9881
41.7551
39.0774
36.1221
33.0702
30.0498
27.213
24.6659
0.231959
0.224302
0.217179
0.210606
0.204659
0.199323
0.194791
0.19318
0.219722
0.465035
1.76462
4.25786
7.19457
10.5419
14.6498
20.081
27.0006
34.4042
40.6387
44.5159
45.937
45.3789
43.5606
41.1634
38.3154
35.2246
32.081
29.0064
26.1814
23.6752
0.238851
0.23757
0.23627
0.23506
0.234061
0.233392
0.233157
0.234923
0.296406
1.13197
5.12856
16.6894
38.9517
67.4174
92.9405
114.486
132.766
148.26
161.528
173.081
183.416
193.017
202.333
211.759
221.646
232.074
243.237
254.906
267.082
277.666
0.238854
0.237574
0.236275
0.235063
0.234061
0.233395
0.233224
0.237143
0.357984
1.63037
6.72124
19.6035
42.0968
69.1952
93.1719
113.833
131.482
146.447
159.249
170.379
180.331
189.589
198.606
207.807
217.466
227.771
238.858
250.522
262.732
273.456
0.238859
0.237583
0.236287
0.235075
0.234073
0.233419
0.233359
0.240418
0.429116
2.104
8.25404
22.5693
45.2024
69.5391
91.5335
110.747
127.225
141.193
153.105
163.426
172.652
181.269
189.761
198.497
207.771
217.837
228.766
240.377
252.585
263.46
0.238866
0.237596
0.236302
0.23509
0.234087
0.233444
0.233528
0.2445
0.497294
2.50855
9.64685
25.1469
47.0812
68.6966
88.4955
105.849
120.677
133.184
143.779
152.93
161.135
168.884
176.69
184.828
193.709
203.507
214.282
225.857
238.063
249.095
0.238874
0.23761
0.236319
0.235104
0.2341
0.23346
0.233725
0.249013
0.556304
2.82942
10.8241
27.287
47.6166
67.1502
84.6971
99.8126
112.509
123.08
131.949
139.603
146.549
153.304
160.295
167.884
176.399
185.982
196.661
208.238
220.442
231.601
0.238883
0.237625
0.236335
0.235116
0.234104
0.233457
0.233926
0.253586
0.598697
3.03975
11.871
29.5874
48.9792
66.5102
81.4013
93.6411
103.548
111.613
118.324
124.186
129.733
135.427
141.657
148.823
157.116
166.615
177.284
188.889
201.059
212.255
0.238892
0.237639
0.236349
0.235124
0.234092
0.233423
0.234084
0.257381
0.607445
3.02185
12.9737
34.3584
54.4034
70.2804
81.1171
88.974
94.9008
99.6019
103.625
107.404
111.448
116.162
121.939
128.995
137.37
146.978
157.701
169.286
181.286
192.335
0.2389
0.237652
0.236359
0.235124
0.23407
0.233362
0.234185
0.258703
0.54006
0.948648
6.37175
28.8397
53.6404
69.464
88.9948
88.2081
87.6065
87.5918
88.2481
89.9645
92.9804
97.4206
103.3
110.574
119.172
128.946
139.59
150.873
162.345
172.954
0.238905
0.237663
0.23637
0.23512
0.234039
0.233282
0.234251
0.25626
0.277412
0.618567
12.1305
41.6326
72.1047
86.405
93.6383
83.4114
76.5052
72.378
71.3563
73.0544
76.9732
82.6079
89.5594
97.5483
106.37
115.88
125.941
136.312
146.604
155.973
0.238907
0.237667
0.236377
0.235125
0.234021
0.233208
0.234354
0.259297
0.27762
0.360731
8.38836
115.166
91.0866
96.6846
54.4115
50.8019
50.3053
52.7399
57.2587
63.233
70.1132
77.4936
85.1815
93.1021
101.214
109.481
117.885
126.388
134.668
142.128
0.238908
0.237667
0.236377
0.235129
0.234043
0.23326
0.234836
0.265807
0.285214
0.357729
13.1757
57.6352
55.8955
56.6155
59.5107
64.2344
70.2351
76.8893
83.6291
90.2669
96.7401
103.027
109.124
115.048
120.873
126.432
131.386
0.238905
0.237664
0.236372
0.235133
0.234085
0.23341
0.235649
0.275273
0.302104
0.47439
4.31684
66.4837
80.6037
96.1762
72.033
67.9577
67.5625
70.4681
75.5025
81.5853
87.8427
93.8932
99.2935
104.105
108.344
112.057
115.331
118.284
120.917
123.107
0.238901
0.237655
0.236366
0.235153
0.234176
0.233681
0.23662
0.291898
0.70146
0.954556
3.47409
15.7724
35.0194
47.5707
61.7888
65.7413
70.9449
77.5073
84.7228
91.8502
98.2205
103.643
107.834
111.06
113.353
114.797
115.599
115.931
115.913
115.584
0.238894
0.237645
0.236365
0.235183
0.234289
0.234002
0.237613
0.304007
0.882458
3.34235
10.4644
23.0766
36.3961
47.3209
56.2613
64.726
73.6353
82.938
91.9758
99.9922
106.462
111.166
114.225
115.905
116.32
115.693
114.288
112.335
110.091
107.622
0.238887
0.237635
0.236362
0.235213
0.23441
0.234299
0.238504
0.313557
1.00021
4.02294
11.881
22.8577
33.6679
43.9784
54.0619
64.587
75.7918
87.1639
97.6732
106.326
112.625
116.513
118.258
118.4
117.034
114.505
111.175
107.323
103.312
99.137
0.23888
0.237625
0.236359
0.235243
0.234527
0.234555
0.239113
0.318902
1.06377
4.34548
12.2979
22.1122
31.8646
41.8554
52.4936
64.3418
77.3298
90.4448
102.181
111.242
117.106
119.972
120.342
118.942
115.904
111.668
106.717
101.385
96.0914
90.687
0.238873
0.237616
0.236357
0.235272
0.234628
0.234758
0.239356
0.318435
1.06591
4.36771
12.1547
21.1888
30.3705
40.0638
50.9723
63.818
78.3498
93.0181
105.76
114.985
120.229
121.948
120.973
118.079
113.511
107.851
101.643
95.2431
89.1323
82.9283
0.238869
0.23761
0.236357
0.235298
0.234717
0.234904
0.239186
0.311511
1.01048
4.15739
11.6065
20.0848
28.807
38.2193
49.3252
63.0641
79.0037
95.0299
108.563
117.76
122.274
122.884
120.7
116.458
110.583
103.809
96.7295
89.6701
83.1335
76.4785
0.238864
0.237603
0.236353
0.235311
0.234773
0.234983
0.238664
0.299317
0.908736
3.78452
10.8627
18.886
27.2075
36.3348
47.5976
62.0628
79.2245
96.5259
110.643
119.689
123.505
123.194
120.125
114.744
107.893
100.353
92.7549
85.3736
78.697
71.7858
0.238862
0.2376
0.236354
0.235328
0.23483
0.235057
0.238037
0.284976
0.788514
3.37235
10.1484
17.8439
25.874
34.7746
45.7948
60.2845
78.2412
96.6878
111.583
120.586
124.006
123.208
119.582
113.589
106.248
98.337
90.5229
83.0055
76.2957
69.0881
0.23906
0.238158
0.237387
0.236855
0.236706
0.236896
0.237859
0.260049
0.730607
3.81739
13.6518
35.9436
69.5211
103.919
132.933
158.53
181.103
200.84
218.149
233.609
247.758
261.142
274.273
287.588
301.4
315.955
331.065
346.509
361.735
373.711
0.239063
0.238164
0.237393
0.236859
0.236707
0.236914
0.238528
0.285434
1.06905
5.14885
16.5195
39.9112
72.7386
105.148
133.148
158.05
179.963
199.094
215.844
230.796
244.502
257.524
270.386
283.525
297.321
311.847
327.068
342.703
358.158
370.414
0.239069
0.238174
0.237406
0.236872
0.236721
0.236961
0.239638
0.320469
1.42838
6.47725
19.5302
44.1689
75.2487
104.613
130.98
154.502
175.169
193.065
208.718
222.679
235.52
247.821
260.119
272.885
286.481
300.879
316.174
332.007
347.738
360.391
0.239077
0.238189
0.237423
0.236889
0.236737
0.237023
0.241255
0.362373
1.77281
7.70525
22.3403
47.5613
76.1429
102.753
127.045
148.595
167.379
183.516
197.576
210.119
221.75
233.074
244.631
256.943
270.203
284.528
299.902
315.951
331.974
345.069
0.239087
0.238206
0.237443
0.236904
0.236747
0.237098
0.243431
0.4094
2.09727
8.81847
24.834
49.9968
76.3041
100.49
122.24
141.211
157.484
171.305
183.301
194.069
204.251
214.453
225.289
237.095
250.063
264.351
279.841
296.097
312.36
325.839
0.239096
0.238224
0.237463
0.236918
0.236752
0.237183
0.246244
0.459605
2.39144
9.80694
27.2888
53.1902
77.6645
99.4468
118.018
133.543
146.499
157.367
166.846
175.58
184.212
193.377
203.588
214.993
227.877
242.195
257.776
274.151
290.502
304.189
0.239106
0.238241
0.237482
0.236929
0.236746
0.237276
0.249677
0.507901
2.61886
10.616
30.546
60.3156
84.6955
103.907
117.108
127.262
135.491
142.542
149.089
155.725
163.04
171.486
181.358
192.755
205.735
220.121
235.648
251.916
268.048
281.628
0.239115
0.238255
0.237496
0.236934
0.23673
0.237386
0.253419
0.542968
2.71191
11.2467
21.8981
61.4176
89.9754
108.71
124.229
123.847
124.731
126.947
130.585
135.765
142.595
151.107
161.23
172.948
186.063
200.334
215.462
231.118
246.526
259.554
0.239122
0.238267
0.237507
0.236936
0.236717
0.237548
0.257158
0.541872
1.05937
6.30521
31.268
85.4189
121.026
138.704
126.495
114.813
109.358
108.834
112.13
118.169
126.316
135.995
146.973
159.01
171.89
185.413
199.387
213.611
227.459
239.202
0.239126
0.238274
0.237516
0.236943
0.236712
0.237736
0.261255
0.573965
1.01126
3.61522
47.6805
184.629
146.593
147.15
86.2892
84.6351
86.8812
92.4513
100.491
109.884
120.078
130.767
141.834
153.199
164.786
176.525
188.357
200.211
211.667
221.408
0.239127
0.238277
0.23752
0.236955
0.236762
0.238036
0.266842
0.625678
1.05978
2.94713
67.5784
45.4847
86.444
86.1956
90.0889
97.0687
106.099
115.885
125.828
135.603
145.217
154.641
163.864
172.899
181.78
190.544
198.935
206.106
0.239125
0.238273
0.23752
0.236975
0.236841
0.238376
0.273337
0.696655
1.25204
5.25162
27.0987
132.387
100.126
131.192
101.56
98.9639
102.191
109.133
117.945
127.248
136.323
144.73
152.462
159.56
166.033
172.037
177.692
183.12
188.211
192.585
0.23912
0.238266
0.23752
0.237005
0.236957
0.23872
0.279113
0.800171
3.46329
10.7725
17.0237
45.5107
71.1235
84.7196
93.9472
99.6804
107.971
117.928
128.306
138.06
146.628
153.8
159.576
164.295
168.05
171.122
173.651
175.885
177.865
179.556
0.239113
0.238258
0.237522
0.237048
0.237088
0.23909
0.283763
0.872202
3.96559
12.2824
27.083
45.1427
61.7622
75.5496
87.2147
99.003
111.664
124.573
136.658
146.943
154.989
160.833
164.702
167.071
168.236
168.53
168.186
167.555
166.788
166.067
0.239106
0.238249
0.237522
0.237094
0.237203
0.239421
0.287222
0.927407
4.32135
13.1616
27.0285
41.6063
55.9449
69.8677
83.8736
98.7595
114.463
129.796
143.335
153.901
161.143
165.403
167.306
167.419
166.149
163.895
161.017
157.875
154.809
152.057
0.239099
0.238238
0.237521
0.237139
0.237309
0.239654
0.288559
0.954086
4.51024
13.5162
26.3839
39.4618
52.7623
66.5182
81.5336
98.3891
116.477
133.878
148.573
159.099
165.28
167.818
167.677
165.658
162.121
157.606
152.574
147.347
142.449
138.057
0.239092
0.238228
0.237522
0.237182
0.237402
0.239716
0.2867
0.941847
4.50415
13.4378
25.5533
37.7758
50.309
63.805
79.2827
97.5957
117.779
137.057
152.611
162.811
167.724
168.526
166.489
162.469
156.937
150.488
143.671
136.826
130.553
124.872
0.239086
0.238219
0.237522
0.237216
0.237468
0.239612
0.281325
0.88639
4.30221
12.9772
24.4826
36.0008
47.9416
61.05
76.8034
96.4718
118.578
139.408
155.608
165.323
168.926
168.121
164.475
158.689
151.527
143.543
135.364
127.306
120.056
113.375
0.239087
0.238223
0.237535
0.237256
0.237531
0.239395
0.27307
0.792422
3.93322
12.2334
23.2441
34.1687
45.6078
58.1855
74.3125
95.3525
119.27
141.417
157.771
166.893
169.335
167.287
162.376
155.315
146.94
137.88
128.736
119.814
111.859
104.35
0.239077
0.238209
0.237524
0.237263
0.237546
0.239112
0.263835
0.681266
3.50476
11.4761
22.1076
32.6469
43.7069
55.786
72.0768
94.0572
119.406
142.47
158.865
167.463
169.234
166.615
161.003
153.293
144.276
134.622
124.887
115.342
106.823
98.5091
0.23907
0.238194
0.237469
0.237013
0.236977
0.237357
0.242233
0.391295
2.11495
9.41236
27.8371
60.5125
99.3465
133.903
164.857
193.246
218.73
241.467
261.686
280.005
297.01
313.286
329.364
345.684
362.54
380.037
398.147
416.272
433.497
446.3
0.239073
0.238199
0.237474
0.237015
0.236979
0.237479
0.247801
0.531597
3.03186
11.8268
31.6875
64.3159
101.506
134.784
165.201
192.94
217.75
239.838
259.438
277.223
293.792
309.748
325.637
341.9
358.829
376.541
394.924
413.368
430.959
444.106
0.239079
0.23821
0.237488
0.23703
0.237001
0.237711
0.25659
0.703378
3.98265
14.3243
35.8237
68.0356
102.192
133.637
162.795
189.193
212.671
233.461
251.858
268.588
284.275
299.551
314.975
330.991
347.885
365.795
384.427
403.293
421.372
435.054
0.239088
0.238226
0.237507
0.237051
0.237033
0.238081
0.269255
0.89482
4.90435
16.6705
39.519
70.6278
101.658
131.144
158.38
182.772
204.289
223.161
239.851
255.093
269.559
283.911
298.718
314.401
331.263
349.314
368.208
387.519
406.105
420.381
0.239098
0.238244
0.23753
0.237072
0.237067
0.238638
0.286582
1.1069
5.8013
18.8101
42.6276
72.2363
101.155
128.282
152.946
174.655
193.572
209.956
224.492
237.921
250.965
264.298
278.466
293.9
310.726
328.859
348.011
367.67
386.646
401.419
0.239109
0.238265
0.237555
0.237095
0.237106
0.239463
0.30923
1.33476
6.66168
20.7611
45.6391
74.7629
101.842
126.653
147.976
166.118
181.616
194.984
207.007
218.455
230.067
242.478
256.167
271.445
288.303
306.481
325.759
345.538
364.624
379.641
0.239119
0.238284
0.237578
0.237115
0.237151
0.240619
0.33692
1.56385
7.43034
22.5558
49.8964
81.562
108.122
129.989
145.865
158.711
169.63
179.353
188.665
198.251
208.729
220.571
234.131
249.414
266.268
284.383
303.46
322.941
341.68
356.535
0.239129
0.238301
0.237599
0.237134
0.237205
0.242129
0.368226
1.77208
8.01498
24.0248
41.5772
85.2702
115.487
135.928
150.052
153.412
158.033
163.793
170.805
179.264
189.352
201.275
214.999
230.343
246.975
264.628
282.951
301.499
319.255
333.427
0.239136
0.238316
0.237615
0.237151
0.237275
0.243987
0.402307
1.95637
8.45687
26.1192
47.2151
111.837
151.614
168.082
151.515
145.644
145.325
149.089
155.652
164.499
175.304
187.805
201.667
216.602
232.399
248.795
265.549
282.363
298.397
311.293
0.239142
0.238325
0.237628
0.237171
0.237356
0.245768
0.437704
2.12804
8.61329
18.5293
54.264
171.025
203.082
190.183
137.863
132.468
133.722
139.48
148.036
158.396
170.046
182.63
195.836
209.526
223.531
237.735
252.04
266.292
279.845
290.827
0.239144
0.23833
0.237638
0.237195
0.23748
0.247896
0.473825
2.32752
8.96093
18.2656
55.3303
180.041
143.62
120.985
132.069
129.6
133.535
141.406
151.228
162.066
173.406
184.95
196.486
207.983
219.318
230.564
241.736
252.812
263.336
271.952
0.239142
0.238329
0.237645
0.237233
0.23764
0.250287
0.508043
2.5604
9.64264
25.1213
40.6353
126.288
156.315
167.65
131.376
132.669
139.169
148.681
159.378
170.32
180.925
190.958
200.29
209.075
217.369
225.337
233.081
240.734
248.023
254.087
0.239138
0.238325
0.23765
0.237274
0.23778
0.251925
0.538543
2.81294
10.526
25.7183
37.9318
74.1595
100.62
114.89
123.229
132.058
143.329
155.727
168.001
179.23
188.997
197.273
204.24
210.127
215.287
219.93
224.303
228.614
232.767
236.339
0.239133
0.238318
0.237654
0.237325
0.237916
0.253219
0.564646
3.05169
11.3628
26.6681
45.8663
66.2615
84.9308
101.293
115.934
130.925
146.61
161.929
175.701
187.024
195.687
201.986
206.438
209.524
211.621
213.066
214.266
215.471
216.787
218.087
0.239127
0.238311
0.237659
0.237382
0.238047
0.254021
0.582409
3.23307
11.9416
26.9578
43.8349
60.8263
77.8059
94.5455
111.865
130.377
149.379
167.16
182.082
193.112
200.32
204.439
206.287
206.643
205.859
204.39
202.696
201.129
199.974
199.304
0.23912
0.238301
0.237662
0.237435
0.238148
0.253989
0.586058
3.31983
12.2267
26.7724
42.3172
57.9073
73.8898
90.254
108.797
129.69
151.422
171.276
187.014
197.389
202.848
204.668
204.056
201.743
198.312
194.218
190.012
186.061
182.824
180.487
0.239113
0.238293
0.237666
0.237484
0.238203
0.252947
0.570647
3.28109
12.185
26.2781
40.8938
55.6379
70.7247
86.86
106.324
129.281
153.361
174.799
190.642
200.05
203.605
203.178
200.281
195.594
189.795
183.455
177.068
171.129
166.213
162.484
0.239109
0.238289
0.237673
0.237526
0.238216
0.250863
0.533971
3.10006
11.8045
25.4435
39.3269
53.3507
67.6656
83.6371
104.048
129.16
155.485
178.058
193.495
201.449
203.142
200.74
195.847
189.189
181.435
173.218
165.07
157.475
151.214
146.335
0.239103
0.238281
0.237671
0.237547
0.238175
0.247979
0.4787
2.78594
11.1289
24.3204
37.5887
50.9714
64.5098
80.3691
101.917
129.345
157.793
180.936
195.535
202.007
202.105
198.258
191.834
183.705
174.519
164.843
155.329
146.404
139.067
133.234
0.239103
0.23828
0.237677
0.237572
0.238142
0.245037
0.416322
2.41388
10.3653
23.1353
35.944
48.9227
61.8407
77.54
100.206
129.68
159.562
182.695
196.418
201.891
201.057
196.48
189.287
180.379
170.381
159.8
149.347
139.439
131.27
124.669
0.23907
0.238195
0.237472
0.237022
0.237009
0.23789
0.264762
0.852152
4.99793
18.3372
45.7375
85.1483
124.939
160.441
193.85
224.635
252.459
277.505
300.035
320.646
339.978
358.638
377.164
395.985
415.359
435.333
455.728
475.969
494.786
508.191
0.239074
0.238202
0.23748
0.237029
0.237031
0.238639
0.29527
1.27674
6.71481
21.7526
49.9679
88.3827
126.651
161.535
194.38
224.487
251.599
275.957
297.857
317.944
336.883
355.3
373.746
392.644
412.239
432.55
453.368
474.112
493.351
507.145
0.239081
0.238215
0.237497
0.237049
0.237087
0.239934
0.339173
1.75791
8.50281
25.3435
54.3827
90.869
126.561
160.332
191.922
220.639
246.336
269.334
290.002
309.038
327.15
344.996
363.137
381.989
401.767
422.457
443.818
465.172
485.032
499.452
0.23909
0.238232
0.237519
0.237076
0.237172
0.242062
0.398785
2.27915
10.2504
28.6475
58.0191
92.1127
125.504
157.581
187.228
213.882
237.539
258.6
277.5
295.071
312.05
329.122
346.844
365.599
385.549
406.627
428.551
450.492
471.002
486.1
0.239101
0.238253
0.237546
0.237106
0.237295
0.245497
0.478951
2.85209
11.9641
31.5696
60.7501
92.7876
124.295
154.18
181.276
205.233
226.277
244.85
261.619
277.463
293.163
309.407
326.716
345.388
365.507
386.939
409.261
431.627
452.612
468.246
0.239113
0.238274
0.237574
0.23714
0.237475
0.250787
0.581092
3.46727
13.6273
34.186
63.2129
94.1166
124.061
151.502
175.414
195.976
213.797
229.455
243.869
257.918
272.394
287.933
304.946
323.593
343.835
365.452
387.846
410.302
431.372
447.221
0.239125
0.238296
0.237602
0.237175
0.237733
0.258384
0.702101
4.09612
15.1916
36.6519
66.5827
98.1851
127.107
151.831
171.38
187.505
201.398
213.872
225.937
238.402
251.957
267.071
283.965
302.597
322.8
344.194
366.17
388.166
408.761
424.359
0.239136
0.238318
0.237628
0.237215
0.238078
0.268108
0.834965
4.69758
16.5556
39.1292
72.6194
108.747
137.503
158.757
170.764
180.702
190.051
199.512
209.738
221.216
234.401
249.363
266.217
284.675
304.363
324.867
345.764
366.566
386.004
400.812
0.239144
0.238337
0.237653
0.237257
0.238516
0.279729
0.974136
5.25085
17.7026
41.1649
65.0658
115.071
147.936
166.612
171.082
174.554
180.283
187.945
197.501
209.008
222.312
237.188
253.693
271.325
289.7
308.489
327.484
346.309
363.897
377.387
0.239151
0.238349
0.237675
0.237302
0.238972
0.291756
1.11526
5.78357
18.679
42.4419
67.8766
127.642
158.896
171.423
166.301
168.183
173.52
181.627
191.95
203.995
217.352
231.751
247.146
263.005
279.121
295.413
311.757
327.907
343.005
354.659
0.239154
0.238357
0.237691
0.237354
0.239491
0.304336
1.2526
6.31369
19.5329
42.5565
65.9526
122.452
151.828
163.46
161.827
165.483
172.601
182.224
193.522
205.77
218.646
231.807
245.165
258.445
271.713
284.865
297.977
310.949
323.125
332.605
0.239154
0.23836
0.237704
0.237416
0.240062
0.316592
1.38092
6.86942
20.5031
42.4413
62.2883
109.316
138.835
153.613
157.257
164.85
175.025
186.718
199.038
211.329
223.262
234.639
245.415
255.678
265.63
275.317
284.987
294.576
303.673
310.853
0.239151
0.238357
0.237715
0.237485
0.240478
0.325872
1.49883
7.45539
21.6511
42.425
67.8805
95.3421
118.526
136.74
150.125
163.624
177.916
192.207
205.774
217.954
228.55
237.692
245.633
252.68
259.156
265.351
271.542
277.793
283.918
288.86
0.239147
0.238351
0.237726
0.237554
0.240777
0.332538
1.59747
7.98093
22.6651
42.3093
63.7966
86.0014
107.056
126.312
144.587
162.808
180.93
197.738
212.263
223.881
232.703
239.281
244.215
248.043
251.169
253.995
256.866
260.019
263.385
266.274
0.23914
0.238346
0.237736
0.237622
0.240935
0.335542
1.66113
8.36024
23.2854
42.1067
61.5642
81.4244
100.787
120.148
140.784
162.394
183.685
202.604
217.667
228.239
234.893
238.701
240.638
241.327
241.271
240.993
240.839
241.177
242.096
243.187
0.239134
0.238338
0.237744
0.237682
0.240909
0.33363
1.6731
8.54451
23.5426
41.7013
60.098
78.6027
96.6886
115.972
138.24
162.571
186.416
206.753
221.607
230.722
234.968
235.975
235.043
232.806
229.855
226.71
223.9
221.748
220.574
220.119
0.239128
0.238331
0.237751
0.237731
0.240679
0.325866
1.61814
8.47899
23.3933
40.982
58.603
76.1407
93.341
112.796
136.906
164
189.993
210.84
224.515
231.548
233.283
231.664
228.113
223.273
217.762
212.103
206.933
202.647
199.721
197.967
0.239122
0.238323
0.237754
0.237759
0.240252
0.312269
1.48772
8.13198
22.8379
39.8718
56.7886
73.4797
90.017
110.148
136.562
166.629
194.444
214.956
226.654
231.17
230.525
226.693
220.899
213.876
206.202
198.429
191.216
185.124
180.758
177.957
0.239124
0.238329
0.237772
0.237791
0.23973
0.294374
1.28711
7.52013
21.919
38.4051
54.6566
70.477
86.5599
107.798
136.728
169.689
198.724
218.259
227.851
230.09
227.57
222.094
214.667
206.008
196.665
187.203
178.348
170.778
165.305
161.705
0.239114
0.238316
0.237762
0.237788
0.239195
0.275809
1.05702
6.80146
20.7992
36.7811
52.5842
67.6766
83.4972
105.807
136.761
171.719
201.189
219.728
227.905
228.87
225.354
219.044
210.764
201.19
190.842
180.286
170.327
161.711
155.514
151.385
0.239072
0.238198
0.237476
0.237025
0.237064
0.240144
0.348673
1.90793
9.69187
30.006
64.5669
107.028
147.567
185.634
221.479
254.414
284.235
311.202
335.627
358.147
379.436
400.123
420.75
441.725
463.274
485.382
507.778
529.758
549.823
563.746
0.239076
0.238204
0.237482
0.237032
0.237144
0.243643
0.454005
2.78145
12.2677
34.07
68.7034
109.861
149.442
187.007
222.204
254.401
283.463
309.715
333.509
355.537
376.499
397.044
417.719
438.92
460.842
483.436
506.38
528.932
549.53
563.868
0.239083
0.238218
0.237501
0.237058
0.237314
0.249606
0.593467
3.73981
14.9774
38.3452
72.7133
111.524
149.517
185.928
219.746
250.457
278.029
302.877
325.433
346.457
366.697
386.83
407.403
428.788
451.134
474.332
497.996
521.336
542.709
557.721
0.239093
0.238237
0.237527
0.237095
0.237604
0.259475
0.775868
4.77136
17.611
42.1425
75.6378
112.198
148.5
183.066
214.834
243.397
268.852
291.724
312.572
332.223
351.487
371.056
391.46
413.016
435.795
459.61
484.003
508.146
530.27
546.002
0.239104
0.23826
0.237558
0.237143
0.238084
0.275212
1.01315
5.90001
20.1592
45.384
77.8653
112.574
146.959
179.222
208.398
234.259
257.133
277.599
296.397
314.486
332.687
351.681
371.93
393.653
416.808
441.106
466.037
490.745
513.351
529.62
0.239117
0.238284
0.237592
0.237203
0.238856
0.298702
1.30434
7.10234
22.5954
48.097
79.822
113.251
145.736
175.478
201.631
224.318
244.228
262.003
278.671
295.223
312.464
330.997
351.156
372.998
396.343
420.817
445.882
470.635
493.252
509.679
0.239131
0.238309
0.237626
0.237275
0.240026
0.330861
1.63845
8.32981
24.8842
50.6458
82.1256
115.078
146.015
173.172
195.834
214.901
231.52
246.641
261.364
276.642
293.192
311.445
331.529
353.302
376.457
400.575
425.138
449.226
471.232
487.304
0.239144
0.238335
0.23766
0.237363
0.241657
0.37128
1.9976
9.5206
26.9905
53.1802
85.3075
119.053
148.923
173.425
191.9
207.026
220.45
233.292
246.567
261.045
277.223
295.373
315.161
336.385
358.717
381.742
404.955
427.592
448.284
463.456
0.239154
0.238357
0.237695
0.237467
0.243739
0.418418
2.36842
10.6525
28.8694
55.4094
89.0102
124.48
153.332
175.123
189.246
200.927
211.977
223.488
236.167
250.428
266.521
284.226
303.201
323.166
343.885
364.913
385.897
406.32
425.033
438.815
0.239161
0.238373
0.237727
0.237576
0.245887
0.468353
2.73754
11.7392
30.5201
57.0118
90.3792
126.189
153.866
173.765
186.02
196.472
207.053
218.628
231.532
245.905
261.594
278.252
295.652
313.534
331.716
349.917
368.01
385.695
401.919
413.892
0.239165
0.238384
0.237753
0.2377
0.248288
0.517723
3.09161
12.7754
31.9395
57.935
89.7589
123.938
150.79
170.535
183.269
194.604
206.28
218.829
232.266
246.49
261.178
276.227
291.298
306.27
321.24
336.133
350.949
365.47
378.864
388.788
0.239167
0.23839
0.237776
0.237842
0.250972
0.562776
3.42127
13.7817
33.2311
58.3498
87.7473
118.707
144.767
165.534
180.522
194.316
208.173
222.235
236.261
249.97
263.219
275.968
288.139
299.781
311.202
322.522
333.841
345.071
355.552
363.362
0.239165
0.238391
0.237796
0.237969
0.252735
0.599
3.71881
14.7635
34.4457
58.4394
84.8038
111.908
136.715
158.446
176.989
194.358
211.172
226.997
241.485
254.356
265.623
275.547
284.472
292.628
300.416
308.112
315.94
323.92
331.58
337.366
0.239161
0.238387
0.237816
0.238072
0.253804
0.624039
3.96238
15.6258
35.5114
58.482
82.8432
107.217
130.325
152.386
173.961
194.802
214.512
231.968
246.526
258.003
266.787
273.594
279.1
283.747
288.015
292.254
296.794
301.731
306.784
310.708
0.239154
0.238383
0.237832
0.23815
0.254004
0.633876
4.11704
16.2388
36.2346
58.5508
81.6631
104.276
125.851
148.208
171.934
195.658
217.815
236.379
250.4
259.992
265.933
269.489
271.631
272.921
273.88
274.915
276.441
278.644
281.365
283.642
0.239149
0.238378
0.237846
0.238196
0.253223
0.624499
4.15093
16.5531
36.569
58.4109
80.6072
101.955
122.532
145.734
171.725
198.172
222.032
240.636
252.976
260.004
262.948
263.341
262.354
260.551
258.478
256.633
255.445
255.212
255.931
256.792
0.239143
0.238372
0.237857
0.238206
0.251436
0.59308
4.03187
16.4859
36.4185
57.7774
79.1911
99.4339
119.686
144.271
172.921
202.134
227.116
244.697
254.507
258.35
258.286
255.839
252.05
247.517
242.777
238.349
234.79
232.426
231.471
231.163
0.23914
0.23837
0.237871
0.238184
0.248812
0.539763
3.7395
16.0069
35.7525
56.5611
77.2111
96.5375
116.996
143.379
175.079
206.887
232.21
247.88
254.732
255.561
252.821
248.014
241.909
235.092
228.082
221.444
215.827
211.691
209.383
208.169
0.239133
0.238361
0.23787
0.238122
0.245693
0.469019
3.28126
15.1422
34.6037
54.8079
74.6922
93.2466
114.313
142.768
177.567
211.413
236.248
249.655
253.86
252.371
247.724
241.199
233.396
224.846
216.059
207.651
200.396
194.882
191.571
189.752
0.239133
0.238362
0.237878
0.23808
0.24288
0.395126