/*--------------------------------*- C++ -*----------------------------------*\
| =========                 |                                                 |
| \\      /  F ield         | OpenFOAM: The Open Source CFD Toolbox           |
|  \\    /   O peration     | Version:  2512                                  |
|   \\  /    A nd           | Website:  www.openfoam.com                      |
|    \\/     M anipulation  |                                                 |
\*---------------------------------------------------------------------------*/
FoamFile
{
    version     2.0;
    format      ascii;
    arch        "LSB;label=32;scalar=64";
    class       volScalarField;
    location    "140";
    object      nut;
}
// * * * * * * * * * * * * * * * * * * * * * * * * * * * * * * * * * * * * * //

dimensions      [0 2 -1 0 0 0 0];

internalField   nonuniform List<scalar> 
90398
(
0.0144202
0.0141799
0.0139539
0.0137409
0.0135434
0.0133612
0.0131903
0.0130527
0.0127738
0.0131568
0.024202
0.0490892
0.0881327
0.131281
0.166895
0.193981
0.214403
0.229899
0.241962
0.251592
0.259543
0.266419
0.272693
0.278751
0.284886
0.291333
0.298226
0.305636
0.313687
0.323236
0.0144203
0.0141802
0.0139544
0.0137416
0.0135444
0.0133627
0.0131932
0.0130555
0.0127983
0.0150448
0.0293421
0.0572705
0.0951314
0.134745
0.16755
0.193006
0.212518
0.227462
0.23915
0.248493
0.256204
0.262863
0.268937
0.274807
0.280778
0.287069
0.293835
0.301136
0.309126
0.318558
0.0144205
0.0141808
0.0139555
0.0137431
0.0135469
0.0133663
0.0131998
0.0130597
0.012689
0.0161489
0.0332081
0.0630743
0.100741
0.136817
0.166592
0.189994
0.208146
0.222173
0.233192
0.242004
0.249277
0.25557
0.261332
0.266952
0.272724
0.278862
0.285525
0.292767
0.300719
0.310032
0.0144207
0.0141815
0.0139564
0.0137453
0.0135503
0.0133712
0.0132043
0.0130609
0.0124673
0.0169366
0.0357925
0.0677666
0.104513
0.137224
0.164032
0.185194
0.201671
0.214432
0.224456
0.232469
0.239099
0.244882
0.250252
0.255598
0.261191
0.267238
0.273883
0.281161
0.289148
0.298365
0.0144208
0.0141821
0.0139573
0.0137477
0.0135543
0.013378
0.0132111
0.0130665
0.0121292
0.0173142
0.0372855
0.0716669
0.106382
0.136064
0.160198
0.178998
0.193466
0.204566
0.213231
0.220145
0.225914
0.23105
0.23598
0.241059
0.246541
0.252604
0.259355
0.266793
0.274912
0.284072
0.0144212
0.0141826
0.0139584
0.0137493
0.0135564
0.0133856
0.0132319
0.0130755
0.0116424
0.0171817
0.0377322
0.074303
0.10759
0.134981
0.156272
0.172206
0.184077
0.192976
0.199832
0.205307
0.209985
0.214365
0.218842
0.223721
0.229221
0.235464
0.242486
0.250229
0.258579
0.267725
0.0144216
0.0141836
0.01396
0.0137519
0.0135586
0.0133889
0.0132391
0.0130826
0.0109892
0.0140525
0.0362131
0.0789814
0.113272
0.138851
0.155681
0.167028
0.174852
0.180463
0.184733
0.188242
0.191543
0.195067
0.199146
0.204013
0.209785
0.216461
0.223964
0.232153
0.240801
0.249936
0.0144218
0.0141848
0.0139646
0.0137615
0.0135655
0.0133874
0.0132397
0.0130897
0.0103193
0.00397514
0.00411047
0.0210572
0.0403946
0.0532472
0.171558
0.171155
0.170385
0.169853
0.169721
0.170291
0.171992
0.174877
0.17899
0.184312
0.190755
0.198167
0.206294
0.214899
0.223611
0.232138
0.0144219
0.0141852
0.0139666
0.0137679
0.0135763
0.013391
0.0132323
0.0130763
0.00599313
0.0031072
0.00467358
0.0333337
0.0571855
0.0674784
0.180143
0.168252
0.159722
0.154058
0.150883
0.150091
0.151608
0.155225
0.160607
0.167353
0.175072
0.183421
0.192118
0.200916
0.209483
0.217534
0.0144219
0.014185
0.0139641
0.0137633
0.0135765
0.0133917
0.0132245
0.0130674
0.0064475
0.00157703
0.00569538
0.0310502
0.0312459
0.0278289
0.136888
0.130359
0.12564
0.123554
0.124634
0.128665
0.13493
0.142583
0.150905
0.159415
0.16786
0.17614
0.184202
0.191992
0.199334
0.206036
0.014422
0.014185
0.0139642
0.0137633
0.0135762
0.013391
0.013223
0.0130692
0.0064422
0.00147948
0.0457762
0.027046
0.0216844
0.135409
0.130682
0.129651
0.131264
0.135028
0.140302
0.14657
0.153471
0.160367
0.166937
0.173076
0.178775
0.184095
0.189159
0.193901
0.19816
0.0144219
0.0141853
0.0139667
0.0137678
0.0135757
0.0133895
0.0132291
0.0130814
0.00644086
0.00444949
0.00338014
0.0219124
0.0257266
0.0285437
0.156738
0.151472
0.149374
0.150349
0.153567
0.158116
0.163184
0.168312
0.173264
0.17768
0.181485
0.184691
0.187372
0.18962
0.191527
0.193009
0.0144219
0.014185
0.0139647
0.0137614
0.0135649
0.0133858
0.0132366
0.0131042
0.0132026
0.00655767
0.00438692
0.0098949
0.0260804
0.0370096
0.134865
0.141489
0.147812
0.154609
0.161632
0.168362
0.174358
0.179252
0.18315
0.186074
0.188082
0.189267
0.189754
0.189674
0.189166
0.188219
0.0144218
0.0141838
0.0139602
0.0137518
0.0135579
0.0133879
0.0132366
0.01311
0.0135576
0.0175395
0.032131
0.0605847
0.0890479
0.110413
0.126075
0.138526
0.149447
0.159609
0.168935
0.176946
0.183286
0.187801
0.190546
0.191889
0.192203
0.191566
0.190121
0.188029
0.185473
0.182468
0.0144214
0.0141829
0.0139587
0.0137493
0.0135561
0.0133854
0.0132311
0.0131179
0.0138226
0.0199714
0.0392668
0.0672361
0.0902359
0.109012
0.124808
0.138734
0.151719
0.163897
0.174792
0.183633
0.189986
0.193851
0.195469
0.195217
0.193937
0.191649
0.188495
0.18467
0.180408
0.175668
0.014421
0.0141825
0.0139577
0.0137479
0.0135543
0.0133779
0.0132121
0.0131216
0.0139794
0.0211724
0.0422025
0.0680994
0.0893591
0.107149
0.123139
0.138252
0.153041
0.167068
0.179334
0.188751
0.194873
0.197883
0.198251
0.196533
0.193777
0.190002
0.185377
0.180095
0.174451
0.168362
0.0144209
0.0141819
0.0139568
0.0137455
0.0135505
0.0133715
0.0132071
0.0131235
0.0140143
0.0214168
0.0427734
0.0669969
0.0873022
0.104865
0.1211
0.137304
0.153806
0.169545
0.182941
0.192648
0.198289
0.200306
0.19938
0.196385
0.19232
0.187243
0.181379
0.174934
0.168238
0.161172
0.0144208
0.0141813
0.0139559
0.0137432
0.0135472
0.0133669
0.013204
0.0131234
0.0139409
0.0209362
0.041598
0.0650341
0.0847609
0.102058
0.118637
0.136003
0.154189
0.171473
0.185747
0.195495
0.200497
0.201476
0.199342
0.195309
0.190153
0.184009
0.177164
0.169856
0.162428
0.154939
0.0144207
0.014181
0.0139551
0.013742
0.0135452
0.0133641
0.0131989
0.0131153
0.0137885
0.0199522
0.0394237
0.0623861
0.0816886
0.098814
0.115832
0.134339
0.154081
0.172771
0.187725
0.19736
0.201695
0.201737
0.198561
0.193819
0.187855
0.180937
0.17341
0.165532
0.157647
0.150029
0.0144204
0.0141802
0.0139538
0.0137401
0.0135432
0.013362
0.0131961
0.013105
0.0134272
0.0187382
0.0368621
0.0596616
0.0787145
0.0957816
0.112962
0.131933
0.152778
0.17273
0.18843
0.198041
0.201925
0.20134
0.197685
0.192582
0.186177
0.178842
0.170958
0.16278
0.154691
0.147061
0.123198
0.11429
0.107271
0.101614
0.0969993
0.0931794
0.0900851
0.0760278
0.0818011
0.256639
0.711281
1.1267
1.58488
1.94471
2.04721
2.09083
2.11756
2.13639
2.15213
2.16705
2.18318
2.2025
2.22675
2.25713
2.29483
2.33827
2.38816
2.44161
2.49853
2.54787
0.123198
0.11429
0.107273
0.101618
0.0970007
0.093182
0.0899329
0.0755136
0.0950907
0.347446
0.906582
1.35607
1.70083
1.93591
2.02126
2.0631
2.08959
2.1078
2.1225
2.13634
2.15147
2.16997
2.19358
2.22404
2.26125
2.30528
2.35574
2.41
2.46772
2.51782
0.1232
0.114293
0.107281
0.10163
0.0970103
0.0931973
0.0888794
0.0743139
0.107144
0.398462
0.979661
1.42377
1.73845
1.90471
1.97439
2.0113
2.0341
2.04931
2.06109
2.07222
2.08517
2.10213
2.12522
2.15541
2.19294
2.2385
2.29064
2.34684
2.4063
2.45787
0.123202
0.114297
0.10729
0.101643
0.0970251
0.0932192
0.0877197
0.0729055
0.115071
0.411578
0.986105
1.48916
1.76023
1.86531
1.91516
1.9414
1.95578
1.96431
1.97048
1.97724
1.9872
2.00253
2.02578
2.05641
2.09642
2.14488
2.2003
2.25989
2.32214
2.37578
0.123203
0.114301
0.107298
0.101658
0.0970747
0.0932441
0.0866053
0.0712561
0.117254
0.395618
0.953475
1.54606
1.74295
1.81346
1.84149
1.85101
1.85196
1.85035
1.84897
1.85069
1.85795
1.87325
1.89753
1.93185
1.97653
2.03021
2.091
2.15558
2.22157
2.27762
0.123201
0.114303
0.107306
0.101673
0.097111
0.0932736
0.0861116
0.0696863
0.112127
0.358064
0.890326
1.61193
1.73033
1.75623
1.74729
1.72987
1.7119
1.69795
1.68918
1.68743
1.69509
1.71343
1.74309
1.78535
1.83864
1.9009
1.96945
2.04044
2.11068
2.16903
0.123208
0.114305
0.107317
0.101696
0.0971283
0.0933224
0.0869817
0.0675829
0.0996482
0.282922
0.739595
1.59124
1.73054
1.6889
1.6029
1.54501
1.5069
1.48381
1.47332
1.47433
1.489
1.51799
1.56205
1.61967
1.68776
1.76264
1.84093
1.91875
1.99266
2.05272
0.12322
0.114321
0.107316
0.101698
0.0971623
0.0933724
0.0906698
0.065913
0.0734857
0.0737121
0.274205
0.875494
1.40419
1.31725
1.2944
1.22301
1.18776
1.17429
1.17599
1.19515
1.23225
1.28668
1.35538
1.43446
1.52
1.60783
1.6938
1.77526
1.85058
1.91632
0.123223
0.114337
0.107341
0.101693
0.0971633
0.0934021
0.0907093
0.0657711
0.0362082
0.0273429
0.425424
0.773539
0.846165
0.847256
0.751061
0.761507
0.773898
0.793357
0.835548
0.902056
0.989098
1.08928
1.19484
1.29965
1.39956
1.49212
1.57621
1.65069
1.71498
1.76638
0.123224
0.11434
0.10737
0.101751
0.0972144
0.0934717
0.0909239
0.072704
0.0297491
0.00917977
0.137344
0.165953
0.149051
0.193368
0.331193
0.392694
0.457824
0.545238
0.655912
0.784616
0.92057
1.05162
1.17019
1.27369
1.36255
1.43825
1.50263
1.55716
1.60123
1.63301
0.123224
0.114343
0.107378
0.101771
0.0972589
0.0935513
0.0911899
0.085094
0.0305269
0.00571959
0.0101035
0.353924
0.445981
0.545707
0.662985
0.796527
0.936319
1.06771
1.17649
1.26247
1.32968
1.38249
1.42421
1.45718
1.48379
1.50267
1.51342
0.123224
0.114346
0.107367
0.101753
0.0972811
0.0936174
0.0914739
0.0856506
0.045763
0.0156453
0.137422
0.157317
0.182855
0.253366
0.67266
0.750303
0.847958
0.963327
1.08073
1.18681
1.27336
1.33783
1.37913
1.40535
1.42056
1.42759
1.42847
1.42573
1.41833
1.40746
0.123222
0.114335
0.107359
0.101797
0.0973607
0.0937485
0.0920591
0.0782735
0.0971333
0.0719522
0.157538
0.355514
0.919488
0.939859
1.20167
1.20004
1.24049
1.30012
1.35991
1.40935
1.44357
1.46483
1.46916
1.46312
1.44803
1.42573
1.39903
1.37077
1.34017
1.31004
0.123212
0.114325
0.107377
0.101837
0.0974053
0.0938957
0.0800474
0.0716555
0.128805
0.277074
0.59561
1.23419
1.5543
1.51539
1.46057
1.44795
1.46545
1.49597
1.52386
1.54029
1.54325
1.53416
1.51662
1.49012
1.45221
1.40709
1.3584
1.30978
1.26124
1.21553
0.123205
0.114329
0.107382
0.101852
0.0974565
0.0941511
0.0715653
0.0668612
0.140196
0.340059
0.792585
1.45589
1.49272
1.50144
1.50751
1.52799
1.55976
1.59149
1.61044
1.61087
1.59444
1.56536
1.52817
1.48709
1.43141
1.36829
1.30296
1.23961
1.17857
1.1218
0.123208
0.114332
0.10739
0.101873
0.0974898
0.0909659
0.0658205
0.0626673
0.140622
0.366215
0.88634
1.39843
1.44439
1.47448
1.50893
1.55484
1.60451
1.64354
1.65967
1.64945
1.61753
1.572
1.51876
1.46324
1.39211
1.31425
1.23646
1.16335
1.09477
1.03107
0.123208
0.114332
0.107395
0.101891
0.0975042
0.0860685
0.061925
0.0589717
0.13498
0.363397
0.90975
1.36433
1.41152
1.45029
1.49928
1.56357
1.62904
1.67532
1.68909
1.66911
1.62359
1.56337
1.49694
1.42604
1.34085
1.25193
1.1658
1.08669
1.01448
0.946791
0.123207
0.114333
0.107398
0.101904
0.0975459
0.0827318
0.0592886
0.0555012
0.125245
0.343398
0.883493
1.337
1.38401
1.42616
1.48525
1.56525
1.64439
1.69586
1.70644
1.6771
1.6193
1.54689
1.46982
1.38346
1.28605
1.18907
1.0983
1.01651
0.943258
0.873583
0.123205
0.114332
0.107397
0.101909
0.0975739
0.0806365
0.0575856
0.0522603
0.112318
0.311128
0.828416
1.31668
1.36161
1.40326
1.47056
1.56309
1.65326
1.71051
1.71692
1.67876
1.61068
1.52895
1.44521
1.34327
1.23642
1.13421
1.04136
0.959161
0.886491
0.815787
0.123206
0.114333
0.1074
0.101919
0.0976007
0.0789605
0.0563982
0.0493292
0.0960906
0.266257
0.755778
1.30641
1.34758
1.38698
1.4488
1.53781
1.63784
1.70751
1.71999
1.67731
1.60333
1.51662
1.42396
1.31341
1.20209
1.09772
1.00464
0.92271
0.850835
0.778621
0.134475
0.133916
0.13323
0.132485
0.131751
0.113217
0.0910174
0.0813308
0.184393
0.626456
1.09548
1.66644
2.68182
4.32052
5.03321
5.01385
4.99058
4.96641
4.94634
4.9355
4.93657
4.95269
4.98631
5.03871
5.10885
5.19809
5.29759
5.40408
5.5101
5.58955
0.134476
0.133918
0.133232
0.132487
0.131752
0.113436
0.0906527
0.0870609
0.256738
0.806817
1.37414
2.05843
3.16126
4.75686
4.94867
4.93585
4.91336
4.88831
4.86709
4.8549
4.85523
4.87147
4.90617
4.95998
5.03437
5.12539
5.22851
5.33849
5.44747
5.52915
0.134478
0.133921
0.133236
0.132491
0.131756
0.11303
0.0895886
0.0941131
0.314567
0.890715
1.52491
2.41206
3.7841
4.79085
4.81222
4.79529
4.76715
4.73425
4.70699
4.69048
4.68856
4.70481
4.74117
4.79958
4.88063
4.97675
5.08716
5.20396
5.31884
5.40494
0.13448
0.133924
0.133241
0.132497
0.131762
0.112718
0.0885764
0.10208
0.353229
0.917587
1.62645
2.74599
4.40429
4.62801
4.62822
4.593
4.54793
4.502
4.46554
4.44357
4.44025
4.45902
4.50077
4.56947
4.6595
4.76761
4.88959
5.01695
5.14049
5.23277
0.134482
0.133929
0.133246
0.132502
0.131772
0.112661
0.087873
0.110247
0.374608
0.913107
1.69876
3.03993
4.38443
4.41849
4.37332
4.30435
4.23443
4.17303
4.12862
4.10524
4.10662
4.13461
4.19222
4.27692
4.38407
4.51065
4.64945
4.791
4.92532
5.02473
0.134484
0.133934
0.133253
0.132508
0.131781
0.113285
0.0879502
0.118275
0.381066
0.885819
1.73144
3.25119
4.17033
4.1016
3.97963
3.86547
3.77317
3.70574
3.66637
3.65669
3.67793
3.73232
3.81974
3.93235
4.06856
4.22083
4.38111
4.53932
4.68499
4.7912
0.134487
0.133937
0.133259
0.132514
0.131788
0.115023
0.0892861
0.125412
0.373872
0.817575
1.63432
3.23561
3.75862
3.55212
3.30705
3.16529
3.0826
3.04433
3.04422
3.08023
3.15267
3.25951
3.39588
3.55509
3.73111
3.91504
4.09837
4.27238
4.42702
4.53795
0.134489
0.133941
0.133262
0.132515
0.131793
0.117925
0.0930204
0.129488
0.338952
0.712297
0.936651
2.38456
2.91709
2.58498
2.20095
2.14996
2.15262
2.20008
2.2892
2.41682
2.57723
2.76388
2.96796
3.18319
3.40044
3.61182
3.81067
3.99131
4.14799
4.26092
0.134491
0.133945
0.133267
0.132518
0.131791
0.121486
0.100732
0.129332
0.137907
0.299108
1.11819
1.86559
1.62204
1.40717
1.04643
1.13534
1.25063
1.40687
1.61083
1.85263
2.12056
2.39593
2.66726
2.925
3.1629
3.37737
3.56691
3.73095
3.86687
3.96144
0.134492
0.133948
0.133272
0.132529
0.131804
0.127201
0.110097
0.141681
0.116573
0.11098
1.46353
0.352948
0.280098
0.268815
0.446842
0.601927
0.792564
1.03993
1.34496
1.6813
2.01935
2.33469
2.6156
2.85924
3.06747
3.24368
3.3916
3.51436
3.61194
3.67554
0.134493
0.133949
0.133274
0.132536
0.131826
0.126264
0.113567
0.158166
0.118763
0.0667991
0.516557
0.1134
0.455641
0.659992
0.926005
1.25394
1.62206
1.98141
2.29866
2.55903
2.76847
2.93536
3.06823
3.17381
3.25763
3.32414
3.37356
3.40186
0.134492
0.133948
0.133274
0.132538
0.13185
0.120836
0.106464
0.165713
0.158302
0.21374
0.72278
0.306207
0.310043
0.372389
1.12294
1.35425
1.64691
1.96595
2.26754
2.52118
2.71946
2.86353
2.96696
3.03953
3.08748
3.1177
3.13493
3.14371
3.14405
3.13797
0.13449
0.133945
0.133274
0.13255
0.131893
0.11154
0.0949455
0.171457
0.363099
0.569268
0.609194
1.04471
2.04638
1.89684
2.29115
2.40021
2.56755
2.74224
2.8898
2.99511
3.06184
3.0967
3.10691
3.09931
3.07567
3.04247
3.00197
2.96041
2.91813
2.88214
0.134489
0.133944
0.133278
0.132568
0.131934
0.10189
0.0853149
0.165643
0.397823
0.737038
1.48263
2.81259
3.43681
3.30619
3.17584
3.1629
3.20526
3.25591
3.28632
3.28598
3.25927
3.2156
3.15995
3.09478
3.01788
2.93429
2.84761
2.76668
2.69121
2.63173
0.134487
0.133942
0.133277
0.132582
0.131972
0.093905
0.0783469
0.159918
0.412651
0.850313
1.88653
3.42534
3.5406
3.53069
3.50156
3.50096
3.51601
3.51853
3.4918
3.43148
3.34509
3.24523
3.14145
3.03354
2.91541
2.79274
2.67142
2.56071
2.462
2.38678
0.134485
0.13394
0.133278
0.132595
0.125266
0.087793
0.0730899
0.152743
0.412295
0.91175
2.12538
3.31277
3.48878
3.54908
3.58199
3.61902
3.64632
3.63857
3.58517
3.48749
3.36014
3.21928
3.07702
2.93427
2.78134
2.6276
2.48101
2.34931
2.23549
2.15084
0.134484
0.133937
0.133279
0.132609
0.11965
0.0832857
0.0686777
0.143245
0.399101
0.920933
2.24139
3.22042
3.41658
3.50705
3.57127
3.63962
3.68893
3.68553
3.61766
3.49334
3.33366
3.1613
2.98951
2.81455
2.63262
2.45427
2.28878
2.14381
2.02099
1.931
0.134482
0.133936
0.13328
0.132619
0.115608
0.080107
0.0648397
0.130978
0.373937
0.890052
2.25755
3.13759
3.34045
3.44062
3.52183
3.61983
3.69162
3.69217
3.61666
3.47359
3.28822
3.09052
2.89592
2.6911
2.48624
2.28969
2.11139
1.95796
1.83032
1.73755
0.134482
0.133936
0.133283
0.132628
0.112972
0.0780138
0.0615908
0.115987
0.336164
0.825516
2.20964
3.06319
3.27079
3.36394
3.46609
3.59831
3.69377
3.69582
3.60677
3.44828
3.24274
3.02674
2.81102
2.58447
2.36176
2.15336
1.96683
1.80824
1.67768
1.58328
0.13448
0.133933
0.133281
0.132631
0.110463
0.0763256
0.0590203
0.0977347
0.282341
0.745548
2.21197
3.01331
3.22368
3.30421
3.31259
3.15081
3.2697
3.51713
3.60706
3.43458
3.21635
2.99206
2.75928
2.51972
2.28657
2.07171
1.88033
1.71805
1.58493
1.48867
0.134742
0.134654
0.13459
0.134577
0.134652
0.112847
0.090788
0.117448
0.443416
1.01245
1.58631
2.60204
4.48725
7.16119
7.39805
7.45234
7.46191
7.45232
7.43679
7.42878
7.43627
7.46539
7.52003
7.60185
7.70973
7.83874
7.98554
8.13524
8.27401
8.36582
0.134743
0.134656
0.134591
0.134578
0.134654
0.112892
0.0916404
0.153458
0.606804
1.2925
1.97502
3.10247
5.01723
7.14609
7.29103
7.34158
7.34599
7.33141
7.31204
7.30203
7.3095
7.34057
7.39899
7.48604
7.59968
7.73666
7.89011
8.04516
8.18932
8.28486
0.134745
0.134659
0.134595
0.134582
0.134661
0.112144
0.0928806
0.191597
0.712423
1.43388
2.26871
3.69146
5.89676
6.96486
7.09339
7.12664
7.11474
7.08734
7.05827
7.04313
7.0499
7.08448
7.15008
7.24714
7.37236
7.52386
7.6886
7.85564
8.00982
8.11271
0.134747
0.134663
0.1346
0.134587
0.134671
0.111376
0.0953439
0.228727
0.773563
1.51026
2.52663
4.2942
6.44124
6.7148
6.80143
6.79915
6.75962
6.7112
6.67071
6.6516
6.66162
6.70584
6.7862
6.90096
7.04798
7.21993
7.40298
7.58763
7.75598
7.86909
0.134749
0.134667
0.134605
0.134593
0.134683
0.111058
0.0994164
0.264245
0.807303
1.55715
2.75642
4.85091
6.195
6.36262
6.37177
6.31516
6.24149
6.17401
6.12889
6.11646
6.14256
6.21021
6.31841
6.46572
6.64469
6.84435
7.05352
7.25988
7.44501
7.56975
0.134752
0.134672
0.134612
0.134599
0.134698
0.111319
0.105363
0.296926
0.822937
1.58361
2.94704
5.31824
5.806
5.81421
5.70365
5.58652
5.49094
5.42805
5.40507
5.42665
5.49521
5.61031
5.76778
5.96384
6.18665
6.42234
6.66212
6.89169
7.09333
7.22892
0.134755
0.134677
0.134618
0.134605
0.134716
0.112308
0.113452
0.325541
0.822028
1.55423
3.00478
5.24322
5.13137
4.92084
4.64478
4.51105
4.45181
4.45047
4.50166
4.60337
4.75332
4.94663
5.17848
5.43757
5.71116
5.98664
6.25453
6.50261
6.71544
6.85779
0.134757
0.134681
0.134623
0.13461
0.134739
0.114287
0.12404
0.348253
0.791588
1.44138
1.94173
4.56158
4.01267
3.59117
3.14299
3.14406
3.21794
3.35031
3.53419
3.76232
4.02674
4.32159
4.63602
4.95818
5.27515
5.57821
5.85928
6.1109
6.32201
6.46272
0.134759
0.134685
0.134627
0.134615
0.134768
0.116606
0.137283
0.368716
0.737705
1.43099
1.60934
3.41351
2.36449
1.98858
1.79061
1.94524
2.16818
2.45293
2.78213
3.14193
3.52092
3.90357
4.27502
4.62576
4.95108
5.2464
5.50944
5.73792
5.92542
6.04875
0.13476
0.134687
0.13463
0.134621
0.1348
0.119918
0.150927
0.390108
0.675792
0.859878
1.49627
0.921759
0.56212
0.529611
1.12591
1.37387
1.70806
2.10984
2.55023
2.99724
3.42816
3.82694
4.18452
4.50176
4.78013
5.02227
5.23115
5.40838
5.55067
5.64166
0.134761
0.134688
0.134633
0.134628
0.134839
0.118889
0.159189
0.409547
0.677145
0.767092
1.218
0.381086
0.388321
0.294035
1.20976
1.53904
1.9647
2.4405
2.91221
3.34268
3.7175
4.03484
4.30062
4.5241
4.70999
4.86591
4.99651
5.10531
5.19059
5.24282
0.13476
0.134688
0.134635
0.134638
0.134884
0.114113
0.156945
0.416268
0.727191
1.14792
1.00888
0.69414
0.665617
0.763009
2.14492
2.47489
2.8686
3.26927
3.62428
3.91703
4.14829
4.32866
4.46747
4.57553
4.65827
4.72157
4.76941
4.80735
4.83471
4.84891
0.134759
0.134688
0.134637
0.13465
0.134909
0.107024
0.149978
0.411807
0.7872
1.32434
1.42888
2.45127
3.12701
2.88766
3.4973
3.68563
3.91675
4.13361
4.30602
4.42697
4.50473
4.55079
4.57533
4.57955
4.57044
4.55046
4.525
4.50018
4.47652
4.45819
0.134758
0.134686
0.134638
0.134663
0.131993
0.0994515
0.142042
0.404165
0.834603
1.60111
3.20604
4.66504
4.69167
4.62878
4.55732
4.59681
4.67198
4.73344
4.76006
4.74893
4.70909
4.65152
4.5855
4.51097
4.42761
4.33881
4.25303
4.17709
4.11366
4.07112
0.134757
0.134684
0.13464
0.134678
0.124497
0.0927374
0.134263
0.395713
0.867243
1.82164
3.92362
4.60332
4.88904
4.98048
5.01217
5.04545
5.06509
5.05116
4.99555
4.90101
4.78054
4.64843
4.51228
4.37513
4.23206
4.08897
3.95505
3.84015
3.74828
3.69069
0.134755
0.134682
0.134641
0.134691
0.118089
0.0872849
0.126187
0.382838
0.877772
1.94263
3.82738
4.49081
4.86037
5.03076
5.13242
5.19895
5.2189
5.17988
5.0846
4.93881
4.76158
4.57308
4.38504
4.19307
4.00006
3.81261
3.64221
3.49934
3.3886
3.32362
0.134753
0.13468
0.134642
0.134703
0.113049
0.0828511
0.116916
0.362996
0.862634
1.98836
3.715
4.3701
4.76071
4.97257
5.02647
4.98831
5.06243
5.16135
5.0904
4.91104
4.6911
4.45824
4.22693
3.98923
3.75351
3.53116
3.33203
3.16996
3.04828
2.98135
0.134752
0.134679
0.134644
0.134712
0.109386
0.0793763
0.106164
0.334348
0.819735
1.96555
3.60261
4.24901
4.63946
4.83966
4.41669
4.34569
4.47034
4.68101
4.89837
4.85483
4.60143
4.33359
4.06389
3.78867
3.51853
3.2684
3.0488
2.87314
2.74543
2.6801
0.134751
0.134677
0.134644
0.134717
0.106844
0.0768327
0.0942455
0.294711
0.746844
1.88499
3.4914
4.13243
4.51439
4.22356
3.76728
3.73486
3.9679
4.31377
4.63391
4.80257
4.52182
4.22905
3.92636
3.62142
3.32632
3.05499
2.82112
2.636
2.50478
2.4428
0.134751
0.134677
0.134645
0.134721
0.104385
0.0753199
0.0809763
0.238704
0.652294
1.83941
3.40261
4.04714
4.42022
3.58935
3.20664
3.28383
3.6656
4.1595
4.57537
4.78127
4.48104
4.17199
3.84976
3.52717
3.21739
2.93307
2.68955
2.49803
2.36368
2.30438
0.134749
0.134677
0.134643
0.134676
0.134818
0.111876
0.0974686
0.236454
0.776712
1.40523
2.30043
4.05767
6.9386
8.59502
8.94957
9.14301
9.2447
9.29825
9.3302
9.36075
9.40378
9.46858
9.56081
9.68246
9.83173
10.0029
10.1867
10.3697
10.5311
10.6275
0.134749
0.134679
0.134645
0.134678
0.134828
0.111825
0.10615
0.337204
1.03409
1.79219
2.80354
4.60437
7.31568
8.50895
8.84052
9.01681
9.10532
9.14919
9.175
9.20284
9.24651
9.31499
9.41343
9.54316
9.70157
9.88217
10.0747
10.2667
10.4338
10.5349
0.134751
0.134682
0.134649
0.134683
0.134848
0.111136
0.118077
0.42447
1.17992
2.04016
3.30123
5.41673
7.77906
8.3266
8.61755
8.76006
8.82149
8.84512
8.85798
8.8799
8.92436
8.99958
9.10959
9.2543
9.4296
9.62733
9.83744
10.0442
10.2232
10.3336
0.134753
0.134687
0.134655
0.13469
0.134879
0.110866
0.134303
0.498654
1.26445
2.22098
3.76199
6.21547
7.58376
8.04959
8.27308
8.36154
8.38264
8.37888
8.376
8.39436
8.44542
8.53564
8.6669
8.83669
9.03864
9.26247
9.49774
9.7245
9.92075
10.0437
0.134756
0.134692
0.134661
0.134698
0.134925
0.111359
0.155491
0.564147
1.32388
2.37624
4.17511
6.60168
7.31018
7.64695
7.76774
7.78211
7.75561
7.72623
7.71737
7.74527
7.81821
7.93933
8.107
8.31525
8.55463
8.81414
9.07916
9.32996
9.54587
9.68278
0.134759
0.134697
0.134669
0.134708
0.134995
0.112974
0.181257
0.620791
1.37038
2.51414
4.53749
6.42135
6.89997
7.04602
7.02644
6.95997
6.89919
6.86733
6.88035
6.94635
7.06809
7.24371
7.46701
7.72804
8.01446
8.31452
8.60983
8.88489
9.11862
9.26801
0.134762
0.134703
0.134676
0.134718
0.135094
0.115895
0.210273
0.667773
1.40339
2.61483
4.83378
6.13517
6.25357
6.14657
5.97082
5.85859
5.81381
5.83213
5.91489
6.05983
6.26318
6.51747
6.81216
7.13352
7.46917
7.80458
8.12336
8.4148
8.65879
8.81525
0.134765
0.134708
0.134683
0.13473
0.135228
0.12008
0.240623
0.702624
1.41122
2.63847
4.91432
5.65245
5.27872
4.92595
4.64891
4.59007
4.64243
4.77507
4.97508
5.23126
5.53641
5.87562
6.23968
6.61237
6.97997
7.33039
7.65451
7.94434
8.18384
8.33739
0.134767
0.134712
0.134689
0.134743
0.135396
0.124898
0.270696
0.728662
1.39459
2.56944
3.42329
4.92407
3.96522
3.44604
3.39643
3.50827
3.70944
3.97812
4.30321
4.67038
5.06118
5.45746
5.85568
6.23989
6.60039
6.93096
7.22967
7.49204
7.70666
7.84343
0.134768
0.134715
0.134694
0.134756
0.135557
0.129066
0.296675
0.752207
1.37
2.50052
2.75064
4.09801
3.00565
2.53689
2.8251
3.03158
3.33754
3.71118
4.12306
4.54444
4.95479
5.34321
5.71089
6.04674
6.3498
6.62198
6.8637
7.07362
7.24384
7.35079
0.134769
0.134717
0.134698
0.134772
0.135729
0.130195
0.313902
0.76753
1.37178
2.38003
2.2817
3.41789
2.86595
2.41073
2.98524
3.26436
3.63023
4.03442
4.4388
4.81489
5.1562
5.46038
5.7331
5.97297
6.18589
6.37193
6.53543
6.6773
6.79205
6.86286
0.134769
0.134718
0.134702
0.134791
0.135905
0.128269
0.318128
0.770324
1.41318
2.4424
2.54034
3.54934
3.35496
3.05369
3.82992
4.09354
4.40787
4.72391
5.0119
5.25976
5.47047
5.64902
5.80053
5.92879
6.03894
6.13145
6.21291
6.28381
6.34196
6.3772
0.134769
0.134718
0.134706
0.13481
0.131465
0.123051
0.314589
0.771396
1.47625
2.77002
4.55208
5.34054
5.14634
5.00703
4.95945
5.08079
5.25322
5.41764
5.5534
5.65503
5.72867
5.78233
5.82123
5.84622
5.86025
5.86692
5.87198
5.87828
5.88679
5.89203
0.134767
0.134717
0.134709
0.134827
0.124677
0.116718
0.30611
0.77258
1.56507
3.17175
4.80564
5.46196
5.67539
5.71953
5.74197
5.79851
5.86323
5.90605
5.91845
5.90149
5.86372
5.81449
5.75918
5.69728
5.62998
5.5627
5.50237
5.45598
5.42486
5.40854
0.134766
0.134716
0.134711
0.134843
0.11822
0.110128
0.294645
0.768076
1.62802
3.4645
4.66825
5.40459
5.80178
5.99239
6.09789
6.16088
6.18397
6.16242
6.09964
6.00162
5.88148
5.75204
5.621
5.48565
5.3491
5.22059
5.1072
5.01989
4.96054
4.93225
0.134764
0.134714
0.134714
0.134856
0.112597
0.103527
0.279301
0.752412
1.65552
3.5428
4.55264
5.29295
5.7491
5.58637
5.46918
5.58362
5.7548
5.92257
6.10259
5.99558
5.81457
5.62148
5.42726
5.22905
5.03405
4.85325
4.69916
4.58187
4.50517
4.47311
0.134763
0.134712
0.134715
0.134865
0.107988
0.0968317
0.258748
0.721355
1.64043
3.46467
4.43868
5.1623
5.63153
5.05753
4.83311
4.90978
5.11959
5.38426
5.65786
5.87261
5.69991
5.45454
5.20521
4.95272
4.70838
4.4847
4.29852
4.16125
4.07585
4.04652
0.134761
0.13471
0.134717
0.134867
0.104439
0.090102
0.231987
0.670831
1.57955
3.37129
4.31716
5.01945
5.31665
4.48177
4.22517
4.32704
4.62958
5.01303
5.36754
5.62603
5.5725
5.2846
4.9864
4.68791
4.40244
4.1455
3.93417
3.78431
3.69607
3.67408
0.134762
0.134711
0.13472
0.13487
0.101835
0.0840469
0.198222
0.594666
1.47181
3.2666
4.19198
4.86962
4.67666
3.8608
3.65174
3.8479
4.28906
4.80418
5.2371
5.50043
5.46586
5.14301
4.80709
4.47294
4.156
3.87387
3.64442
3.48625
3.39886
3.38596
0.13476
0.134708
0.134718
0.134864
0.0996373
0.0790084
0.154643
0.489609
1.3654
3.17134
4.0908
4.74812
3.97541
3.29885
3.21831
3.56866
4.18989
4.86193
5.37957
5.62601
5.41405
5.06924
4.71118
4.35592
4.02009
3.72206
3.48123
3.31673
3.23008
3.22341
0.134749
0.134679
0.134645
0.13468
0.134849
0.111469
0.125752
0.449482
1.11679
1.92604
3.3197
5.82254
8.6375
9.44356
9.95161
10.2686
10.4678
10.5993
10.696
10.7827
10.8767
10.9895
11.1278
11.2938
11.4848
11.694
11.9103
12.1177
12.2921
12.391
0.13475
0.13468
0.134647
0.134683
0.134884
0.112204
0.157369
0.630706
1.4689
2.41226
3.88918
6.30507
8.60855
9.36881
9.84417
10.1369
10.318
10.4368
10.5257
10.6092
10.7044
10.8221
10.9682
11.1439
11.3456
11.5654
11.7915
12.0072
12.1886
12.2921
0.134752
0.134684
0.134652
0.13469
0.134949
0.113223
0.194589
0.760106
1.67381
2.7947
4.57948
7.20491
8.49878
9.19321
9.61484
9.86407
10.0111
10.1051
10.1784
10.2553
10.3522
10.4785
10.6388
10.8321
11.0531
11.2922
11.5362
11.7677
11.9625
12.0752
0.134754
0.134688
0.134658
0.134701
0.135061
0.11594
0.239892
0.860358
1.80963
3.11061
5.20221
7.33562
8.31902
8.91807
9.26005
9.44476
9.5428
9.60305
9.65811
9.73048
9.83472
9.97812
10.1621
10.383
10.6326
10.8992
11.1681
11.4217
11.6338
11.7593
0.134757
0.134694
0.134666
0.134716
0.135254
0.120984
0.293591
0.950188
1.92676
3.394
5.75027
7.22766
8.06114
8.5276
8.75881
8.85893
8.89982
8.92647
8.9695
9.04864
9.17388
9.34837
9.56923
9.82879
10.1157
10.416
10.714
10.9923
11.2231
11.3627
0.13476
0.1347
0.134675
0.134734
0.135564
0.12889
0.351927
1.03037
2.03801
3.65324
5.9324
7.07029
7.70227
7.98891
8.07832
8.08429
8.07506
8.08483
8.13772
8.24649
8.41414
8.63777
8.90916
9.21626
9.54492
9.87974
10.2061
10.5056
10.7522
10.904
0.134764
0.134707
0.134684
0.134758
0.136024
0.139754
0.410428
1.09905
2.13952
3.90479
5.9456
6.84706
7.2071
7.27004
7.20533
7.1359
7.10848
7.13972
7.23847
7.40635
7.63866
7.92573
8.25426
8.60869
8.97372
9.33475
9.67927
9.98948
10.2438
10.4019
0.134767
0.134713
0.134693
0.134789
0.136648
0.152992
0.464731
1.1522
2.22635
4.16043
5.94064
6.53897
6.5637
6.40297
6.21763
6.13157
6.14326
6.2412
6.41775
6.6643
6.96868
7.31938
7.69309
8.07697
8.4581
8.825
9.16681
9.46993
9.71778
9.87231
0.134769
0.134718
0.134702
0.134824
0.137421
0.167225
0.512304
1.19309
2.29882
4.34011
5.91198
6.17212
5.88154
5.58596
5.3473
5.31504
5.40652
5.59365
5.85598
6.17385
6.53292
6.91316
7.29735
7.67486
8.0391
8.37983
8.69095
8.9645
9.18772
9.32663
0.134771
0.134722
0.13471
0.13486
0.138106
0.17974
0.549173
1.22512
2.36488
4.4251
5.82988
5.88699
5.43713
5.12952
4.91756
4.94699
5.11724
5.37572
5.68812
6.03181
6.38829
6.74202
7.08544
7.41238
7.71954
8.00125
8.25644
8.48172
8.66487
8.77775
0.134772
0.134725
0.134717
0.1349
0.138567
0.188356
0.57393
1.24704
2.40187
4.43754
5.75255
5.83874
5.43131
5.17861
5.03426
5.11952
5.32546
5.59209
5.88251
6.17825
6.46562
6.7426
7.00168
7.24161
7.46418
7.66734
7.85199
8.01561
8.14931
8.23092
0.134772
0.134727
0.134724
0.134946
0.134124
0.191316
0.583884
1.26247
2.44151
4.54098
5.66936
5.98562
5.81128
5.66261
5.58711
5.68104
5.85112
6.05102
6.25343
6.44642
6.62764
6.79753
6.9538
7.09487
7.22426
7.34266
7.45171
7.55138
7.63481
7.6856
0.134772
0.134727
0.13473
0.134981
0.128522
0.189263
0.583344
1.28069
2.52969
4.44645
5.54424
6.12196
6.25405
6.2533
6.24962
6.31024
6.4077
6.50947
6.6027
6.68404
6.75465
6.81737
6.87377
6.92068
6.96119
6.99831
7.03595
7.07648
7.11518
7.14042
0.134771
0.134727
0.134735
0.135005
0.122458
0.183341
0.574833
1.29611
2.64005
4.34458
5.42003
6.12909
6.47742
6.43463
6.70354
6.75999
6.80372
6.8271
6.83085
6.81806
6.79373
6.76363
6.73098
6.69313
6.65442
6.61952
6.59541
6.58616
6.58948
6.59678
0.13477
0.134726
0.134739
0.135019
0.116361
0.174484
0.558919
1.29634
2.73038
4.26199
5.30903
6.05428
6.40287
5.98411
6.08062
6.33539
6.5895
6.78274
6.92495
6.84332
6.74307
6.63517
6.52555