/*--------------------------------*- C++ -*----------------------------------*\
| =========                 |                                                 |
| \\      /  F ield         | OpenFOAM: The Open Source CFD Toolbox           |
|  \\    /   O peration     | Version:  2512                                  |
|   \\  /    A nd           | Website:  www.openfoam.com                      |
|    \\/     M anipulation  |                                                 |
\*---------------------------------------------------------------------------*/
FoamFile
{
    version     2.0;
    format      ascii;
    arch        "LSB;label=32;scalar=64";
    class       volScalarField;
    location    "140";
    object      nut;
}
// * * * * * * * * * * * * * * * * * * * * * * * * * * * * * * * * * * * * * //

dimensions      [0 2 -1 0 0 0 0];

internalField   nonuniform List<scalar> 
84826
(
0.0144196
0.0141772
0.0139458
0.0137246
0.0135127
0.0133096
0.0131153
0.0129292
0.012752
0.0125823
0.0124211
0.012264
0.0121185
0.0119836
0.0118479
0.011715
0.0115834
0.0114551
0.0113303
0.011209
0.0110911
0.0109766
0.0108654
0.0107574
0.0106524
0.0105502
0.0104509
0.0103543
0.0102603
0.0101689
0.0144196
0.0141772
0.0139459
0.0137248
0.013513
0.0133103
0.0131164
0.0129309
0.0127542
0.0125851
0.0124247
0.0122682
0.0121234
0.011989
0.0118535
0.0117206
0.0115887
0.01146
0.0113349
0.0112134
0.0110952
0.0109805
0.0108691
0.0107609
0.0106557
0.0105534
0.010454
0.0103572
0.0102631
0.0101716
0.0144196
0.0141772
0.013946
0.013725
0.0135135
0.013311
0.0131172
0.0129324
0.0127572
0.0125893
0.0124305
0.0122753
0.0121322
0.0119993
0.0118643
0.0117314
0.0115987
0.0114694
0.0113442
0.0112223
0.0111036
0.0109886
0.0108769
0.0107684
0.010663
0.0105605
0.0104609
0.010364
0.0102698
0.010178
0.0144196
0.0141773
0.0139461
0.0137252
0.0135138
0.0133117
0.0131184
0.0129345
0.0127605
0.0125946
0.0124387
0.0122874
0.0121473
0.0120156
0.0118816
0.0117488
0.0116156
0.0114855
0.0113595
0.0112369
0.0111177
0.0110023
0.0108901
0.0107813
0.0106755
0.0105726
0.0104727
0.0103755
0.0102809
0.0101889
0.0144196
0.0141773
0.0139461
0.0137253
0.0135141
0.0133122
0.0131194
0.0129366
0.0127645
0.0126014
0.012447
0.0123217
0.0121876
0.0120359
0.0119038
0.0117715
0.0116377
0.0115066
0.0113799
0.0112566
0.011137
0.0110212
0.0109088
0.0107998
0.0106939
0.010591
0.010491
0.0103937
0.0102991
0.010207
0.0144195
0.0141773
0.0139461
0.0137253
0.0135144
0.0133127
0.0131204
0.0129389
0.0127691
0.012606
0.0124548
0.0123157
0.0121859
0.0120585
0.0119292
0.0117973
0.0116625
0.0115299
0.011402
0.0112786
0.0111603
0.0110468
0.0109379
0.0108329
0.0107312
0.0106323
0.0105359
0.0104416
0.0103494
0.0102593
0.0144195
0.0141773
0.0139461
0.0137254
0.0135146
0.0133132
0.0131216
0.0129413
0.0127718
0.0126112
0.0107117
0.00999074
0.010828
0.0121585
0.0120312
0.0118957
0.011759
0.0116346
0.0115522
0.0115103
0.0114977
0.0115004
0.0115074
0.0115108
0.0115051
0.0114869
0.0114553
0.0114109
0.0113572
0.0112939
0.0144196
0.0141772
0.0139461
0.0137255
0.0135147
0.0133136
0.0131227
0.0129431
0.0127726
0.0118396
0.00468327
0.00340497
0.00388753
0.00468316
0.0122977
0.0112263
0.0112578
0.0116027
0.0119387
0.0122216
0.0123945
0.0124357
0.0124048
0.0123631
0.0123258
0.0122779
0.0122141
0.0121238
0.0120375
0.0118958
0.0144196
0.0141772
0.013946
0.0137254
0.0135147
0.0133139
0.0131236
0.0129455
0.0127756
0.00807944
0.00302409
0.00209972
0.00299515
0.00964454
0.0165885
0.017061
0.018163
0.0190474
0.0194805
0.0195933
0.019454
0.0191127
0.0186812
0.0182608
0.0178847
0.0175372
0.0172007
0.0168714
0.0165454
0.0162631
0.0144195
0.0141771
0.0139458
0.0137251
0.0135143
0.0133135
0.0131235
0.0129447
0.0127745
0.00607928
0.00203997
0.000844557
0.00290189
0.00293951
0.0129334
0.0136085
0.0153168
0.0169862
0.0183375
0.0194091
0.0202302
0.0208118
0.0212287
0.0215732
0.0218832
0.0221468
0.0223459
0.0224858
0.0225067
0.0229368
0.0144195
0.014177
0.0139456
0.0137248
0.013514
0.0133132
0.0131235
0.0129447
0.0127745
0.00606054
0.00192312
0.00128848
0.00423626
0.0159973
0.0169927
0.0188407
0.0203551
0.0212924
0.0218137
0.022031
0.0220261
0.0219162
0.0218056
0.0217264
0.0216632
0.0215918
0.0215334
0.0213663
0.0217425
0.0144195
0.014177
0.013946
0.0137253
0.0135144
0.0133136
0.0131236
0.0129456
0.0127757
0.00800287
0.00245034
0.000878467
0.00135218
0.00418167
0.0154519
0.0161314
0.0177318
0.0190874
0.0199221
0.0203737
0.0204357
0.0201674
0.0196918
0.0191357
0.0185762
0.0180227
0.0174765
0.0169786
0.0164722
0.016103
0.0144195
0.0141772
0.0139462
0.0137256
0.0135148
0.0133137
0.0131228
0.0129434
0.0127728
0.0116694
0.00386755
0.00272293
0.00301434
0.00437358
0.0117307
0.012252
0.0131392
0.0140949
0.0150964
0.0158826
0.0164282
0.016897
0.0172838
0.0172952
0.0172227
0.0170578
0.016836
0.0165457
0.0162812
0.0156702
0.0144195
0.0141773
0.0139462
0.0137255
0.0135146
0.0133133
0.0131218
0.0129415
0.012772
0.0126117
0.0104441
0.00949335
0.0103369
0.0121687
0.0120391
0.0119045
0.0117687
0.0116377
0.0115127
0.0114112
0.0113372
0.0112903
0.0112723
0.0112854
0.0113304
0.0114063
0.0115124
0.011645
0.0118045
0.0119819
0.0144196
0.0141773
0.0139462
0.0137254
0.0135145
0.0133128
0.0131206
0.0129392
0.0127695
0.0126066
0.0124557
0.0123175
0.0121887
0.0120616
0.011934
0.0118039
0.011671
0.0115401
0.0114127
0.0112881
0.0111669
0.0110497
0.0109365
0.010828
0.0107248
0.0106276
0.0105371
0.0104544
0.0103807
0.010317
0.0144196
0.0141773
0.0139461
0.0137253
0.0135142
0.0133123
0.0131196
0.0129369
0.0127649
0.0126022
0.0124479
0.0123227
0.0121886
0.0120383
0.0119078
0.0117767
0.0116442
0.0115141
0.0113878
0.0112645
0.0111441
0.011027
0.0109129
0.0108019
0.0106936
0.0105882
0.0104856
0.0103859
0.0102891
0.0101955
0.0144196
0.0141773
0.0139461
0.0137252
0.0135139
0.0133118
0.0131185
0.0129348
0.012761
0.0125954
0.01244
0.0122893
0.01215
0.0120194
0.0118864
0.0117544
0.0116218
0.0114924
0.0113666
0.0112437
0.0111237
0.0110072
0.0108935
0.010783
0.0106753
0.0105704
0.0104682
0.0103688
0.010272
0.0101778
0.0144196
0.0141772
0.013946
0.013725
0.0135135
0.0133111
0.0131174
0.0129327
0.0127576
0.0125901
0.0124318
0.0122772
0.0121348
0.0120027
0.0118684
0.0117363
0.0116043
0.0114757
0.0113507
0.0112284
0.0111089
0.0109927
0.0108795
0.0107694
0.0106622
0.0105578
0.0104561
0.0103571
0.0102607
0.0101668
0.0144196
0.0141772
0.0139459
0.0137248
0.0135131
0.0133104
0.0131166
0.0129312
0.0127548
0.012586
0.012426
0.0122701
0.0121259
0.0119922
0.0118572
0.011725
0.0115938
0.0114657
0.0113409
0.0112192
0.0111001
0.0109842
0.0108714
0.0107616
0.0106547
0.0105506
0.0104493
0.0103507
0.0102546
0.0101611
0.0144196
0.0141772
0.0139458
0.0137246
0.0135127
0.0133097
0.0131155
0.0129295
0.0127526
0.0125832
0.0124226
0.012266
0.0121211
0.0119867
0.0118515
0.0117193
0.0115883
0.0114604
0.011336
0.0112145
0.0110959
0.01098
0.0108674
0.0107578
0.010651
0.0105471
0.0104459
0.0103474
0.0102515
0.0101582
0.123121
0.114078
0.10686
0.10091
0.0958756
0.0915234
0.087704
0.0842917
0.0811474
0.0782841
0.0756971
0.0734005
0.0713792
0.069671
0.0682344
0.0669887
0.0658433
0.064775
0.0637716
0.0628185
0.06191
0.0610479
0.0602305
0.0594543
0.058715
0.0580126
0.0573445
0.0567066
0.0560974
0.0555161
0.12312
0.114075
0.106854
0.100899
0.0958568
0.091491
0.0876479
0.0842112
0.0810218
0.0780997
0.0754468
0.0730838
0.0710217
0.0692999
0.0678766
0.0666496
0.0655132
0.0644553
0.0634576
0.0625074
0.0615999
0.0607374
0.0599194
0.0591433
0.0584068
0.0577094
0.0570479
0.0564185
0.0558189
0.055249
0.123123
0.114069
0.106843
0.100879
0.0958209
0.0914258
0.0875267
0.0840393
0.0807523
0.0777026
0.0749051
0.0724017
0.0702519
0.0685074
0.0671172
0.0659331
0.0648048
0.0637712
0.0627857
0.0618448
0.0609472
0.060096
0.0592898
0.0585276
0.0578065
0.0571255
0.0564817
0.0558712
0.0552913
0.0547416
0.123127
0.114064
0.106828
0.100852
0.0957706
0.0913356
0.0873674
0.0837835
0.0803395
0.0770772
0.0739926
0.0712604
0.0689255
0.0671457
0.0658124
0.0646973
0.0636099
0.0625982
0.0616151
0.0606659
0.0597573
0.0588991
0.058092
0.0573358
0.0566261
0.05596
0.0553344
0.0547449
0.0541872
0.0536606
0.123125
0.114064
0.106812
0.100818
0.0957086
0.0912216
0.0871638
0.0834387
0.0797656
0.0761316
0.0599871
0.0575017
0.066297
0.0650831
0.0638344
0.0628013
0.061756
0.0607696
0.0598054
0.0588713
0.0579738
0.0571276
0.0563388
0.0556074
0.0549296
0.0543015
0.0537186
0.0531761
0.0526664
0.0521878
0.123123
0.114063
0.106802
0.100781
0.095639
0.0910926
0.0869253
0.0830092
0.078997
0.0573565
0.0381312
0.0402115
0.0432008
0.0566854
0.0600321
0.0590635
0.0579903
0.0569069
0.0558228
0.0547694
0.0537545
0.0528035
0.0519263
0.051125
0.050395
0.0497323
0.0491292
0.0485779
0.0480659
0.0475911
0.123121
0.114056
0.106793
0.100755
0.0955697
0.0909608
0.0866703
0.0824923
0.068611
0.0370739
0.023088
0.0216327
0.0278438
0.0358618
0.0492898
0.0491936
0.0481075
0.0470091
0.0459105
0.0448317
0.0437327
0.0426882
0.0417457
0.0409184
0.0402045
0.0395956
0.0390737
0.0386179
0.0381994
0.037803
0.12312
0.114049
0.106778
0.100732
0.0955162
0.0908483
0.0864304
0.0819438
0.0478062
0.0231375
0.0163236
0.0117061
0.0132673
0.0148773
0.0206729
0.0200228
0.0194759
0.0190574
0.0187533
0.0185468
0.0184387
0.0184164
0.0184636
0.0185659
0.0187116
0.0188944
0.0191113
0.0193668
0.0196565
0.0200071
0.123118
0.114043
0.106766
0.100708
0.0954754
0.0907589
0.0862406
0.0799804
0.0356266
0.014078
0.00782431
0.00465827
0.00784161
0.00860421
0.0119122
0.0131614
0.0143782
0.0155242
0.0165994
0.0176203
0.0186084
0.0195844
0.0205653
0.0215623
0.0225838
0.0236403
0.0247443
0.0259101
0.0271404
0.0276672
0.123111
0.11403
0.106746
0.100679
0.0954334
0.0906891
0.0861173
0.0705975
0.0278019
0.0103555
0.00389065
0.00158598
0.00337303
0.00460605
0.0229237
0.0249183
0.0268192
0.0285234
0.0301164
0.0316268
0.0330638
0.0344305
0.0357214
0.036924
0.0380349
0.0390638
0.0400343
0.0409679
0.0418864
0.0427816
0.123105
0.11402
0.106734
0.100667
0.0954208
0.0906965
0.0861267
0.0704639
0.0277299
0.0103406
0.00363185
0.0133448
0.0457256
0.046481
0.0477036
0.0486218
0.0493498
0.0499568
0.0504861
0.0509648
0.0514019
0.0517925
0.0521335
0.0524474
0.0527692
0.0531146
0.053527
0.0539117
0.123105
0.114035
0.106748
0.1007
0.0954652
0.0907681
0.0862495
0.0795161
0.0353631
0.0139806
0.00494173
0.00193592
0.0051259
0.0225519
0.0238949
0.0259433
0.0277228
0.0293544
0.0309038
0.0323984
0.033854
0.0352789
0.0366655
0.038011
0.0393393
0.0406568
0.0419579
0.0432407
0.044512
0.0457806
0.123103
0.11405
0.106773
0.100737
0.0955193
0.0908509
0.0864307
0.0819362
0.0472874
0.0227797
0.0109085
0.00778245
0.0106241
0.0114195
0.0178227
0.0174874
0.0172978
0.0172253
0.0172519
0.017373
0.017609
0.0180206
0.018669
0.0196259
0.0208267
0.0222073
0.0237255
0.0253467
0.027024
0.0287868
0.123111
0.114055
0.106795
0.100757
0.0955718
0.090963
0.0866721
0.0824912
0.0676037
0.0364999
0.0224445
0.0204246
0.0263364
0.0332894
0.0431551
0.0479086
0.0471113
0.0463446
0.0455407
0.0446575
0.0436345
0.0423223
0.0408515
0.0393305
0.0378358
0.036443
0.0352017
0.0341575
0.0333212
0.0327203
0.123122
0.114064
0.106804
0.100783
0.0956419
0.0910966
0.0869301
0.0830137
0.0789954
0.0563825
0.0371862
0.0380921
0.0409597
0.0529758
0.0599712
0.0591813
0.0583376
0.057455
0.0565106
0.0555247
0.0545126
0.0534826
0.0524197
0.0513248
0.0501952
0.0490367
0.0478519
0.0466634
0.0454763
0.0443112
0.123125
0.114065
0.106813
0.10082
0.0957124
0.0912269
0.0871709
0.0834478
0.0797766
0.0761402
0.0587203
0.0551693
0.0630461
0.0652702
0.0641444
0.0632791
0.0624105
0.0615748
0.0607262
0.0598638
0.0589768
0.0580694
0.0571376
0.0561866
0.0552202
0.0542456
0.0532691
0.0523001
0.0513417
0.0504047
0.123128
0.114065
0.10683
0.100855
0.095775
0.0913421
0.0873765
0.0837963
0.0803573
0.0771016
0.0740218
0.071303
0.0690051
0.0673141
0.066087
0.0650866
0.0641287
0.063201
0.0622882
0.061368
0.0604421
0.0595201
0.0586051
0.0577012
0.0568084
0.0559289
0.0550637
0.0542179
0.0533909
0.0525888
0.123123
0.11407
0.106845
0.100883
0.0958259
0.0914332
0.0875373
0.0840547
0.0807744
0.0777345
0.074951
0.0724691
0.0703571
0.0686762
0.0673669
0.0662474
0.0652003
0.0641886
0.0632277
0.0623042
0.0613981
0.0605062
0.0596272
0.0587608
0.0579054
0.0570638
0.0562361
0.0554269
0.054637
0.0538722
0.12312
0.114076
0.106856
0.100903
0.0958622
0.0914991
0.0876597
0.0842283
0.0810467
0.0781359
0.0754987
0.0731576
0.0711285
0.0694571
0.0680985
0.0669144
0.065821
0.0647559
0.0637564
0.0628046
0.0618918
0.0610052
0.060137
0.0592853
0.0584498
0.057634
0.0568374
0.0560628
0.0553095
0.0545837
0.123121
0.114079
0.106862
0.100914
0.095881
0.0915316
0.087716
0.0843092
0.081173
0.0783214
0.0757503
0.0734752
0.0714841
0.0698196
0.0684388
0.0672267
0.0661066
0.0650191
0.0640011
0.0630344
0.06211
0.061223
0.0603569
0.0595098
0.0586799
0.0578708
0.0570826
0.0563168
0.0555721
0.0548553
0.134469
0.133882
0.133115
0.132202
0.131165
0.130027
0.128825
0.12747
0.126075
0.124646
0.123201
0.121762
0.120303
0.118931
0.117676
0.116518
0.115406
0.114249
0.113153
0.112083
0.11103
0.109997
0.108987
0.108001
0.107033
0.10609
0.105178
0.104289
0.103423
0.102582
0.134469
0.133882
0.133115
0.1322
0.131162
0.130019
0.128806
0.127437
0.126029
0.124577
0.123107
0.121656
0.120141
0.11875
0.117489
0.116325
0.115215
0.114055
0.112953
0.111873
0.11081
0.109767
0.108749
0.107753
0.106779
0.105836
0.104924
0.104038
0.103176
0.102342
0.13447
0.133881
0.133113
0.132197
0.131154
0.130001
0.128758
0.127386
0.125947
0.124446
0.122921
0.121419
0.11983
0.118404
0.117136
0.115967
0.114865
0.113713
0.112593
0.11149
0.110405
0.109344
0.108308
0.107299
0.106317
0.105372
0.104459
0.103575
0.102717
0.101888
0.13447
0.13388
0.133112
0.132193
0.131144
0.129979
0.128705
0.127309
0.125818
0.124251
0.0999493
0.0973018
0.11767
0.117809
0.11653
0.115355
0.114213
0.113039
0.111875
0.110723
0.10959
0.108485
0.107406
0.106367
0.105365
0.104403
0.103478
0.102584
0.10172
0.100887
0.13447
0.133881
0.13311
0.132188
0.131132
0.129952
0.128647
0.127212
0.125656
0.0950108
0.0673736
0.0654228
0.0770471
0.101957
0.114959
0.113815
0.112639
0.111421
0.110197
0.108979
0.107779
0.106608
0.105472
0.104389
0.103356
0.102369
0.101426
0.100522
0.0996507
0.098811
0.13447
0.133881
0.133109
0.132182
0.131119
0.129923
0.128587
0.127103
0.107401
0.0640846
0.0425942
0.0457533
0.0511416
0.0661735
0.0914381
0.108837
0.107565
0.106171
0.104719
0.103247
0.101776
0.10034
0.0989366
0.0975961
0.0963156
0.0950992
0.0939446
0.0928468
0.0917928
0.0907813
0.13447
0.133881
0.133109
0.132179
0.131106
0.129894
0.128527
0.126999
0.0760493
0.0412167
0.0255071
0.0250422
0.0335699
0.0405284
0.0569341
0.091172
0.0886712
0.0861446
0.0836942
0.0813542
0.0791635
0.0770213
0.0749752
0.0730877
0.0713741
0.0698397
0.0684664
0.0672346
0.0660978
0.0650536
0.13447
0.13388
0.133107
0.132177
0.131098
0.129873
0.128477
0.107971
0.0530083
0.0253513
0.0178414
0.012362
0.0219146
0.024698
0.0212144
0.0257283
0.0287905
0.0276944
0.0268583
0.0261833
0.0256318
0.0251995
0.0248622
0.0245993
0.0243964
0.0242433
0.024132
0.024057
0.0240091
0.0239866
0.13447
0.13388
0.133106
0.132174
0.131093
0.12986
0.128451
0.0874918
0.0389607
0.0152147
0.00771099
0.0039239
0.0113494
0.0110815
0.0191405
0.0198228
0.0201225
0.0202887
0.020397
0.0204856
0.0205741
0.0206775
0.020802
0.0209519
0.021132
0.0213491
0.0216123
0.0219339
0.022328
0.0228198
0.134469
0.133879
0.133104
0.132171
0.131088
0.129849
0.128441
0.0770169
0.0303173
0.0107465
0.00360279
0.00150982
0.0163793
0.0171993
0.0190395
0.0203207
0.0213421
0.0221432
0.022812
0.023398
0.0239392
0.0244629
0.024986
0.0255205
0.0260764
0.0266637
0.0272926
0.027978
0.0287391
0.0295722
0.134469
0.133879
0.133105
0.132169
0.131085
0.129846
0.128438
0.0769508
0.0302912
0.0107433
0.00335163
0.0407734
0.0386143
0.0402752
0.0414855
0.0423708
0.0430912
0.0437363
0.0443413
0.0449377
0.0455283
0.0461166
0.0467066
0.0473082
0.0479343
0.0485901
0.0492915
0.0500028
0.134469
0.133879
0.133104
0.132172
0.13109
0.129855
0.128448
0.087093
0.038778
0.0151803
0.00480514
0.00184927
0.0288198
0.0397342
0.0284777
0.0297152
0.0306483
0.0314799
0.0323078
0.0331751
0.034107
0.0351181
0.036225
0.0374358
0.0387544
0.0401766
0.041696
0.0432977
0.0449743
0.0466815
0.134469
0.13388
0.133106
0.132177
0.131097
0.129872
0.128477
0.107118
0.0526052
0.0251401
0.0114382
0.00791783
0.0147953
0.0139844
0.0185557
0.024257
0.0264789
0.0255561
0.0248604
0.0243174
0.0239344
0.0236936
0.0236062
0.0236834
0.0239338
0.0243676
0.0249921
0.0258141
0.0268306
0.0280506
0.134469
0.133881
0.13311
0.132179
0.131106
0.129895
0.128529
0.127003
0.0751105
0.040785
0.0250856
0.0241826
0.0312789
0.0366101
0.048408
0.0825389
0.087262
0.0842664
0.0809343
0.0773691
0.0737506
0.0701076
0.0665883
0.0631043
0.0597261
0.056522
0.0535078
0.0507084
0.0481302
0.0458595
0.13447
0.133881
0.133109
0.132182
0.13112
0.129925
0.128589
0.127109
0.10597
0.0631746
0.0418809
0.0437274
0.0482209
0.0601988
0.0781609
0.0984821
0.107938
0.106693
0.105239
0.103617
0.101856
0.0999837
0.0980173
0.0959749
0.0938356
0.091569
0.0891783
0.0867139
0.0841931
0.081656
0.13447
0.133881
0.13311
0.132188
0.131133
0.129954
0.12865
0.127218
0.125668
0.093589
0.0662318
0.0631948
0.0731618
0.0930819
0.113739
0.114265
0.113195
0.112084
0.110944
0.109742
0.108489
0.107187
0.105839
0.104459
0.103038
0.10159
0.100105
0.0985852
0.0970487
0.0955063
0.13447
0.133881
0.133112
0.132193
0.131146
0.129981
0.128709
0.127316
0.12583
0.124274
0.0983769
0.094818
0.112897
0.118
0.11683
0.115743
0.114656
0.11355
0.112449
0.111324
0.110167
0.108991
0.107791
0.106582
0.105363
0.104139
0.102918
0.101692
0.100471
0.0992601
0.13447
0.133881
0.133114
0.132198
0.131156
0.130003
0.128763
0.127394
0.12596
0.124469
0.122958
0.121477
0.119921
0.118551
0.117357
0.116247
0.115161
0.114054
0.112962
0.111878
0.110783
0.109677
0.108561
0.107436
0.106304
0.105176
0.104049
0.102929
0.101821
0.100726
0.134469
0.133882
0.133115
0.132201
0.131163
0.130021
0.128811
0.127444
0.126042
0.124599
0.123143
0.12171
0.120219
0.118868
0.117662
0.116535
0.115435
0.114329
0.113235
0.112154
0.111082
0.110006
0.108927
0.107844
0.106757
0.105677
0.104606
0.103545
0.102496
0.101468
0.134469
0.133882
0.133115
0.132202
0.131166
0.130029
0.128829
0.127478
0.126088
0.124668
0.123235
0.121812
0.120373
0.119034
0.117824
0.116688
0.115582
0.114469
0.113371
0.11229
0.111219
0.110152
0.109083
0.108016
0.106944
0.105877
0.104824
0.103782
0.102751
0.101745
0.134739
0.134632
0.134511
0.134371
0.13421
0.134028
0.133822
0.133588
0.133343
0.133087
0.132816
0.132507
0.132144
0.131754
0.13137
0.130992
0.130606
0.130201
0.129779
0.129348
0.128905
0.128452
0.12799
0.127522
0.127048
0.126569
0.126085
0.125601
0.125114
0.124631
0.134739
0.134633
0.134511
0.134371
0.13421
0.134028
0.133822
0.133589
0.133347
0.133098
0.13284
0.132557
0.132187
0.131802
0.13142
0.131042
0.130655
0.130246
0.129818
0.12938
0.12893
0.128469
0.128
0.127525
0.127044
0.126559
0.12607
0.125582
0.125093
0.124608
0.134739
0.134633
0.134511
0.134371
0.13421
0.134027
0.133825
0.133591
0.133357
0.133129
0.132906
0.132674
0.132305
0.131932
0.131557
0.131179
0.130786
0.130356
0.129918
0.129466
0.129001
0.128525
0.12804
0.12755
0.127055
0.126556
0.126058
0.125559
0.125061
0.124567
0.134739
0.134633
0.134511
0.134371
0.13421
0.134027
0.133824
0.1336
0.133385
0.133202
0.115954
0.113812
0.132477
0.132126
0.131762
0.131381
0.130971
0.130517
0.130046
0.129558
0.129054
0.128539
0.128018
0.127492
0.126962
0.126431
0.125904
0.125377
0.124852
0.124331
0.134739
0.134633
0.134511
0.134371
0.13421
0.134028
0.133827
0.133619
0.133445
0.109408
0.0798983
0.0777779
0.0921802
0.118912
0.131403
0.131038
0.130612
0.130125
0.129604
0.129056
0.128487
0.127904
0.127312
0.126716
0.126117
0.125521
0.124929
0.124339
0.12375
0.123166
0.134739
0.134633
0.134511
0.134371
0.134211
0.13403
0.133836
0.133655
0.122721
0.0755758
0.0523962
0.0536859
0.0613807
0.0783376
0.10125
0.128476
0.128014
0.127415
0.126731
0.125982
0.125185
0.124355
0.123501
0.122636
0.121765
0.120898
0.120035
0.119173
0.118312
0.117455
0.134739
0.134633
0.134511
0.134371
0.134211
0.134033
0.133851
0.133719
0.0885373
0.0505617
0.0324054
0.0332783
0.0412262
0.0508355
0.065888
0.0987824
0.116874
0.115135
0.113262
0.111328
0.109393
0.107501
0.105692
0.103986
0.102383
0.100867
0.0994166
0.0980069
0.0966263
0.0952721
0.134739
0.134633
0.134511
0.134371
0.134212
0.134038
0.133873
0.123824
0.0641224
0.0319707
0.0213178
0.0156141
0.0281181
0.0318907
0.032121
0.0455683
0.0605472
0.0653711
0.0623071
0.0595847
0.0572147
0.0552063
0.0535199
0.0521267
0.0509464
0.0499167
0.0489859
0.0481093
0.0472649
0.0464305
0.134739
0.134633
0.134512
0.134372
0.134214
0.134043
0.133898
0.101618
0.0480714
0.0205143
0.0099652
0.0053138
0.0246026
0.0193215
0.015699
0.016172
0.0165846
0.0169485
0.0172616
0.0175414
0.0178154
0.0180955
0.0183866
0.0186854
0.018998
0.0193265
0.0196718
0.0200358
0.0204167
0.0208093
0.134739
0.134633
0.134512
0.134373
0.134216
0.134047
0.133917
0.0906111
0.0391047
0.0147739
0.00496786
0.00249495
0.0126843
0.016929
0.0191755
0.0193493
0.0195461
0.0197481
0.0199965
0.0203135
0.0207085
0.0211831
0.0217337
0.0223513
0.0230268
0.0237498
0.024511
0.025301
0.0261203
0.0269354
0.134739
0.134633
0.134512
0.134372
0.134215
0.134047
0.133917
0.0905491
0.0390888
0.0147882
0.00451732
0.00163386
0.0161923
0.0196006
0.0283445
0.030264
0.0316042
0.0326668
0.0335745
0.0343873
0.0351462
0.0358785
0.0366047
0.0373354
0.0380854
0.0388612
0.0396725
0.0405264
0.0414331
0.0423777
0.134739
0.134633
0.134511
0.134372
0.134213
0.134043
0.133899
0.101238
0.0479148
0.0205189
0.00688523
0.00198724
0.004219
0.030152
0.0253446
0.02644
0.0272677
0.0280144
0.0287241
0.0294358
0.0301839
0.0309955
0.0318763
0.0328247
0.0338397
0.0349214
0.0360729
0.0372967
0.0385983
0.0399693
0.134739
0.134633
0.134511
0.134372
0.134213
0.134038
0.133874
0.123075
0.063739
0.0318267
0.0146651
0.0109417
0.0212046
0.0200547
0.0275653
0.0403061
0.0537311
0.0499221
0.0469048
0.0443771
0.0421032
0.040078
0.0382834
0.0367259
0.035406
0.0343329
0.0335014
0.0329052
0.0325303
0.0323871
0.134739
0.134633
0.134511
0.134371
0.134211
0.134034
0.133853
0.133723
0.0876599
0.0501286
0.0320794
0.0324694
0.0389286
0.0460163
0.0561169
0.0776992
0.100767
0.112828
0.110159
0.107123
0.103759
0.100064
0.0960582
0.0917249
0.087156
0.0825169
0.0779688
0.073614
0.0695177
0.0657385
0.134739
0.134633
0.134511
0.134371
0.134211
0.13403
0.133837
0.133659
0.121304
0.0746808
0.0517297
0.0519951
0.0583665
0.0710578
0.0874434
0.110259
0.127959
0.127428
0.126769
0.125958
0.124982
0.123834
0.122507
0.120989
0.119275
0.117384
0.11533
0.113146
0.110863
0.108524
0.134739
0.134633
0.134511
0.134371
0.13421
0.134028
0.133828
0.133622
0.133453
0.107963
0.0787797
0.0757384
0.0877941
0.108357
0.130641
0.131183
0.130784
0.130325
0.129831
0.1293
0.128712
0.128072
0.12738
0.126633
0.125831
0.124978
0.124073
0.123115
0.122106
0.121061
0.134739
0.134633
0.134511
0.134371
0.13421
0.134027
0.133826
0.133603
0.133392
0.133216
0.114276
0.111286
0.13149
0.132219
0.131909
0.131557
0.131162
0.130733
0.130279
0.129803
0.129297
0.128758
0.128189
0.127592
0.126966
0.126313
0.125639
0.124943
0.124225
0.123497
0.134739
0.134633
0.134511
0.134371
0.13421
0.134027
0.133826
0.133594
0.133363
0.13314
0.132925
0.132704
0.132349
0.131999
0.131657
0.131302
0.130919
0.130513
0.130083
0.129634
0.129166
0.128673
0.128156
0.127617
0.127057
0.126475
0.125876
0.125264
0.124639
0.124008
0.134739
0.134632
0.134511
0.134371
0.13421
0.134028
0.133823
0.133592
0.133352
0.133108
0.132856
0.132579
0.132218
0.131847
0.131487
0.131127
0.130747
0.130347
0.129926
0.129488
0.129035
0.128564
0.128071
0.12756
0.127031
0.126483
0.12592
0.125346
0.124762
0.124176
0.134739
0.134632
0.134511
0.134371
0.13421
0.134028
0.133823
0.133591
0.133348
0.133096
0.13283
0.132526
0.132167
0.131787
0.13142
0.131056
0.130676
0.130278
0.129859
0.129425
0.128976
0.12851
0.128025
0.127522
0.127002
0.126466
0.125916
0.125355
0.124784
0.124213
0.134745
0.134656
0.134566
0.134476
0.134386
0.134295
0.134205
0.13412
0.134045
0.133984
0.133931
0.133864
0.133764
0.133644
0.133523
0.133404
0.133278
0.133143
0.132999
0.132849
0.132691
0.132527
0.132357
0.132181
0.132
0.131814
0.131622
0.131426
0.131225
0.131022
0.134745
0.134656
0.134566
0.134476
0.134386
0.134295
0.134206
0.134124
0.134055
0.134005
0.133969
0.133921
0.133837
0.133728
0.133614
0.133498
0.133375
0.133241
0.133097
0.132946
0.132787
0.132622
0.132451
0.132273
0.13209
0.131902
0.131709
0.13151
0.131308
0.131105
0.134745
0.134656
0.134567
0.134477
0.134386
0.134297
0.13421
0.134133
0.134077
0.134054
0.134063
0.134064
0.134018
0.133933
0.133835
0.133727
0.133606
0.133472
0.133326
0.133172
0.13301
0.13284
0.132664
0.132481
0.132293
0.132099
0.1319
0.131696
0.131489
0.13128
0.134745
0.134656
0.134567
0.134477
0.134387
0.134299
0.134217
0.13415
0.13412
0.134152
0.134247
0.134331
0.134342
0.134297
0.134219
0.134117
0.133993
0.133851
0.133696
0.13353
0.133354
0.133169
0.132977
0.132779
0.132575
0.132364
0.132149
0.131928
0.131704
0.131478
0.134745
0.134656
0.134567
0.134477
0.134388
0.134302
0.134227
0.134179
0.134197
0.131094
0.0988443
0.0967623
0.113544
0.134446
0.134416
0.134331
0.134205
0.134053
0.133881
0.133694
0.133492
0.133278
0.133055
0.132822
0.132581
0.132333
0.132077
0.131815
0.131546
0.131274
0.134745
0.134656
0.134567
0.134478
0.13439
0.134307
0.134241
0.134224
0.13432
0.0941452
0.0670837
0.0667326
0.0775625
0.0947309
0.115137
0.133463
0.133368
0.13321
0.133008
0.132766
0.132489
0.132184
0.131854
0.131503
0.13113
0.130739
0.130333
0.129911
0.129473
0.129022
0.134745
0.134656
0.134567
0.134478
0.134392
0.134313
0.134261
0.134292
0.109112
0.0645429
0.0440037
0.0503568
0.0540727
0.063736
0.0773487
0.0956861
0.116546
0.129006
0.128542
0.127937
0.127225
0.12644
0.1256
0.12472
0.123811
0.122881
0.12194
0.120982
0.120004
0.119009
0.134745
0.134656
0.134567
0.134479
0.134393
0.13432
0.134286
0.13438
0.0806819
0.044352
0.027149
0.0275317
0.0369168
0.041177
0.0511685
0.0712488
0.0925902
0.111862
0.109753
0.107592
0.105447
0.103377
0.101373
0.0994454
0.0975978
0.0958386
0.0941418
0.0924729
0.0908172
0.0891528
0.134745
0.134656
0.134568
0.134479
0.134395
0.134326
0.134309
0.124222
0.0631678
0.0309141
0.0178002
0.0153256
0.0270298
0.024382
0.0285251
0.0381401
0.0489293
0.0603867
0.0611577
0.059275
0.0576318
0.0561737
0.0548767
0.053697
0.0526012
0.0515641
0.050572
0.0496098
0.0486676
0.0477345
0.134745
0.134657
0.134568
0.13448
0.134397
0.13433
0.134325
0.112459
0.0531233
0.0241845
0.0106613
0.0079102
0.0204969
0.0183025
0.0215202
0.028469
0.0283444
0.0283333
0.0283674
0.0283925
0.028396
0.0283864
0.0283883
0.0283859
0.0283774
0.0283766
0.0283882
0.0284172
0.0284695
0.0285449
0.134745
0.134656
0.134568
0.13448
0.134397
0.13433
0.134325
0.112376
0.053139
0.0242314
0.0100032
0.00694276
0.021552
0.0140386
0.0176462
0.0297025
0.0287754
0.028307
0.0280661
0.0279489
0.0279333
0.0279954
0.0281302
0.028318
0.0285593
0.0288482
0.0291882
0.0295813
0.0300298
0.0305346
0.134745
0.134656
0.134567
0.134479
0.134395
0.134326
0.13431
0.123912
0.0630671
0.0309179
0.0136039
0.0101258
0.0286758
0.0202519
0.0255922
0.0353367
0.0487237
0.0476076
0.044874
0.0426491
0.040803
0.0392585
0.0379703
0.0369031
0.0360473
0.0353786
0.0348954
0.0345854
0.0344372
0.0344501
0.134745
0.134656
0.134567
0.134479
0.134394
0.13432
0.134287
0.134382
0.0802448
0.0442383
0.0270523
0.0271187
0.0352216
0.037597
0.0472253
0.0701388
0.094447
0.103612
0.0984325
0.0933847
0.0885487
0.0839604
0.0796197
0.0755161
0.0716057
0.067799
0.0641331
0.0606861
0.0574996
0.0546298
0.134745
0.134656
0.134567
0.134478
0.134392
0.134313
0.134262
0.134295
0.10831
0.063999
0.0437166
0.0490159
0.0515365
0.0580916
0.0692731
0.0837463
0.0977269
0.113994
0.127217
0.126043
0.124568
0.122793
0.120724
0.118369
0.115739
0.112859
0.109767
0.106508
0.103113
0.0996586
0.134745
0.134656
0.134567
0.134478
0.13439
0.134307
0.134242
0.134227
0.134327
0.0932066
0.0663205
0.0652029
0.0739099
0.0865964
0.101339
0.126818
0.133322
0.133183
0.132975
0.132706
0.132375
0.131973
0.131486
0.130907
0.130226
0.129439
0.12854
0.127525
0.126395
0.125171
0.134745
0.134656
0.134567
0.134477
0.134388
0.134303
0.134228
0.134181
0.134203
0.129516
0.0976143
0.0946935
0.108476
0.128512
0.134468
0.134413
0.134302
0.134156
0.133986
0.133796
0.133587
0.133356
0.133102
0.132823
0.132519
0.132185
0.131821
0.131426
0.130999
0.130559
0.134745
0.134656
0.134567
0.134477
0.134387
0.134299
0.134217
0.134152
0.134125
0.134161
0.134263
0.134356
0.134381
0.134356
0.134301
0.134214
0.134099
0.133962
0.133809
0.133642
0.133462
0.133271
0.133066
0.132847
0.132615
0.13237
0.13211
0.131836
0.131551
0.13127
0.134745
0.134656
0.134567
0.134477
0.134386
0.134297
0.134211
0.134135
0.134081
0.134062
0.134075
0.134083
0.134044
0.133971
0.133886
0.133789
0.133675
0.133544
0.133401
0.133246
0.133081
0.132907
0.132721
0.132525
0.132318
0.132101
0.131872
0.131634
0.131388
0.131144
0.134745
0.134656
0.134566
0.134476
0.134386
0.134296
0.134207
0.134126
0.134058
0.134011
0.133979
0.133935
0.133854
0.133749
0.133644
0.133536
0.133417
0.133286
0.133144
0.132992
0.132831
0.132663
0.132484
0.132297
0.1321
0.131893
0.131677
0.131452
0.13122
0.130988
0.134745
0.134656
0.134566
0.134476
0.134386
0.134295
0.134205
0.134121
0.134048
0.13399
0.13394
0.133874
0.133776
0.133658
0.133543
0.133429
0.133308
0.133175
0.133033
0.132881
0.132721
0.132553
0.132376
0.13219
0.131995
0.131791
0.131579
0.131358
0.131129
0.1309
0.134745
0.134657
0.134568
0.134481
0.134394
0.134309
0.134228
0.134153
0.13409
0.134041
0.134
0.133954
0.133889
0.133812
0.133735
0.13366
0.133583
0.133501
0.133417
0.13333
0.13324
0.133148
0.133055
0.132959
0.132862
0.132764
0.132663
0.132561
0.132458
0.132356
0.134745
0.134657
0.134568
0.134481
0.134394
0.13431
0.134229
0.134157
0.134098
0.134057
0.13403
0.133998
0.133945
0.133878
0.133807
0.133737
0.133662
0.133583
0.1335
0.133414
0.133325
0.133234
0.133142
0.133047
0.132951
0.132853
0.132753
0.132651
0.132548
0.132447
0.134745
0.134657
0.134569
0.134481
0.134395
0.134311
0.134232
0.134165
0.134117
0.134095
0.1341
0.134105
0.134084
0.134038
0.133982
0.13392
0.133851
0.133775
0.133695
0.13361
0.133523
0.133433
0.133341