/*--------------------------------*- C++ -*----------------------------------*\
| =========                 |                                                 |
| \\      /  F ield         | OpenFOAM: The Open Source CFD Toolbox           |
|  \\    /   O peration     | Version:  2512                                  |
|   \\  /    A nd           | Website:  www.openfoam.com                      |
|    \\/     M anipulation  |                                                 |
\*---------------------------------------------------------------------------*/
FoamFile
{
    version     2.0;
    format      ascii;
    arch        "LSB;label=32;scalar=64";
    class       volScalarField;
    location    "140";
    object      omega;
}
// * * * * * * * * * * * * * * * * * * * * * * * * * * * * * * * * * * * * * //

dimensions      [0 0 -1 0 0 0 0];

internalField   nonuniform List<scalar> 
84826
(
16.0845
15.8154
15.5584
15.3126
15.0772
14.8511
14.6337
14.4238
14.224
14.0347
13.855
13.6902
13.5278
13.367
13.2158
13.0679
12.9234
12.7826
12.6447
12.5101
12.3791
12.2516
12.1276
12.007
11.8896
11.7754
11.6643
11.556
11.4506
11.348
16.0846
15.8154
15.5586
15.313
15.0779
14.8522
14.6351
14.4256
14.2264
14.0378
13.8588
13.695
13.5333
13.373
13.2219
13.0739
12.9291
12.7882
12.6501
12.5152
12.3839
12.2561
12.1319
12.011
11.8934
11.779
11.6678
11.5594
11.4539
11.3512
16.0846
15.8156
15.5588
15.3134
15.0785
14.8533
14.6372
14.4283
14.2297
14.0424
13.8652
13.7037
13.5439
13.3843
13.2338
13.0858
12.941
12.7997
12.6607
12.5252
12.3936
12.2654
12.1408
12.0196
11.9018
11.7872
11.6756
11.5671
11.4614
11.3584
16.0846
15.8156
15.559
15.3136
15.079
14.8542
14.6389
14.4306
14.2334
14.0483
13.8743
13.7153
13.5588
13.4022
13.2528
13.1049
12.9597
12.8178
12.678
12.5418
12.4095
12.2808
12.1559
12.0343
11.9161
11.8011
11.6892
11.5802
11.4741
11.3709
16.0846
15.8157
15.5591
15.3139
15.0795
14.8552
14.6406
14.4332
14.2377
14.0558
13.8836
13.7004
13.551
13.4246
13.2772
13.1298
12.9842
12.8418
12.7012
12.5642
12.4313
12.3023
12.1772
12.0554
11.937
11.8218
11.7098
11.6007
11.4944
11.3908
16.0847
15.8157
15.5591
15.3141
15.0798
14.856
14.6421
14.4358
14.2428
14.0609
13.8921
13.7384
13.5929
13.4493
13.3048
13.1578
13.0113
12.8677
12.7257
12.5884
12.456
12.3283
12.2047
12.0849
11.9686
11.8553
11.745
11.6375
11.5329
11.4313
16.0847
15.8157
15.5592
15.3142
15.0801
14.8566
14.6432
14.44
14.2472
14.0667
13.9154
13.809
13.7028
13.5509
13.4083
13.2592
13.1114
12.975
12.8717
12.8007
12.7515
12.712
12.6741
12.6336
12.5877
12.5357
12.4785
12.4174
12.3577
12.2983
16.0847
15.8157
15.5593
15.3143
15.0803
14.8571
14.6445
14.4445
14.25
14.0745
27.8198
27.2918
26.981
26.8834
15.2751
15.1424
15.7727
16.5787
17.3695
18.0604
18.6101
19.0149
19.2937
19.4701
19.5647
19.5962
19.5802
19.534
19.4629
19.3899
16.0846
15.8157
15.5592
15.3143
15.0806
14.8575
14.6455
14.4471
14.2556
14.094
27.8879
27.9657
36.8118
57.629
44.3931
42.1455
40.5809
39.3002
38.2091
37.2436
36.3607
35.5378
34.7645
34.0343
33.3425
32.6874
32.0678
31.4878
30.9383
30.4263
16.0848
15.816
15.5598
15.3151
15.0815
14.8587
14.6472
14.448
14.2611
14.1259
28.0413
57.4591
162.409
244.549
58.1489
53.4303
50.984
48.9192
47.146
45.5883
44.1973
42.9462
41.8129
40.7771
39.8242
38.9444
38.1335
37.3855
36.7096
36.0635
16.0849
15.8164
15.5603
15.3157
15.0824
14.859
14.6472
14.448
14.2611
14.1263
28.104
59.9993
317.119
66.3309
61.7702
58.461
55.5852
53.0719
50.8547
48.8827
47.1282
45.5602
44.1498
42.8747
41.7183
40.6698
39.7136
38.8571
38.0422
16.0849
15.8161
15.5597
15.3149
15.0814
14.8578
14.6456
14.4471
14.2557
14.0946
27.9251
56.1073
92.8891
181.16
43.6834
41.3335
39.8534
38.7088
37.774
36.9656
36.2379
35.5717
34.9562
34.3863
33.8535
33.3551
32.8868
32.4469
32.0231
31.6397
16.0848
15.8158
15.5592
15.3142
15.0804
14.8572
14.6446
14.4447
14.2502
14.0751
27.8427
27.5227
28.5666
30.8531
14.9015
14.7118
14.8251
15.3607
16.1156
16.9325
17.7191
18.4426
19.0997
19.6865
20.2063
20.6624
21.0573
21.397
21.681
21.9272
16.0847
15.8158
15.5592
15.3142
15.0802
14.8567
14.6434
14.4402
14.2473
14.0671
13.9175
13.818
13.7166
13.5624
13.4185
13.2692
13.12
12.974
12.8329
12.7173
12.6423
12.6109
12.6254
12.6863
12.7915
12.9348
13.1089
13.3052
13.5199
13.7369
16.0847
15.8157
15.5592
15.3142
15.0799
14.8561
14.6422
14.436
14.2432
14.0614
13.8931
13.7405
13.5965
13.4533
13.3108
13.1653
13.02
12.8766
12.7336
12.5935
12.4579
12.3273
12.2024
12.0841
11.9734
11.8713
11.7786
11.6957
11.6232
11.5608
16.0847
15.8157
15.5591
15.314
15.0796
14.8553
14.6407
14.4334
14.2382
14.0565
13.8844
13.7012
13.5522
13.4275
13.2816
13.1352
12.99
12.8475
12.7061
12.5677
12.4327
12.3014
12.1736
12.0492
11.9283
11.8109
11.6969
11.5863
11.4792
11.3757
16.0847
15.8156
15.559
15.3137
15.0791
14.8543
14.639
14.4309
14.2338
14.0491
13.8756
13.7173
13.5617
13.4062
13.2576
13.1103
12.9651
12.823
12.6822
12.5446
12.4104
12.2797
12.1526
12.0288
11.9084
11.7912
11.6773
11.5663
11.4583
11.3533
16.0846
15.8156
15.5588
15.3134
15.0785
14.8533
14.6374
14.4285
14.2301
14.0431
13.8665
13.7055
13.5465
13.3876
13.2377
13.0902
12.9454
12.8041
12.6644
12.5275
12.394
12.2639
12.1374
12.0141
11.8942
11.7775
11.6639
11.5534
11.4458
11.3413
16.0846
15.8155
15.5586
15.313
15.0779
14.8523
14.6353
14.4259
14.2269
14.0386
13.8601
13.6968
13.5358
13.3759
13.2253
13.0776
12.9329
12.7919
12.6532
12.5172
12.3842
12.2545
12.1284
12.0055
11.886
11.7697
11.6565
11.5464
11.4392
11.3349
16.0845
15.8154
15.5584
15.3126
15.0772
14.8512
14.6339
14.4242
14.2246
14.0356
13.8564
13.6921
13.5302
13.3699
13.219
13.0713
12.9268
12.7859
12.6475
12.5118
12.3791
12.2497
12.1238
12.0012
11.8818
11.7658
11.6528
11.5429
11.4359
11.3319
1.93987
2.08184
2.20862
2.32311
2.42764
2.52403
2.61353
2.69783
2.78015
2.85943
2.93464
3.00273
3.06152
3.10877
3.14634
3.17711
3.20423
3.22851
3.25037
3.27042
3.28888
3.30563
3.32068
3.33415
3.34613
3.35669
3.36586
3.3738
3.38057
3.38629
1.93988
2.08191
2.20875
2.32337
2.42812
2.52493
2.61522
2.7005
2.78477
2.86697
2.94605
3.01841
3.08051
3.12955
3.16733
3.1978
3.22491
3.24902
3.27087
3.29102
3.30965
3.32664
3.34192
3.35554
3.36758
3.37804
3.38702
3.39465
3.40103
3.40625
1.93984
2.08201
2.20898
2.32382
2.42903
2.52675
2.6189
2.70627
2.79483
2.88369
2.97194
3.05419
3.12409
3.17708
3.21519
3.24485
3.27235
3.29597
3.31777
3.33796
3.35657
3.37342
3.38847
3.40173
3.41332
3.4232
3.43147
3.43829
3.44377
3.44801
1.93978
2.08211
2.20929
2.32446
2.43031
2.52927
2.62381
2.71507
2.81089
2.91189
3.01941
3.12065
3.20735
3.26771
3.30641
3.33452
3.36117
3.38452
3.40693
3.42823
3.44807
3.46593
3.48158
3.49509
3.50655
3.51602
3.5236
3.5295
3.53393
3.53701
1.93981
2.08211
2.20962
2.32525
2.4319
2.5325
2.63022
2.72734
2.83467
2.95845
3.09183
3.22709
3.3483
3.42411
3.46412
3.49062
3.51647
3.53934
3.5616
3.58298
3.60312
3.6211
3.63647
3.64914
3.65916
3.66665
3.67181
3.67488
3.6763
3.67624
1.93985
2.08214
2.20985
2.32609
2.43369
2.53621
2.63793
2.74345
2.86926
3.01723
3.20995
3.42017
3.61869
3.72562
3.77438
3.8023
3.83361
3.86513
3.89752
3.92927
3.96003
3.98801
4.01233
4.03249
4.04851
4.06042
4.06863
4.07358
4.07622
4.0768
1.93988
2.08227
2.21006
2.32675
2.4355
2.54006
2.64651
2.76415
2.90889
3.10997
3.45699
3.95228
4.4191
4.59956
4.70341
4.76381
4.82247
4.88324
4.94621
5.00975
5.0795
5.1476
5.20787
5.25763
5.29587
5.32268
5.34003
5.35061
5.35901
5.36824
1.9399
2.0824
2.21036
2.32731
2.43695
2.5435
2.65501
2.78808
2.95172
3.2772
3.69676
5.35329
7.6166
9.45734
13.4164
13.6166
13.7696
13.8808
13.9696
14.0409
14.0838
14.1004
14.0977
14.081
14.0545
14.0232
13.9924
13.9682
13.952
13.9581
1.93992
2.08251
2.21062
2.32788
2.43808
2.54627
2.66218
2.80847
3.00645
3.58579
4.68035
13.8664
37.7021
54.1909
99.5757
82.3427
70.335
61.542
54.9691
49.9108
45.9219
42.7157
40.0946
37.9165
36.0791
34.5106
33.1603
31.9911
30.9758
30.102
1.94003
2.08275
2.21103
2.32854
2.43918
2.54837
2.66691
2.81533
3.0537
3.93038
7.65928
568.28
1372.54
726.457
138.851
106.302
88.1525
76.0605
67.3298
60.699
55.4819
51.2749
47.8038
44.8768
42.3639
40.1773
38.2578
36.5517
35.0457
33.6419
1.94013
2.08293
2.21129
2.32883
2.4395
2.54818
2.66666
2.815
3.05399
3.93563
8.19412
358.355
109.572
90.6541
78.1706
68.91
61.7822
56.1605
51.6342
47.9317
44.8462
42.2229
39.9515
37.9585
36.1964
34.6182
33.2137
31.8931
1.94013
2.08266
2.21096
2.32807
2.43834
2.54603
2.66197
2.80813
3.00761
3.59776
5.89818
308.554
1135.31
541.935
112.348
90.7735
76.3555
66.1088
58.5826
52.8423
48.341
44.692
41.6882
39.125
36.9122
34.9804
33.2773
31.7587
30.3995
29.1525
1.94015
2.08239
2.21044
2.3272
2.43688
2.54344
2.65506
2.78862
2.95341
3.28713
3.95803
9.18258
19.5527
24.7146
17.9758
18.4144
18.6166
18.7015
18.749
18.7916
18.8343
18.8659
18.9046
18.9768
19.0826
19.2308
19.4027
19.5851
19.761
19.9383
1.94003
2.08229
2.21002
2.32671
2.43545
2.54002
2.64651
2.76443
2.90926
3.11374
3.47661
4.03518
4.57977
4.77675
4.89457
4.95253
4.99733
5.04059
5.08922
5.14826
5.22816
5.35835
5.53221
5.74631
5.99976
6.28914
6.61204
6.96328
7.34161
7.73879
1.93986
2.08213
2.2098
2.32605
2.43362
2.53611
2.63784
2.74348
2.86991
3.01853
3.21591
3.43707
3.64368
3.74702
3.79581
3.81673
3.83724
3.8581
3.88205
3.909
3.93873
3.97165
4.00987
4.05416
4.10579
4.16549
4.23433
4.31202
4.39989
4.49729
1.93981
2.0821
2.20959
2.32519
2.43181
2.53237
2.63005
2.72718
2.83468
2.95913
3.09282
3.2289
3.34853
3.42309
3.45931
3.47893
3.4963
3.51106
3.52647
3.54305
3.5615
3.58169
3.60412
3.62869
3.6553
3.68373
3.71373
3.74484
3.77717
3.81028
1.93977
2.0821
2.20925
2.32439
2.4302
2.52911
2.62358
2.71477
2.81055
2.91163
3.01953
3.12124
3.20733
3.26465
3.2994
3.32281
3.34356
3.36275
3.38134
3.4006
3.42054
3.4408
3.46123
3.48183
3.50254
3.52327
3.54398
3.56434
3.58442
3.60397
1.93984
2.08199
2.20894
2.32375
2.42891
2.52656
2.61862
2.70588
2.79429
2.88297
2.97096
3.0527
3.12129
3.17179
3.20672
3.23381
3.25779
3.28033
3.30077
3.31975
3.33828
3.3566
3.37474
3.3928
3.4109
3.42885
3.44665
3.46402
3.48096
3.49716
1.93988
2.08189
2.20871
2.32329
2.42799
2.52473
2.61491
2.70005
2.7841
2.86601
2.94463
3.0162
3.07691
3.12379
3.15893
3.18771
3.21301
3.2374
3.2592
3.27919
3.29777
3.31554
3.3329
3.34989
3.36657
3.38278
3.3985
3.41357
3.42801
3.44156
1.93986
2.08182
2.20857
2.32303
2.4275
2.52381
2.61321
2.69735
2.77945
2.85839
2.93308
3.00032
3.05774
3.10302
3.13826
3.1677
3.1938
3.21888
3.2413
3.26181
3.28078
3.29843
3.31555
3.33221
3.34845
3.36418
3.37935
3.39382
3.40767
3.4206
1.77772
1.77827
1.78111
1.78587
1.79226
1.80008
1.80895
1.82032
1.83305
1.84737
1.86291
1.87821
1.89251
1.90467
1.91526
1.92466
1.93338
1.94274
1.95113
1.95915
1.96696
1.97452
1.98181
1.98879
1.99552
2.00194
2.00795
2.01364
2.01901
2.02411
1.77772
1.77827
1.78112
1.78589
1.79232
1.80021
1.80927
1.82096
1.83413
1.84932
1.86614
1.88266
1.89867
1.91171
1.92269
1.93237
1.94115
1.9506
1.95913
1.96734
1.97533
1.9831
1.99056
1.99774
2.00461
2.01108
2.01712
2.02279
2.02813
2.03315
1.77772
1.77828
1.78114
1.78594
1.79243
1.80052
1.81008
1.82207
1.83634
1.85361
1.87363
1.89352
1.91284
1.92782
1.93963
1.94972
1.95848
1.96791
1.97674
1.98533
1.99371
2.0018
2.00958
2.01702
2.02407
2.03062
2.03672
2.0424
2.04769
2.05263
1.77772
1.77829
1.78117
1.78601
1.7926
1.80091
1.81108
1.82391
1.84021
1.86136
1.88642
1.91197
1.93831
1.95744
1.97098
1.98176
1.99134
2.00119
2.01078
2.02026
2.02952
2.03844
2.04701
2.05504
2.06255
2.06947
2.07583
2.08171
2.08715
2.09219
1.77772
1.77829
1.7812
1.78609
1.79281
1.80141
1.81232
1.8266
1.84629
1.87305
1.91013
1.94867
1.98927
2.0153
2.03213
2.04422
2.055
2.06587
2.07679
2.08779
2.09866
2.10918
2.11924
2.12852
2.13702
2.14474
2.15172
2.15803
2.16381
2.16913
1.77773
1.77829
1.78122
1.78619
1.79305
1.80201
1.81382
1.83035
1.85464
1.89393
1.96944
2.04723
2.11973
2.15701
2.17811
2.19385
2.20957
2.22623
2.24381
2.26204
2.28053
2.29863
2.3164
2.33324
2.34905
2.36368
2.37714
2.38952
2.40113
2.41209
1.77773
1.77831
1.78125
1.78627
1.7933
1.80267
1.8156
1.83533
1.86715
1.94137
2.13067
2.37691
2.55409
2.6293
2.68276
2.74023
2.8041
2.87067
2.93822
3.00541
3.0701
3.13616
3.20146
3.26288
3.31882
3.36821
3.4113
3.44857
3.48233
3.51243
1.77773
1.77832
1.78128
1.78633
1.79351
1.80328
1.81751
1.84044
1.88759
2.05983
2.26428
3.46479
4.35149
4.85196
8.90257
9.84379
10.4687
10.8742
11.1336
11.2973
11.3917
11.4235
11.4098
11.3624
11.2906
11.2021
11.1034
11.0002
10.8996
10.8073
1.77773
1.77833
1.78132
1.78641
1.79368
1.80377
1.81918
1.84569
1.91955
2.34727
3.34349
14.7114
34.1347
35.879
82.4298
69.031
59.5622
52.6352
47.2711
42.9812
39.4084
36.3933
33.7977
31.5422
29.5708
27.8411
26.3222
24.989
23.8235
22.823
1.77774
1.77834
1.78134
1.78648
1.79382
1.80411
1.8202
1.84893
1.95663
2.76161
6.68153
586.379
489.397
328.167
139.882
102.557
82.0278
68.9434
59.663
52.7798
47.4225
43.1292
39.6072
36.6619
34.1609
32.0118
30.1481
28.5193
27.0892
25.8291
1.77774
1.77835
1.78134
1.78648
1.79384
1.80415
1.82024
1.84896
1.95689
2.76336
7.23615
181.192
122.879
92.823
76.0854
65.0768
57.1019
51.0529
46.2706
42.4217
39.2327
36.5391
34.2295
32.227
30.4763
28.9341
27.5705
26.3541
1.77773
1.77833
1.78132
1.78641
1.7937
1.80383
1.81926
1.84581
1.9203
2.35136
4.48729
365.819
426.969
296.784
85.147
70.5989
60.5721
53.3975
48.0316
43.8614
40.5011
37.6994
35.3381
33.3081
31.5583
30.0301
28.6852
27.4911
26.4259
25.4655
1.77773
1.77832
1.78128
1.78633
1.79353
1.80331
1.81757
1.84058
1.88827
2.06378
2.54184
6.40191
10.5196
13.4955
10.2722
11.5597
12.408
13.0313
13.5265
13.9479
14.2967
14.5985
14.8658
15.1043
15.3228
15.526
15.7165
15.892
16.052
16.1985
1.77773
1.77831
1.78123
1.78627
1.79331
1.80267
1.81563
1.83545
1.86751
1.94322
2.13897
2.40406
2.60256
2.69018
2.74602
2.80601
2.87846
2.968
3.07655
3.20406
3.34668
3.50625
3.67849
3.87076
4.08258
4.31254
4.56239
4.83296
5.12719
5.4351
1.77773
1.77829
1.78122
1.78618
1.79304
1.802
1.81382
1.83041
1.85481
1.89466
1.97241
2.0558
2.13271
2.17167
2.19144
2.20605
2.22076
2.23709
2.25586
2.27759
2.30253
2.33075
2.3623
2.39738
2.43697
2.48255
2.53475
2.59315
2.65828
2.7297
1.77772
1.77829
1.7812
1.78609
1.7928
1.8014
1.81231
1.82662
1.84641
1.87334
1.91091
1.95055
1.99169
2.01695
2.03326
2.04479
2.05456
2.06369
2.07288
2.08318
2.09454
2.10702
2.12067
2.13539
2.15146
2.16871
2.18736
2.20744
2.22877
2.25129
1.77772
1.77829
1.78117
1.786
1.79259
1.80089
1.81106
1.8239
1.84024
1.8615
1.88661
1.91229
1.93823
1.95695
1.96984
1.98003
1.98917
1.99814
2.00676
2.01567
2.02509
2.03494
2.0453
2.05604
2.06723
2.07881
2.09068
2.10295
2.1155
2.1283
1.77772
1.77828
1.78114
1.78593
1.79242
1.8005
1.81005
1.82204
1.83631
1.8536
1.87364
1.89349
1.91255
1.927
1.93814
1.94775
1.95656
1.96543
1.97384
1.98204
1.99041
1.99904
2.00794
2.01714
2.02663
2.03628
2.04612
2.05604
2.06599
2.076
1.77772
1.77827
1.78112
1.78588
1.7923
1.80019
1.80924
1.82091
1.83407
1.84924
1.86601
1.88237
1.89804
1.91056
1.92095
1.93035
1.93921
1.94793
1.95637
1.96455
1.9726
1.98077
1.98908
1.99756
2.00623
2.01494
2.02367
2.0324
2.04108
2.04965
1.77772
1.77826
1.78111
1.78586
1.79224
1.80005
1.80891
1.82027
1.83298
1.84726
1.86272
1.87783
1.89177
1.90342
1.91347
1.92277
1.93159
1.94037
1.94883
1.95701
1.96502
1.97304
1.98117
1.98939
1.99778
2.00624
2.01464
2.02299
2.03131
2.03943
1.77423
1.7686
1.76319
1.75806
1.75324
1.74878
1.74474
1.74138
1.73874
1.737
1.73605
1.73527
1.73401
1.73233
1.73061
1.72896
1.72732
1.72576
1.72431
1.72289
1.72157
1.72036
1.71924
1.7182
1.71721
1.71627
1.7154
1.71455
1.71373
1.71296
1.77423
1.7686
1.7632
1.75807
1.75325
1.7488
1.7448
1.74153
1.73907
1.73768
1.73729
1.73698
1.73647
1.73515
1.73366
1.73214
1.73058
1.72909
1.72773
1.7264
1.72518
1.72407
1.72304
1.72208
1.72117
1.72032
1.7195
1.71869
1.7179
1.71714
1.77423
1.7686
1.7632
1.75807
1.75327
1.74886
1.74491
1.74187
1.73982
1.73927
1.74031
1.74136
1.74251
1.74206
1.74105
1.7398
1.73841
1.73721
1.73596
1.73479
1.73373
1.73277
1.7319
1.73109
1.73031
1.7296
1.72888
1.72816
1.72746
1.72677
1.77423
1.7686
1.7632
1.75808
1.7533
1.74895
1.74516
1.74241
1.74117
1.74234
1.74616
1.75052
1.75422
1.75553
1.75553
1.75478
1.7537
1.75281
1.75194
1.75118
1.75054
1.75
1.74952
1.74907
1.74866
1.74824
1.74781
1.74736
1.7469
1.74645
1.77423
1.7686
1.76321
1.7581
1.75334
1.74906
1.7455
1.74328
1.74348
1.74772
1.75853
1.76973
1.77985
1.78425
1.78611
1.78637
1.78587
1.7856
1.78548
1.78558
1.78589
1.78633
1.78681
1.78731
1.78782
1.78825
1.78862
1.78894
1.78924
1.78954
1.77423
1.7686
1.76321
1.75811
1.75339
1.74921
1.74596
1.74464
1.74722
1.75906
1.7898
1.8219
1.84522
1.85614
1.86084
1.86357
1.86565
1.86838
1.87162
1.87542
1.87966
1.88417
1.88878
1.89341
1.89795
1.90235
1.90664
1.91086
1.91511
1.91939
1.77423
1.76861
1.76322
1.75813
1.75345
1.74939
1.74656
1.7466
1.75392
1.78519
1.87381
1.97595
2.03499
2.06475
2.08095
2.09634
2.11766
2.14347
2.17133
2.20053
2.23014
2.25931
2.28718
2.31324
2.3373
2.35968
2.38084
2.40138
2.42168
2.4419
1.77424
1.76862
1.76323
1.75815
1.75351
1.74958
1.74725
1.74915
1.76576
1.8508
1.95925
2.48405
2.77953
2.8892
3.53691
3.72375
3.92323
4.11944
4.30482
4.47766
4.63349
4.76724
4.87846
4.96619
5.03607
5.09287
5.1415
5.18671
5.2315
5.27879
1.77424
1.76862
1.76324
1.75818
1.75358
1.74976
1.74791
1.75212
1.78406
1.99928
2.51305
6.48669
10.1494
11.1792
24.5553
23.0927
21.7439
20.5471
19.5198
18.6338
17.8397
17.1227
16.4722
15.8879
15.357
14.8738
14.4348
14.0362
13.6772
13.3604
1.77424
1.76863
1.76326
1.75821
1.75364
1.74989
1.74839
1.75442
1.80442
2.22708
4.05631
264.983
430.192
277.515
87.313
69.8403
58.3046
50.2492
44.3007
39.8071
36.2211
33.2891
30.871
28.8279
27.077
25.5578
24.227
23.0505
22.0045
21.0676
1.77424
1.76863
1.76326
1.7582
1.75361
1.74989
1.74839
1.75443
1.80449
2.22661
4.4205
439.219
477.962
286.698
78.5495
64.6971
55.0605
48.1651
43.0232
39.0232
35.8007
33.1608
30.9534
29.0736
27.4687
26.0745
24.8529
23.7737
22.8139
21.9556
1.77423
1.76861
1.76323
1.75817
1.75356
1.74976
1.74793
1.75219
1.78439
2.00014
2.95554
130.212
196.864
360.921
31.3589
29.5576
27.9366
26.5942
25.4865
24.5554
23.7593
23.0841
22.5041
21.9824
21.5106
21.0622
20.6355
20.2217
19.8252
19.4425
1.77423
1.76861
1.76322
1.75815
1.75351
1.74959
1.74727
1.74923
1.7661
1.85218
2.09915
3.44088
4.16994
4.44279
4.11512
4.72832
5.25899
5.70764
6.11397
6.50044
6.89686
7.3016
7.71628
8.13564
8.55549
8.96716
9.36704
9.75197
10.1239
10.4746
1.77423
1.76861
1.76322
1.75813
1.75345
1.7494
1.74658
1.74668
1.7542
1.78615
1.87696
1.98461
2.05022
2.08441
2.10746
2.13249
2.1688
2.21155
2.26039
2.31771
2.38512
2.46502
2.55954
2.67234
2.8048
2.95569
3.12269
3.30401
3.49822
3.70276
1.77423
1.7686
1.76321
1.75811
1.75339
1.74922
1.74598
1.7447
1.74738
1.75959
1.79132
1.82582
1.85145
1.86427
1.86988
1.87338
1.87655
1.87983
1.88354
1.88867
1.89587
1.90555
1.91802
1.9338
1.95319
1.97626
2.00299
2.03324
2.06686
2.10345
1.77423
1.7686
1.76321
1.7581
1.75334
1.74907
1.74552
1.74333
1.74361
1.748
1.75919
1.77112
1.78205
1.78682
1.78923
1.79002
1.78973
1.78924
1.78867
1.78836
1.78869
1.78969
1.7914
1.79389
1.79723
1.80142
1.8065
1.81246
1.81936
1.82719
1.77423
1.7686
1.7632
1.75808
1.7533
1.74895
1.74517
1.74245
1.74126
1.74252
1.74647
1.75102
1.75488
1.7564
1.75654
1.75606
1.75515
1.75415
1.75316
1.75223
1.75152
1.75116
1.75113
1.75144
1.75215
1.75323
1.75468
1.75648
1.75867
1.76119
1.77423
1.7686
1.7632
1.75807
1.75327
1.74886
1.74492
1.74189
1.73988
1.7394
1.74051
1.74163
1.74283
1.74238
1.74137
1.74021
1.73895
1.73761
1.73633
1.73509
1.73398
1.73311
1.7325
1.73217
1.73209
1.73231
1.73278
1.73347
1.73439
1.7355
1.77423
1.7686
1.76319
1.75807
1.75325
1.7488
1.74481
1.74155
1.73911
1.73776
1.73742
1.73711
1.73655
1.73516
1.73362
1.73214
1.73069
1.7292
1.72782
1.72649
1.72526
1.72419
1.72336
1.72274
1.72233
1.72216
1.72218
1.72238
1.72275
1.72326
1.77423
1.76859
1.76319
1.75806
1.75324
1.74878
1.74474
1.7414
1.73878
1.73707
1.73614
1.73533
1.73399
1.73221
1.73043
1.7288
1.72726
1.72571
1.72427
1.72289
1.72161
1.72049
1.71957
1.71887
1.71836
1.71805
1.71794
1.71799
1.71818
1.71849
1.77415
1.7683
1.7625
1.75676
1.7511
1.74552
1.74007
1.73487
1.73002
1.7256
1.72152
1.71743
1.71297
1.70829
1.70368
1.69917
1.6947
1.69021
1.68579
1.6814
1.67707
1.67281
1.66862
1.66451
1.66047
1.6565
1.6526
1.64876
1.645
1.64134
1.77415
1.7683
1.7625
1.75676
1.7511
1.74553
1.7401
1.73495
1.7302
1.72597
1.72222
1.71848
1.71433
1.70986
1.70538
1.70095
1.69652
1.69206
1.68767
1.68331
1.67901
1.67478
1.67063
1.66655
1.66254
1.6586
1.65471
1.65091
1.64717
1.64353
1.77415
1.7683
1.7625
1.75677
1.75111
1.74556
1.74017
1.73512
1.73061
1.72687
1.72393
1.72111
1.71771
1.71375
1.70958
1.70532
1.701
1.69662
1.69229
1.68799
1.68374
1.67957
1.67548
1.67146
1.66751
1.66362
1.6598
1.65605
1.65237
1.64878
1.77415
1.7683
1.76251
1.75677
1.75112
1.7456
1.74029
1.73543
1.73139
1.72864
1.72746
1.72658
1.72473
1.72179
1.71824
1.71434
1.71024
1.706
1.70182
1.69764
1.69353
1.68949
1.68553
1.68164
1.67783
1.67406
1.67038
1.66676
1.6632
1.65974
1.77415
1.7683
1.76251
1.75678
1.75114
1.74566
1.74048
1.73594
1.73274
1.73197
1.73482
1.73831
1.73956
1.73865
1.7363
1.73312
1.72939
1.72551
1.7216
1.71774
1.71396
1.71028
1.7067
1.70319
1.69975
1.69639
1.6931
1.6899
1.68676
1.68374
1.77415
1.7683
1.76251
1.75679
1.75117
1.74575
1.74074
1.73673
1.73504
1.73857
1.75167
1.76574
1.77422
1.77749
1.77764
1.77611
1.77352
1.7708
1.76796
1.76526
1.76276
1.76044
1.75828
1.75625
1.75434
1.75257
1.75093
1.74942
1.7481
1.74698
1.77415
1.7683
1.76251
1.7568
1.7512
1.74585
1.74108
1.73791
1.739
1.75292
1.79372
1.82999
1.85505
1.86893
1.87474
1.87736
1.87935
1.88208
1.8851
1.88892
1.89348
1.89851
1.90388
1.90944
1.91511
1.92087
1.92668
1.93265
1.93894
1.94561
1.77415
1.76831
1.76253
1.75681
1.75123
1.74596
1.7415
1.73948
1.74592
1.78302
1.90466
2.0456
2.11218
2.14652
2.17288
2.19391
2.22341
2.26193
2.30079
2.33975
2.37817
2.41534
2.4513
2.4859
2.51903
2.55046
2.58094
2.61145
2.64257
2.67523
1.77416
1.76831
1.76254
1.75683
1.75128
1.74606
1.7419
1.74132
1.75533
1.84215
1.99809
2.73298
3.10494
3.22451
3.77885
3.9734
4.15303
4.31957
4.45583
4.56621
4.65826
4.73752
4.80457
4.86349
4.91744
4.96923
5.02032
5.0726
5.1275
5.18687
1.77416
1.76832
1.76255
1.75686
1.75133
1.74615
1.74218
1.74268
1.76494
1.92051
2.39506
6.02342
10.2574
14.8765
11.1614
11.42
11.377
11.2204
11.0263
10.8409
10.6775
10.5362
10.4072
10.2998
10.2167
10.1513
10.1017
10.0656
10.0406
10.0267
1.77416
1.76831
1.76254
1.75685
1.75131
1.74615
1.74218
1.74269
1.76494
1.91994
2.45602
7.25435
8.63589
10.4137
9.80254
11.1969
11.9794
12.4529
12.7592
12.9726
13.1138
13.2057
13.2522
13.272
13.2657
13.244
13.2086
13.1634
13.1119
13.0557
1.77415
1.76831
1.76252
1.75682
1.75126
1.74606
1.74191
1.74136
1.75545
1.84235
2.11775
3.7735
4.36399
4.49683
4.30909
5.01988
5.62453
6.11764
6.55169
6.95082
7.32474
7.67935
8.01708
8.34022
8.6467
8.94
9.21744
9.48042
9.729
9.96012
1.77415
1.7683
1.76252
1.75681
1.75123
1.74596
1.74152
1.73953
1.74612
1.78354
1.90588
2.04908
2.11859
2.15783
2.1924
2.24152
2.33982
2.45793
2.58545
2.7214
2.86539
3.01728
3.17745
3.3467
3.52799
3.72826
3.9488
4.18699
4.44124
4.70702
1.77415
1.7683
1.76251
1.7568
1.7512
1.74585
1.7411
1.73797
1.73916
1.75345
1.79501
1.83344
1.86119
1.87774
1.88578
1.89054
1.8969
1.90599
1.91722
1.93085
1.9482
1.97013
1.99714
2.02972
2.06853
2.11395
2.16627
2.22564
2.29245
2.36633
1.77415
1.7683
1.76251
1.75679
1.75117
1.74575
1.74075
1.73678
1.73516
1.7389
1.75249
1.76756
1.77739
1.78204
1.7834
1.78254
1.78033
1.77785
1.77531
1.77299
1.77121
1.77027
1.77042
1.77181
1.77457
1.77888
1.78483
1.79256
1.80222
1.81382
1.77415
1.7683
1.76251
1.75678
1.75115
1.74567
1.74049
1.73598
1.73284
1.73218
1.73526
1.73917
1.74096
1.74064
1.73893
1.73617
1.73265
1.72883
1.7249
1.72095
1.7171
1.71347
1.71013
1.7071
1.70443
1.70218
1.70039
1.69907
1.69827
1.69803
1.77415
1.7683
1.76251
1.75677
1.75113
1.74561
1.74031
1.73547
1.73146
1.72879
1.72773
1.72702
1.72538
1.72271
1.71944
1.71579
1.71184
1.70768
1.70352
1.69932
1.69517
1.6911
1.6872
1.68345
1.67988
1.67649
1.67333
1.67037
1.66763
1.66514
1.77415
1.7683
1.7625
1.75677
1.75111
1.74556
1.74018
1.73516
1.73068
1.72699
1.72412
1.72138
1.71807
1.71421
1.71016
1.70604
1.70182
1.69749
1.69317
1.68885
1.68457
1.68037
1.67629
1.67234
1.66852
1.66484
1.66132
1.65794
1.65472
1.65166
1.77415
1.7683
1.7625
1.75677
1.7511
1.74554
1.74012
1.73498
1.73025
1.72607
1.72236
1.71866
1.71453
1.71009
1.70566
1.70132
1.69696
1.69254
1.68816
1.6838
1.67948
1.67523
1.67109
1.66706
1.66314
1.65935
1.65567
1.65213
1.64871
1.64543
1.77415
1.7683
1.7625
1.75676
1.75109
1.74553
1.74008
1.7349
1.73007
1.72568
1.72164
1.71756
1.7131
1.70842
1.70383
1.69939
1.69497
1.69052
1.6861
1.68172
1.67738
1.67311
1.66895
1.66489
1.66094
1.65711
1.6534
1.6498
1.64632
1.64298
1.77415
1.76829
1.76248
1.75671
1.75099
1.74534
1.73976
1.73436
1.72919
1.72428
1.71958
1.71483
1.70983
1.7047
1.6996
1.69457
1.68956
1.68451
1.67949
1.67447
1.66948
1.66452
1.6596
1.65472
1.64989
1.64509
1.64034
1.63564
1.63098
1.6264
1.77415
1.76829
1.76248
1.75671
1.751
1.74535
1.73978
1.73442
1.72931
1.72454
1.72004
1.71552
1.71072
1.70572
1.70072
1.69574
1.69075
1.68572
1.68071
1.67571
1.67072
1.66577
1.66086
1.656
1.65117
1.64639
1.64164
1.63695
1.6323
1.62773
1.77415
1.76829
1.76248
1.75671
1.751
1.74537
1.73983
1.73454
1.7296
1.72514
1.72115
1.71722
1.7129
1.70824
1.70344
1.69858
1.69366
1.68866
1.68368
1.67869
1.67372
1.66879
1.6639
1.65905
1.65424
1.64948
1.64476
1.64008
1.63545
1.63091
1.77415
1.76829
1.76248
1.75672
1.75101
1.7454
1.73991
1.73475
1.73012
1.72629
1.72338
1.72064
1.7173
1.71329
1.70889
1.70426
1.69947
1.69455
1.68963
1.68469
1.67977
1.67488
1.67004
1.66524
1.66048
1.65577
1.65109
1.64647
1.6419
1.63741
1.77415
1.76829
1.76248
1.75672
1.75103
1.74544
1.74006
1.7351
1.73101
1.72838
1.72769
1.72735
1.72585
1.72309
1.71946
1.7153
1.71078
1.70605
1.70128
1.69646
1.69167
1.68691
1.68221
1.67755
1.67294
1.66838
1.66387
1.65941
1.65502
1.65072
1.77415
1.76829
1.76249
1.75673
1.75105
1.7455
1.74024
1.73562
1.73247
1.73215
1.73637
1.74128
1.74346
1.74308
1.74094
1.73773
1.73374
1.72959
1.72522
1.7208
1.71641
1.7121
1.70787
1.70371
1.69963
1.69561
1.69168
1.68784
1.68412
1.68053
1.77415
1.7683
1.76249
1.75674
1.75107
1.74557
1.74047
1.73638
1.73477
1.73923
1.75515
1.77101
1.78073
1.78528
1.78654
1.78554
1.78322
1.78054
1.77745
1.77431
1.7713
1.76856
1.76604
1.76373
1.76161
1.75968
1.75797
1.75648
1.75527
1.75438
1.77415
1.7683
1.7625
1.75674
1.75109
1.74565
1.74075
1.73737
1.73828
1.75276
1.7963
1.83212
1.85678
1.86981
1.87683
1.87971
1.88123
1.88345
1.88588
1.88876
1.89236
1.89653
1.90131
1.90662
1.91245
1.91876
1.92556
1.93297
1.94105
1.94991
1.77415
1.76831
1.76252
1.75676
1.75111
1.74572
1.74101
1.73837
1.74291
1.77375
1.87151
1.97493
2.02555
2.05172
2.0797
2.1025
2.12694
2.15689
2.18974
2.22188
2.25333
2.28361
2.31378
2.3437
2.37329
2.40294
2.43295
2.46379
2.49567
2.52898
1.77416
1.76831
1.76253
1.75679
1.75114
1.74577
1.74119
1.73911
1.74664
1.79857
1.99873
2.18257
2.34838
2.39729
2.50265
2.61095
2.71625
2.82196
2.92584
3.01877
3.10359
3.18204
3.25772
3.33096
3.40307
3.47561
3.54937
3.62473
3.70194
3.78118
1.77416
1.76831
1.76251
1.75678
1.75114
1.74577
1.74119
1.73911
1.74665
1.79854
1.99668
2.17207
2.30354
2.34432
2.43955
2.57549
2.73614
2.9186
3.09732
3.27174
3.44301
3.60934
3.77371
3.934
4.09112
4.24503
4.39582
4.54446
4.69146
4.83802
1.77415
1.7683
1.76249
1.75675
1.75111
1.74572
1.74102
1.73839
1.74297
1.7739
1.87126
1.97335
2.02316
2.05108
2.0831
2.12479
2.19486
2.28767
2.39042
2.49956
2.61451
2.73488
2.86021
2.99046
3.12637
3.26729
3.41376
3.56533
3.72192
3.88142
1.77415
1.7683
1.76249
1.75674
1.75109
1.74566
1.74076
1.7374
1.73837
1.75308
1.79693
1.83366
1.85967
1.87547
1.88414
1.88921
1.89664
1.90896
1.92429
1.94296
1.96528
1.99131
2.02099
2.05451
2.0922
2.13481
2.18371
2.24075
2.30911
2.38965
1.77415
1.7683
1.76249
1.75674
1.75107
1.74558
1.74049
1.73642
1.73487
1.73949
1.75586
1.77247
1.78343
1.7894
1.79186
1.79157
1.78994
1.78818
1.78629
1.78464
1.78365
1.78362
1.78484
1.7877
1.79241
1.79921
1.80844
1.8205
1.83594
1.85496
1.77415
1.76829
1.76249
1.75673
1.75105
1.74551
1.74025
1.73566
1.73256
1.73235
1.73682
1.74216
1.74499
1.74536
1.74393
1.74112
1.73734
1.73328
1.72893
1.7245
1.72016
1.71601
1.71212
1.7086
1.70554
1.703
1.70108
1.69985
1.69942
1.69991
1.77415
1.76829
1.76248
1.75672
1.75103
1.74545
1.74007
1.73513
1.73109
1.72853
1.72797
1.72785
1.72665
1.72427
1.72105
1.71715
1.71277
1.70811
1.70335
1.69851
1.69366
1.68886
1.68415
1.67956
1.67509
1.67078
1.66665
1.66272
1.65903
1.65564
1.77415
1.76829
1.76248
1.75672
1.75101
1.7454
1.73993
1.73478
1.73018
1.72641
1.72358
1.72095
1.71776
1.71394
1.70973
1.70526
1.70056
1.69568
1.69078
1.68583
1.68088
1.67596
1.67109
1.66629
1.66157
1.65693
1.65238
1.64793
1.64359
1.63942
1.77415
1.76829
1.76248
1.75671
1.751
1.74537
1.73984
1.73457
1.72965
1.72524
1.7213
1.71743
1.71319
1.70862
1.70391
1.69914
1.69427
1.6893
1.68433
1.67933
1.67433
1.66937
1.66445
1.65958
1.65478
1.65004
1.64537
1.64077
1.63625
1.63186
1.77415
1.76829
1.76248
1.75671
1.751
1.74535
1.7398
1.73444
1.72936
1.72462
1.72016
1.71568
1.71091
1.70595
1.701
1.69608
1.69113
1.68612
1.68111
1.6761
1.67109
1.66612
1.66119
1.6563
1.65147
1.6467
1.64198
1.63733
1.63275
1.62827
1.77414
1.76829
1.76248
1.75671
1.75099
1.74534
1.73977
1.73438
1.72923
1.72436
1.71968
1.71496
1.70997
1.70485
1.69979
1.6948
1.68981
1.68478
1.67976
1.67474
1.66973
1.66474
1.65981
1.65491
1.65008
1.64529
1.64057
1.6359
1.6313
1.6268
1.77415
1.76829
1.76248
1.75671
1.75099
1.74533
1.73973
1.73428
1.729
1.72392
1.71897
1.714
1.70888
1.70368
1.69851
1.69337
1.68826
1.68311
1.67798
1.67287
1.66776
1.66268
1.65763
1.65261
1.64761
1.64265
1.63773
1.63283
1.62797
1.62318
1.77415
1.76829
1.76248
1.75671
1.75099
1.74533
1.73974
1.73432
1.72909
1.7241
1.71928
1.71447
1.70948
1.70437
1.69926
1.69416
1.68906
1.68393
1.67881
1.6737
1.6686
1.66352
1.65847
1.65345
1.64847
1.64351
1.63858
1.63369
1.62884
1.62405
1.77415
1.76829
1.76248
1.75671
1.75099
1.74535
1.73978
1.73441
1.7293
1.72451
1.72002
1.71557
1.7109
1.70602
1.70105
1.69604
1.69098
1.68587
1.68077
1.67566
1.67057
1.66549
1.66045
1.65544
1.65045
1.6455
1.64059
1.6357
1.63085
1.62607
1.77415
1.76829
1.76248
1.75671
1.751
1.74537
1.73984