/*--------------------------------*- C++ -*----------------------------------*\
| =========                 |                                                 |
| \\      /  F ield         | OpenFOAM: The Open Source CFD Toolbox           |
|  \\    /   O peration     | Version:  2512                                  |
|   \\  /    A nd           | Website:  www.openfoam.com                      |
|    \\/     M anipulation  |                                                 |
\*---------------------------------------------------------------------------*/
FoamFile
{
    version     2.0;
    format      ascii;
    arch        "LSB;label=32;scalar=64";
    class       volScalarField;
    location    "140";
    object      omega;
}
// * * * * * * * * * * * * * * * * * * * * * * * * * * * * * * * * * * * * * //

dimensions      [0 0 -1 0 0 0 0];

internalField   nonuniform List<scalar> 
90398
(
16.0852
15.8175
15.5637
15.3269
15.108
14.9102
14.7377
14.5696
14.5739
17.7055
34.0495
66.8369
114.115
161.06
198.532
226.888
248.363
264.75
277.568
287.875
296.489
304.053
311.088
318.006
325.127
332.683
340.791
349.469
358.869
369.852
16.0854
15.8181
15.565
15.3286
15.1102
14.9123
14.7388
14.5761
14.7466
20.0938
40.9509
76.2537
120.593
163.602
198.49
225.387
246.031
261.893
274.337
284.337
292.676
299.982
306.768
313.444
320.346
327.693
335.623
344.154
353.467
364.317
16.0856
15.8189
15.5666
15.331
15.1129
14.915
14.7387
14.5873
14.9675
22.1381
46.0698
82.9207
126.1
165.026
196.721
221.53
240.812
255.738
267.461
276.879
284.724
291.6
298.007
304.368
311.005
318.136
325.907
334.335
343.577
354.28
16.0858
15.8196
15.5687
15.3334
15.1155
14.9176
14.7428
14.6053
15.1871
23.6173
50.0779
88.2815
128.956
164.242
192.936
215.487
233.056
246.66
257.317
265.859
272.984
279.274
285.215
291.236
297.631
304.617
312.323
320.752
329.999
340.569
16.0861
15.8204
15.5706
15.3355
15.1174
14.9186
14.7451
14.6202
15.3636
24.4549
52.472
92.0323
129.76
162.007
187.782
207.806
223.226
235.047
244.219
251.549
257.711
263.265
268.694
274.387
280.622
287.584
295.366
303.936
313.291
323.769
16.0863
15.8211
15.5719
15.3384
15.1213
14.9186
14.7331
14.6289
15.4416
24.3982
53.2681
94.5446
130.413
159.648
182.342
199.281
211.894
221.321
228.506
234.242
239.182
243.884
248.786
254.231
260.455
267.578
275.623
284.494
294.07
304.507
16.0864
15.8217
15.5725
15.3394
15.124
14.9215
14.7353
14.6329
15.345
22.8796
51.7833
99.8751
135.852
162.49
180.371
192.374
200.597
206.403
210.738
214.296
217.69
221.421
225.854
231.254
237.738
245.295
253.831
263.158
273.03
283.431
16.0866
15.8218
15.5704
15.3335
15.1203
14.9262
14.7402
14.6234
15.0061
30.3427
40.8295
114.451
195.912
249.32
196.74
195.785
194.55
193.564
193.049
193.515
195.189
198.189
202.597
208.42
215.587
223.9
233.069
242.813
252.71
262.406
16.0867
15.8221
15.5703
15.3301
15.1133
14.9235
14.7475
14.6223
28.9744
28.6424
48.1466
170.405
274.084
313.955
205.665
191.661
181.994
175.484
171.745
170.644
172.079
175.827
181.545
188.833
197.286
206.542
216.256
226.143
235.823
244.968
16.0867
15.8226
15.5733
15.3356
15.1155
14.9237
14.7538
14.6317
28.955
57.1521
165.543
611.602
598.954
506.483
156.844
149.18
143.929
141.628
142.828
147.166
153.82
161.911
170.72
179.793
188.888
197.91
206.778
215.416
223.626
231.196
16.0867
15.8226
15.5733
15.3356
15.1153
14.9234
14.7539
14.6464
28.9595
56.9877
911.329
573.417
391.975
155.718
150.414
149.324
150.913
154.743
160.161
166.737
173.987
181.233
188.157
194.649
200.69
206.373
211.839
217.014
221.75
16.0867
15.8221
15.5704
15.3301
15.1131
14.9233
14.749
14.6642
29.0072
28.4722
103.147
446.197
491.122
536.793
180.152
172.946
169.991
170.749
174.145
179.042
184.486
190.096
195.415
200.083
204.031
207.296
209.968
212.178
214.062
215.582
16.0867
15.8219
15.5706
15.3337
15.1205
14.9266
14.744
14.7009
15.5081
31.1144
33.8442
72.5433
132.376
175.098
152.586
159.662
166.793
174.592
182.652
190.279
196.954
202.286
206.459
209.45
211.36
212.317
212.461
211.981
211.078
209.807
16.0865
15.8219
15.5728
15.3398
15.1247
14.9225
14.7422
14.7517
16.2582
23.6108
43.4108
75.621
104.535
126.058
142.668
156.39
168.847
180.598
191.304
200.337
207.3
212.082
214.773
215.849
215.758
214.576
212.474
209.672
206.408
202.781
16.0865
15.8214
15.5724
15.339
15.1227
14.9205
14.7445
14.7939
16.7886
27.0425
52.073
81.1855
104.953
124.567
141.59
157.154
172.087
186.183
198.565
208.33
215.071
218.893
220.122
219.272
217.275
214.145
210.059
205.265
200.07
194.502
16.0862
15.8208
15.5712
15.3365
15.1197
14.9218
14.7615
14.8236
17.0837
28.7547
55.4459
81.7234
103.556
122.572
140.028
157.177
174.33
190.524
204.28
214.408
220.598
223.21
222.844
220.253
216.516
211.658
205.88
199.437
192.713
185.691
16.086
15.8201
15.5694
15.3345
15.1184
14.9222
14.7632
14.8298
17.1311
28.9852
55.5178
80.368
101.419
120.002
138.007
156.689
175.957
194.031
208.82
218.942
224.286
225.548
223.564
219.486
214.231
207.884
200.718
193.003
185.165
177.28
16.0858
15.8194
15.5673
15.3322
15.1161
14.9206
14.7615
14.8111
16.9537
28.2106
53.8311
77.9162
98.481
116.966
135.657
155.916
177.192
196.873
212.339
222.154
226.494
226.387
222.929
217.659
211.155
203.617
195.39
186.778
178.226
170.051
16.0858
15.819
15.5661
15.3303
15.1143
14.9194
14.7629
14.7797
16.5961
26.6921
51.07
74.7012
94.9219
113.445
132.851
154.466
177.556
198.757
214.728
224.124
227.499
226.185
221.535
215.434
208.018
199.639
190.706
181.534
172.62
164.407
16.0854
15.8179
15.5642
15.3278
15.1115
14.9172
14.7612
14.741
16.1542
24.8176
47.8709
71.3668
91.4009
110.062
129.687
152.206
176.731
199.179
215.67
224.781
227.495
225.384
220.354
213.745
205.801
196.959
187.654
178.193
169.25
160.989
1.93876
2.07866
2.20255
2.31326
2.41301
2.50476
2.58819
2.65831
2.7823
3.53943
6.19271
12.4039
22.967
34.6671
45.3987
54.7562
62.6977
69.3973
75.0551
79.8693
84.0136
87.6354
90.8649
93.8179
96.5848
99.2499
101.851
104.401
106.895
108.98
1.93878
2.0787
2.20255
2.3132
2.41298
2.50473
2.58791
2.65961
2.84114
3.90715
7.37592
14.4562
24.7507
35.743
46.096
55.1758
62.9223
69.4785
75.0289
79.7529
83.8178
87.3692
90.5397
93.4368
96.1707
98.8039
101.394
103.951
106.468
108.608
1.93879
2.07872
2.2025
2.31305
2.41287
2.50457
2.58692
2.66044
2.90205
4.1916
8.23276
15.8518
26.0016
36.509
46.3603
55.0625
62.5458
68.8978
74.2832
78.8653
82.8003
86.2312
89.29
92.0926
94.7455
97.3137
99.8698
102.426
104.968
107.191
1.93882
2.07876
2.20245
2.31289
2.41264
2.50425
2.5856
2.66168
2.95683
4.3806
8.83441
16.8867
26.7472
36.8286
46.2079
54.5221
61.7029
67.8016
72.9667
77.3453
81.0865
84.3353
87.2208
89.8791
92.4
94.8807
97.3878
99.9416
102.519
104.848
1.93887
2.07881
2.20245
2.3127
2.41155
2.50375
2.58416
2.66465
3.00189
4.48059
9.15612
17.6494
27.3195
37.0288
45.9937
53.9234
60.7516
66.5171
71.3635
75.4327
78.8769
81.8387
84.4753
86.9033
89.2469
91.607
94.0509
96.6039
99.228
101.685
1.93897
2.0789
2.20245
2.31246
2.41068
2.50293
2.58287
2.6689
3.03333
4.49724
9.24225
18.3553
28.3062
37.8711
46.587
54.1319
60.4874
65.7341
70.0483
73.5949
76.535
79.0385
81.2675
83.3577
85.4524
87.651
90.017
92.5728
95.2575
97.8574
1.93892
2.079
2.20235
2.31201
2.41013
2.50126
2.58215
2.6739
3.04765
4.44093
9.11146
20.0078
31.4373
41.6131
50.6063
57.588
62.9774
67.1256
70.3348
72.8496
74.8478
76.5235
78.0631
79.6428
81.3918
83.3855
85.6637
88.2272
90.9768
93.6975
1.93881
2.07882
2.20246
2.31199
2.40906
2.49926
2.58283
2.67856
3.05608
3.81826
7.69154
20.2579
38.2002
52.7343
68.7536
72.1238
73.758
74.5915
75.0416
75.2744
75.4558
75.7147
76.215
77.0841
78.4025
80.1989
82.4123
84.9862
87.7265
90.2531
1.9388
2.07861
2.20204
2.31206
2.40872
2.49761
2.58244
2.67787
2.90803
4.36356
15.3647
43.3261
85.2135
101.982
124.675
109.535
98.857
91.2301
85.4006
80.9866
77.8216
75.8374
74.9548
75.0571
76.0029
77.6614
79.9013
82.5789
85.4848
88.3006
1.93881
2.07859
2.20151
2.31078
2.40726
2.49496
2.57747
2.68131
2.93631
4.94608
60.9448
693.965
611.111
500.003
164.289
129.368
109.879
96.7283
87.2963
80.591
76.1628
73.6895
72.7926
73.0965
74.2832
76.1211
78.4522
81.1658
84.1033
87.0344
1.9388
2.07854
2.20135
2.31039
2.40639
2.49339
2.57524
2.69184
2.94106
5.90951
1304.07
162.846
125.331
103.747
89.7617
80.6431
75.0119
72.0134
71.0838
71.5002
72.7543
74.5229
76.6212
78.9528
81.4627
84.1384
86.8137
1.93879
2.07847
2.20154
2.31082
2.40627
2.49323
2.57614
2.70131
2.90468
4.61168
28.9208
422.609
440.808
379.593
107.087
90.5737
79.6767
73.1507
69.8625
68.7432
68.9848
70.1834
71.9973
74.078
76.2683
78.4942
80.7371
82.9636
85.2535
87.4674
1.93879
2.07858
2.20164
2.31002
2.40524
2.49264
2.57031
2.70967
3.18194
3.79868
7.01895
20.6168
38.0858
50.6147
51.4192
54.7827
57.191
59.6157
62.3001
65.1721
68.0399
70.7539
73.3985
75.9062
78.281
80.5184
82.6278
84.5735
86.491
88.2293
1.93889
2.07868
2.20126
2.30942
2.4053
2.49215
2.56019
2.71124
3.29271
4.64363
7.94994
14.8954
23.4164
31.2269
38.5202
44.7019
50.2475
55.441
60.3572
64.9179
68.9857
72.4608
75.3151
77.782
80.0991
82.2211
84.1339
85.7668
87.2881
88.5389
1.93893
2.07851
2.20113
2.30936
2.40528
2.48855
2.55136
2.71339
3.36513
4.97912
9.1168
15.7001
22.5547
29.2908
35.8617
42.2693
48.5921
54.7687
60.65
66.0055
70.6361
74.432
77.3854
79.6186
81.7612
83.6847
85.3248
86.5776
87.6582
88.3734
1.93883
2.07837
2.20095
2.30917
2.40565
2.48308
2.54368
2.71354
3.40416
5.16293
9.65693
15.8121
22.0609
28.3866
34.7887
41.3816
48.1954
55.0303
61.567
67.4417
72.3978
76.3182
79.2375
81.2872
83.2576
84.9673
86.3092
87.1498
87.7734
87.9544
1.93878
2.07829
2.20081
2.30906
2.40634
2.47919
2.5381
2.70956
3.4062
5.18232
9.6858
15.5306
21.5162
27.6246
33.9979
40.8156
48.0958
55.5225
62.6139
68.8902
74.0511
78.0034
80.8138
82.8015
84.6562
86.1476
87.1876
87.645
87.8603
87.5888
1.93876
2.07823
2.20077
2.30902
2.40622
2.47629
2.53347
2.69891
3.37139
5.07352
9.38949
15.0223
20.8142
26.7987
33.21
40.2902
48.0444
56.0363
63.6195
70.2166
75.5107
79.4392
82.1183
84.1788
85.9866
87.3025
88.072
88.2135
88.1345
87.5458
1.93875
2.07819
2.20075
2.30902
2.40611
2.47444
2.52966
2.68206
3.30291
4.87058
8.9031
14.3437
19.9818
25.8931
32.367
39.7053
47.9201
56.4311
64.4429
71.2958
76.6791
80.574
83.1194
85.4213
87.2628
88.4783
89.0709
89.0086
88.7736
87.9958
1.93872
2.07813
2.20069
2.30897
2.40603
2.4731
2.5265
2.66182
3.21434
4.62773
8.33767
13.6588
19.2003
25.0722
31.6088
39.2016
47.7709
56.6251
64.8741
71.8925
77.3425
81.2385
83.9785
86.4842
88.3866
89.583
90.1047
89.9584
89.6715
88.7314
1.77773
1.77841
1.78178
1.78779
1.79661
1.80755
1.8215
1.87163
2.63384
4.66316
6.32287
9.44973
14.5719
20.6721
26.4111
31.6185
36.289
40.4398
44.1031
47.3325
50.1882
52.7273
55.0053
57.0756
58.9957
60.7829
62.4935
64.1199
65.6493
66.8589
1.77774
1.77843
1.7818
1.7878
1.79662
1.80757
1.82256
1.91023
2.95208
5.01251
6.7484
10.1874
15.4305
21.359
26.9059
32.0208
36.6273
40.7285
44.3476
47.5387
50.3585
52.8638
55.1114
57.1626
59.0582
60.8436
62.5547
64.1947
65.7476
66.9928
1.77776
1.77848
1.78185
1.78783
1.79667
1.80767
1.8246
1.97607
3.24508
5.28275
7.16558
10.9147
16.2066
21.8359
27.2182
32.2196
36.7451
40.7805
44.3422
47.4747
50.2328
52.6739
54.8638
56.8559
58.6974
60.457
62.1514
63.7988
65.3786
66.6781
1.7778
1.77854
1.78191
1.78788
1.79671
1.80777
1.82792
2.08007
3.52804
5.51996
7.56724
11.5679
16.8131
22.2024
27.45
32.3526
36.8033
40.7632
44.2445
47.286
49.9409
52.2702
54.3532
56.2303
57.9896
59.6794
61.3349
62.9768
64.5803
65.9437
1.77784
1.77861
1.78199
1.78793
1.79664
1.80783
1.8323
2.18653
3.79834
5.75246
7.94129
12.1461
17.4034
22.7431
27.9514
32.8066
37.1913
41.0505
44.3978
47.2735
49.737
51.8678
53.7398
55.4359
57.039
58.6059
60.188
61.8026
63.4193
64.847
1.77788
1.77867
1.78205
1.78795
1.79655
1.80788
1.83777
2.29387
4.06558
6.04778
8.36814
13.0384
18.6231
24.2459
29.6555
34.5477
38.8266
42.4656
45.507
48.0161
50.0858
51.8115
53.2989
54.673
56.0093
57.3808
58.8381
60.3948
62.0069
63.4892
1.77792
1.77875
1.78211
1.78795
1.79642
1.8078
1.84434
2.39814
4.33085
6.48642
9.05887
15.2879
22.5337
29.2522
35.4116
40.2056
43.9536
46.8221
48.9744
50.5562
51.7148
52.6109
53.4052
54.2196
55.1404
56.2245
57.498
58.964
60.5481
62.0606
1.77795
1.7788
1.78217
1.78798
1.79623
1.80772
1.85172
2.4859
4.55706
6.89066
8.44768
17.854
30.8443
42.0543
56.4432
57.6044
57.9437
57.7013
57.0439
56.1751
55.3289
54.6721
54.3234
54.3317
54.7173
55.4663
56.5418
57.9053
59.4325
60.9151
1.77798
1.77884
1.78219
1.78795
1.79615
1.80774
1.85902
2.51319
3.46572
6.27261
13.489
36.8915
74.6136
98.5691
120.882
101.126
87.4425
77.3589
69.6103
63.7847
59.567
56.7609
55.1025
54.3626
54.3457
54.8986
55.8991
57.2538
58.8225
60.3825
1.77799
1.77886
1.78219
1.78785
1.79593
1.80767
1.86695
2.57558
3.42828
6.10236
32.5791
523.107
523.363
547.403
193.109
140.607
109.62
88.9019
74.7169
65.3568
59.4638
56.0104
54.2261
53.5803
53.7204
54.4212
55.5362
56.9693
58.602
60.2382
1.77799
1.77886
1.78219
1.78786
1.79602
1.80827
1.8796
2.6734
3.53033
6.13513
130.825
401.1
189.719
130.601
97.2877
77.411
65.4099
58.4862
54.7399
52.9901
52.454
52.6823
53.4068
54.4769
55.8013
57.3212
58.9687
60.5864
1.77799
1.77885
1.7822
1.78797
1.79629
1.80937
1.89613
2.81088
3.76776
6.06042
18.062
432.343
322.943
352.299
90.4407
73.0767
62.05
55.5118
52.0143
50.4714
50.1287
50.5424
51.3866
52.4952
53.7762
55.1807
56.6812
58.2496
59.8627
61.3725
1.77797
1.77883
1.78219
1.78804
1.79658
1.81071
1.91505
2.97886
5.39456
7.61838
8.96053
19.4156
34.7557
44.6637
41.0044
41.5299
42.0522
43.0042
44.3996
46.0952
47.889
49.6658
51.3615
53.0103
54.6384
56.2443
57.8459
59.4125
60.9517
62.2994
1.77795
1.77879
1.78216
1.78813
1.79702
1.81239
1.93407
3.10066
5.56665
7.35384
9.16896
12.8103
17.9708
22.8509
27.4619
31.3014
34.8377
38.2606
41.584
44.7183
47.5533
50.0165
52.1218
53.9848
55.7466
57.4346
59.0621
60.5618
61.975
63.1018
1.77792
1.77874
1.78216
1.78829
1.79737
1.81392
1.95006
3.19421
5.68599
7.16265
9.15741
12.1466
15.801
19.7887
23.9532
28.2092
32.5549
36.8893
41.0491
44.8498
48.173
50.968
53.2576
55.1894
56.99
58.6862
60.2738
61.6526
62.8795
63.7081
1.77788
1.7787
1.78215
1.78844
1.79778
1.81516
1.96085
3.24907
5.76518
7.16853
9.19884
11.912
15.1234
18.7424
22.7621
27.1866
31.9438
36.7941
41.441
45.6199
49.1885
52.129
54.4933
56.4564
58.2889
59.9811
61.4965
62.7193
63.7216
64.1874
1.77785
1.77865
1.78215
1.78859
1.7982
1.81604
1.96165
3.2532
5.78648
7.18835
9.17524
11.7301
14.7249
18.1934
22.2001
26.8148
31.9277
37.1879
42.1851
46.606
50.3123
53.3092
55.6908
57.7248
59.6125
61.3168
62.7718
63.8237
64.5984
64.6672
1.77783
1.77861
1.78214
1.78871
1.79849
1.81634
1.95141
3.1999
5.73894
7.15412
9.05429
11.474
14.3518
17.7439
21.8078
26.6509
32.1209
37.7577
43.0253
47.5943
51.3732
54.3989
56.7954
58.968
60.9464
62.6909
64.1113
65.0199
65.593
65.25
1.77783
1.77863
1.78219
1.78888
1.79878
1.81617
1.9326
3.09001
5.61977
7.07924
8.8609
11.1546
13.944
17.2969
21.4399
26.4993
32.2895
38.264
43.743
48.399
52.2197
55.2696
57.7641
60.0955
62.2166
64.0305
65.4536
66.2601
66.6749
65.9075
1.77779
1.77856
1.78214
1.78889
1.79888
1.81573
1.91013
2.94513
5.45215
6.99581
8.63924
10.8342
13.5581
16.8833
21.0156
26.1585
32.178
38.3957
44.0429
48.7579
52.6167
55.6856
58.3495
60.8373
63.0972
64.9812
66.4179
67.1354
67.3991
66.1724
1.77428
1.76893
1.76439
1.76117
1.75992
1.76136
1.77499
2.13371
3.8698
6.72197
9.00958
11.2106
14.5481
18.4509
22.2839
25.9309
29.3128
32.4017
35.188
37.6919
39.9407
41.9651
43.7982
45.4737
47.0237
48.4819
49.8585
51.1689
52.3926
53.3481
1.77429
1.76895
1.76441
1.76117
1.75991
1.76156
1.78652
2.35059
4.36389
7.10672
9.0128
11.4759
14.9726
18.8611
22.658
26.2805
29.642
32.7138
35.4809
37.9651
40.1932
42.1968
44.011
45.6717
47.2164
48.6697
50.053
51.3809
52.6245
53.6046
1.77431
1.76899
1.76446
1.76123
1.75999
1.7621
1.8085
2.57546
4.79906
7.43201
9.14326
11.8406
15.3934
19.1873
22.9502
26.5472
29.8916
32.9406
35.6827
38.1347
40.3233
42.2826
44.052
45.672
47.1877
48.618
49.9996
51.3381
52.6069
53.6263
1.77435
1.76906
1.76455
1.76132
1.76009
1.76302
1.85171
2.81113
5.19361
7.70228
9.4166
12.2474
15.7823
19.5306
23.2862
26.8817
30.2219
33.252
35.9559
38.3505
40.4645
42.3379
44.0184
45.5591
47.0012
48.3819
49.7379
51.0725
52.3603
53.4218
1.77439
1.76913
1.76464
1.7614
1.76019
1.7643
1.90505
3.05392
5.55646
7.92379
9.74145
12.698
16.3284
20.1618
24.0037
27.6565
31.0137
34.0063
36.6285
38.8986
40.8568
42.5587
44.0721
45.4551
46.7631
48.0482
49.3386
50.6441
51.9335
53.0293
1.77444
1.76922
1.76474
1.76149
1.76028
1.76619
1.96621
3.29718
5.88982
8.12454
10.143
13.5171
17.5409
21.7833
25.9441
29.7355
33.0755
35.9216
38.2986
40.2559
41.8669
43.2201
44.4135
45.5151
46.6008
47.7211
48.8971
50.1384
51.4038
52.517
1.77448
1.7693
1.76484
1.76157
1.76038
1.76896
2.03505
3.53
6.18181
8.31542
10.8062
15.5557
21.0708
26.416
31.404
35.1828
38.1035
40.2998
41.9101
43.0665
43.9123
44.5903
45.2123
45.8687
46.6224
47.503
48.5185
49.6633
50.8797
51.9898
1.77452
1.76937
1.76492
1.76164
1.76048
1.77246
2.10765
3.73845
6.39269
8.22469
10.079
18.2795
28.7806
37.8507
47.7418
48.7942
49.11
48.8889
48.3293
47.6471
47.0236
46.5743
46.3758
46.4572
46.8186
47.4396
48.2911
49.3379
50.499
51.5923
1.77455
1.76943
1.76499
1.7617
1.76061
1.77681
2.18285
3.93337
6.62012
8.55993
11.6724
31.2742
64.1214
84.5238
84.6167
74.8723
67.0265
60.78
55.9472
52.356
49.7893
48.1112
47.1732
46.8251
46.9392
47.422
48.1988
49.2099
50.3588
51.4639
1.77458
1.76947
1.76504
1.76177
1.7608
1.78154
2.25986
4.11041
6.74789
7.8901
15.7458
185.542
361.279
359.099
122.446
96.4193
78.2893
66.1089
58.0483
52.8473
49.6027
47.7224
46.8
46.5431
46.7626
47.3362
48.1807
49.2369
50.4164
51.55
1.77459
1.76949
1.76508
1.76186
1.76121
1.78792
2.33976
4.30718
6.96398
8.08426
17.8503
472.442
369.849
411.466
109.17
84.2082
67.9674
57.9415
51.929
48.4839
46.6458
45.8383
45.6878
45.9723
46.5644
47.3835
48.3809
49.5194
50.7333
51.8714
1.77457
1.76948
1.7651
1.762
1.76181
1.79575
2.42142
4.53062
7.30629
8.99896
12.092
130.134
234.842
219.722
61.25
53.6061
48.5147
45.4784
43.9752
43.4818
43.6144
44.1147
44.833
45.6941
46.663
47.725
48.8699
50.0762
51.3004
52.4008
1.77456
1.76946
1.76512
1.76215
1.76252
1.80385
2.50065
4.75367
7.58973
9.22119
10.6483
18.8391
32.1776
39.7865
35.2356
35.8305
36.5939
37.6735
39.0155
40.486
41.9552
43.3491
44.6394
45.8837
47.1043
48.3313
49.5697
50.8011
51.9974
53.0123
1.77454
1.76943
1.76513
1.76236
1.76335
1.81175
2.57153
4.9505
7.83266
9.45536
11.2775
14.2039
18.1025
21.8833
25.439
28.4816
31.3807
34.2096
36.9116
39.3824
41.5551
43.4238
45.0197
46.4476
47.7957
49.1069
50.3795
51.584
52.6992
53.5692
1.77451
1.7694
1.76515
1.76259
1.76422
1.8181
2.62479
5.09349
7.97245
9.51732
11.1111
13.2136
15.9144
18.9832
22.3186
25.8405
29.4919
33.0934
36.4488
39.4026
41.9033
43.9803
45.7167
47.2312
48.6429
49.9856
51.25
52.3755
53.351
54.0018
1.77448
1.76936
1.76515
1.76281
1.76504
1.82158
2.65157
5.17693
8.05748
9.55734
11.0564
12.8946
15.2025
17.9404
21.1981
24.9454
29.0142
33.0657
36.7805
39.9669
42.6011
44.755
46.5346
48.1135
49.5772
50.941
52.1693
53.1703
53.9527
54.3043
1.77445
1.76932
1.76516
1.76302
1.7657
1.82134
2.6437
5.18979
8.09118
9.57517
11.0078
12.7315
14.8559
17.4678
20.7418
24.7103
29.1257
33.5181
37.4513
40.7348
43.4023
45.5735
47.382
49.0305
50.5647
51.9533
53.1413
53.9845
54.5267
54.5002
1.77444
1.76931
1.7652
1.76321
1.76617
1.81674
2.5952
5.12163
8.06588
9.54857
10.9162
12.556
14.5848
17.1446
20.5052
24.7415
29.483
34.1279
38.1867
41.4945
44.1476
46.3218
48.1921
49.9354
51.5657
52.9977
54.1425
54.8093
55.0784
54.6006
1.77441
1.76927
1.76518
1.76331
1.76634
1.80811
2.50588
4.9702
7.97463
9.46826
10.7661
12.3345
14.2898
16.8355
20.3504
24.8834
29.9014
34.6944
38.774
42.0623
44.6955
46.8799
48.8578
50.7273
52.466
53.9586
55.0593
55.54
55.5205
54.5415
1.77441
1.76927
1.76521
1.76344
1.76656
1.7999
2.39283
4.7636
7.81826
9.3219
10.5636
12.0882
13.9904
16.5343
20.1873
24.9283
30.0836
34.8989
38.9621
42.2255
44.8684
47.095
49.1685
51.1399
52.9563
54.4823
55.5287
55.8195
55.5361
54.1009
1.7742
1.76864
1.76372
1.75995
1.75799
1.75981
1.83887
2.74252
5.29598
8.49863
10.6571
12.9818
15.7232
18.6668
21.6602
24.569
27.3085
29.8449
32.1574
34.2543
36.1533
37.8766
39.449
40.8971
42.2468
43.5206
44.7377
45.9
46.9832
47.8185
1.77421
1.76866
1.76375
1.75997
1.75803
1.76126
1.9123
3.12497
5.85917
8.85227
10.8265
13.2205
16.0149
18.9842
21.9873
24.8965
27.632
30.1619
32.4639
34.5485
36.4335
38.1429
39.7034
41.144
42.492
43.7707
45.0005
46.1796
47.2839
48.1395
1.77424
1.76872
1.76382
1.76005
1.75819
1.76403
2.00455
3.49173
6.35927
9.13924
11.0171
13.4675
16.2695
19.2554
22.271
25.1869
27.9245
30.45
32.7391
34.8019
36.6581
38.3346
39.8632
41.277
42.6071
43.881
45.1152
46.3127
47.4443
48.333
1.77428
1.76879
1.76392
1.76016
1.75841
1.76883
2.11865
3.85754
6.81054
9.36415
11.262
13.7248
16.549
19.5762
22.6309
25.5793
28.337
30.8634
33.1303
35.1511
36.949
38.5585
40.0195
41.3729
42.6556
43.9005
45.1214
46.3254
47.4765
48.3986
1.77432
1.76887
1.76402
1.76028
1.75871
1.77706
2.25726
4.22729
7.2224
9.54617
11.5221
14.0551
17.003
20.1623
23.3371
26.3725
29.1759
31.6907
33.9
35.8236
37.4974
38.9714
40.3005
41.5367
42.7262
43.8998
45.077
46.2625
47.4144
48.3587
1.77437
1.76896
1.76414
1.7604
1.75914
1.7917
2.41706
4.59136
7.59283
9.71702
11.8403
14.6568
17.98
21.5017
24.9649
28.1575
30.9887
33.4126
35.4443
37.13
38.5386
39.7493
40.8391
41.8726
42.9018
43.9535
45.0468
46.1798
47.3067
48.2542
1.77442
1.76905
1.76425
1.76053
1.75976
1.81812
2.59058
4.93451
7.90888
9.90253
12.3563
16.0036
20.3255
24.7017
28.7029
32.0051
34.6412
36.6714
38.198
39.3413
40.2282
40.9777
41.685
42.419
43.2177
44.1016
45.0762
46.129
47.2076
48.1392
1.77447
1.76915
1.76435
1.76066
1.76057
1.84876
2.76529
5.23862
8.1252
10.0312
13.3065
19.239
26.0485
32.2287
36.7321
39.3679
40.9379
41.7821
42.1577
42.2873
42.3381
42.4403
42.6651
43.0518
43.6052
44.3178
45.1712
46.1418
47.1666
48.074
1.77451
1.76923
1.76446
1.76081
1.76162
1.88217
2.93722
5.50339
8.19374
10.2509
12.7569
23.3691
37.3084
48.3489
50.3711
49.7551
48.6011
47.2447
45.8963
44.7518
43.925
43.4612
43.3242
43.4823
43.8913
44.5088
45.2972
46.2236
47.2185
48.115
1.77453
1.76928
1.76456
1.76097
1.76289
1.9177
3.1093
5.77581
8.30759
10.4935
13.6629
31.1473
52.8658
67.5723
58.8655
55.477
51.9905
48.9404
46.5551
44.889
43.867
43.373
43.2762
43.4953
43.9575
44.611
45.421
46.3563
47.3512
48.2477
1.77455
1.76931
1.76462
1.76116
1.76448
1.95498
3.27941
6.06653
8.55618
10.693
13.7546
31.3018
52.9766
67.8051
54.209
50.6939
47.5454
45.1673
43.5979
42.7362
42.4045
42.4525
42.7631
43.2691
43.9247
44.7062
45.5941
46.5681
47.574
48.4645
1.77454
1.76932
1.76466
1.76137
1.7664
1.99259
3.44575
6.38276
8.99052
10.9575
13.121
24.8503
41.3821
50.304
41.0602
40.2708
39.7073
39.5261
39.7131
40.1785
40.8123
41.5363
42.3091
43.1248
43.9862
44.9024
45.87
46.8785
47.8832
48.7444
1.77453
1.7693
1.7647
1.76163
1.76833
2.0266
3.60359
6.71269
9.54547
11.2699
13.6328
17.8455
23.0311
27.3097
30.2706
32.2044
33.8679
35.4781
37.0538
38.5416
39.8959
41.1065
42.1961
43.221
44.2227
45.2284
46.2437
47.2576
48.2297
49.0256
1.77451
1.76927
1.76474
1.76192
1.77009
2.05529
3.73731
6.98117
9.89096
11.4958
13.2754
15.7455
18.8632
22.0843
25.1807
28.0776
30.8585
33.4806
35.8646
37.9364
39.6853
41.1525
42.4044
43.5371
44.6128
45.6604
46.6829
47.6576
48.5515
49.2321
1.77448
1.76925
1.76478
1.76221
1.77154
2.07506
3.83322
7.17027
10.1017
11.6569
13.1878
15.0658
17.3718
20.0501
23.0874
26.3589
29.7034
32.8774
35.6852
38.0296
39.9378
41.4985
42.8106
43.9925
45.105
46.162
47.1567
48.0442
48.8043
49.3055
1.77446
1.76922
1.76481
1.76249
1.77247
2.08207
3.88095
7.28478
10.2362
11.7707
13.2007
14.8505
16.818
19.2484
22.2888
25.8216
29.5376
33.0452
36.0537
38.482
40.4102
41.9775
43.3079
44.5218
45.6602
46.7131
47.6468
48.3968
48.9601
49.2095
1.77443
1.76919
1.76484
1.76274
1.77272
2.07276
3.86909
7.31652
10.3006
11.8286
13.2028
14.7494
16.5747
18.9453
22.1141
25.9313
29.9321
33.6121
36.657
39.0505
40.9276
42.4718
43.8239
45.0808
46.25
47.2949
48.1405
48.6985
49.001
48.9229
1.77441
1.76916
1.76485
1.76291
1.77213
2.04514
3.78813
7.25675
10.2988
11.8269
13.1542
14.639
16.409
18.8493
22.2662
26.4145
30.6242
34.3136
37.2646
39.5552
41.3683
42.8969
44.3004
45.6229
46.838
47.8661
48.604
48.9189
48.9054
48.436
1.77442
1.76918
1.76493
1.76312
1.77094
2.00064
3.63551
7.10292
10.2232
11.7569
13.0384
14.4728
16.2482
18.8454
22.5809
27.0437
31.3328
34.8941
37.6767
39.8626
41.6348
43.1836
44.6563
46.0566
47.3207
48.3246
48.9372
48.9861
48.6353
47.7576
1.77438
1.76913
1.76488
1.76316
1.76962
1.94767
3.4335
6.87632
10.0535
11.598
12.8543
14.2533
16.0739
18.8426
22.8336
27.4543
31.6718
35.0626
37.7204
39.8543
41.6239
43.2103
44.7371
46.1877
47.4721
48.4372
48.9273
48.756
48.1457
46.9642
1.7742
1.76864
1.76371
1.7599
1.758
1.76431
2.01948
3.59738
6.77758
10.1218
12.2616
14.6144
17.0845
19.6572
22.2556
24.7758
27.1533
29.3605
31.3787
33.215
34.8852
36.4096
37.8106
39.1124
40.338
41.507
42.6335
43.7178
44.7299
45.4964
1.77422
1.76867
1.76374
1.75992
1.75814
1.77206
2.18832
4.10559
7.36945
10.475
12.5048
14.8663
17.3597
19.9606
22.5721
25.0964
27.4726
29.6752
31.6852
33.512
35.1725
36.6884
38.0845
39.3866
40.6186
41.8001
42.9444
44.0512
45.0856
45.8724
1.77425
1.76872
1.76381
1.76002
1.75855
1.78919
2.38218
4.58764
7.90957
10.7696
12.7488
15.0807
17.5928
20.2244
22.8549
25.3908
27.7721
29.9728
31.973
33.7831
35.4223
36.9164
38.2941
39.5848
40.815
42.0053
43.168
44.3023
45.3677
46.1873
1.77429
1.7688
1.76392
1.76016
1.75923
1.81941
2.60858
5.06567
8.39809
11.0025
12.9762
15.2949
17.8507
20.5275
23.2001
25.7706
28.1732
30.3782
32.3637
34.1425
35.7394
37.187
38.5215
39.778
40.9865
42.169
43.338
44.4894
45.58
46.4314
1.77433
1.7689
1.76405
1.76032
1.76028
1.86052
2.8658
5.5413
8.83816
11.1951
13.2022
15.5755
18.2305
21.0166
23.793
26.4432
28.8919
31.0984
33.045
34.7551
36.2646
37.6195
38.8673
40.051
41.2039
42.3488
43.498
44.6442
45.7408
46.6104
1.77439
1.76899
1.76418
1.76052
1.76194
1.91639
3.14412
5.99988
9.22035
11.3342
13.4553
16.0179
18.9212
21.9652
24.9595
27.7474
30.2448
32.4068
34.2444
35.7999
37.1355
38.3198
39.4152
40.4718
41.5239
42.594
43.6879
44.7985
45.8747
46.7423
1.77445
1.76909
1.76432
1.76074
1.76458
1.98654
3.43045
6.42492
9.53259
11.4557
13.8128
16.8069
20.2599
23.82
27.1791
30.1154
32.5695
34.5449
36.1076
37.3521
38.3827
39.2954
40.1646
41.0402
41.951
42.9123
43.9225
44.9699
46.0016
46.8477
1.7745
1.7692
1.76446
1.761
1.76846
2.06826
3.71286
6.8007
9.73413
11.6902
14.36
18.2066
22.6888
27.085
30.8639
33.7639
35.8849
37.3794
38.4195
39.1707
39.7813
40.355
40.9667
41.6475
42.4111
43.2568
44.1762
45.1526
46.1303
46.945
1.77454
1.7693
1.7646
1.7613
1.77366
2.15827
3.98943
7.14604
9.85031
11.9364
15.0559
20.1681
26.0701
31.3506
35.3909
37.8035
39.2077
39.9539
40.3293
40.5627
40.7965
41.1138
41.5495
42.1071
42.7766
43.5466
44.4021
45.3255
46.261
47.0497
1.77457
1.76937
1.76473
1.76165
1.78042
2.25251
4.26001
7.4955
10.0266
12.2006
15.5028
21.4352
28.2991
33.8755
37.8277
39.7155
40.4619
40.6696
40.7045
40.768
40.9491
41.2713
41.7267
42.2987
42.9709
43.7328
44.5725
45.4737
46.3849
47.1525
1.77459
1.76941
1.76484
1.76204
1.78847
2.34547
4.52135
7.85941
10.3313
12.4853
15.6033
21.2267
27.7631
32.9306
36.4043
38.0122
38.7346
39.1319
39.4842
39.8965
40.3949
40.9674
41.604
42.2931
43.0375
43.8395
44.6955
45.5948
46.4904
47.2351
1.7746
1.76944
1.76491
1.7625
1.79999
2.43458
4.7703
8.23635
10.7736
12.8025
15.4775
19.8321
24.9114
29.2328
32.3105
34.2044
35.5782
36.7268
37.781
38.7767
39.7154
40.5983
41.4361
42.2532
43.0774
43.9244
44.8006
45.6964
46.5699
47.2783
1.77459
1.76943
1.76498
1.76298
1.80966
2.51326
4.99878
8.61228
11.313
13.1429
15.2959
18.2798
21.8602
25.338
28.3199
30.8004
32.956
34.8718
36.5736
38.0543
39.3244
40.4183
41.3851
42.2831
43.1558
44.0266
44.9037
45.7743
46.6018
47.2473
1.77457
1.76941
1.76506
1.76343
1.81695
2.57634
5.19161
8.94346
11.7882
13.4609
15.2846
17.4931
20.1198
22.9917
25.9506
28.817
31.5286
33.9775
36.0902
37.8411
39.2695
40.4508
41.465
42.3937
43.2817
44.1503
45.0001
45.8129
46.5566
47.0999
1.77454
1.76939
1.76513
1.76383
1.82128
2.61711
5.32888
9.1817
12.0798
13.7379
15.3819
17.2235
19.3513
21.8976
24.8558
27.998
31.0862
33.8536
36.1592
37.992
39.4379
40.6152
41.6257
42.5551
43.4383
44.2832
45.0767
45.7894
46.4013
46.7944
1.77452
1.76937
1.76519
1.76416
1.82196
2.62902
5.39956
9.33318
12.272
13.9487
15.4957
17.162
19.0705
21.5459
24.6179
28.0156
31.3398
34.2353
36.5413
38.3143
39.6916
40.8227
41.8192
42.7466
43.6182
44.4187
45.1211
45.6825
46.1052
46.294
1.77449
1.76935
1.76523
1.76439
1.81825
2.6058
5.3909
9.39075
12.3765
14.0653
15.563
17.1399
19.0069
21.5936
24.9159
28.5868
32.0306
34.8635
37.0173
38.6432
39.923
41.0093
42.0076
42.9451
43.8057
44.5461
45.1173
45.4708
45.6443
45.5782
1.77448
1.76934
1.7653
1.76452
1.80975
2.54303
5.29144
9.34983
12.3993
14.1024
15.568
17.1115
19.0586
21.8703
25.5321
29.4447
32.8632
35.4777
37.3945
38.8598
40.0636
41.1365
42.1599
43.1217
43.9718
44.6343
45.0409
45.136
45.0148
44.6648
1.77445
1.7693
1.76529
1.76447
1.79685
2.4409
5.09702
9.20685
12.3324
14.0564
15.503
17.0626
19.2042
22.2958
26.2827
30.3104
33.5403
35.8586
37.5506
38.9033
40.0725
41.1639
42.2263
43.2165
44.0512
44.6237
44.8499
44.6739
44.2639
43.6505
1.77446
1.76931
1.76534
1.76451
1.78686
2.31678
4.83458
8.96715
12.1508
13.9046
15.3555
16.9669
19.3724
22.6738
26.8078
30.7696
33.7585
35.8571
37.4344
38.7514
39.914
41.0302
42.1172
43.1177
43.9265
44.4185
44.5037
44.1319
43.5365
42.7755
1.7742
1.76864
1.7637
1.75987
1.75831
1.78665
2.33949
4.56071
8.17226
11.5569
13.7511
16.109
18.5057
20.947
23.3532
25.656
27.8118
29.8042
31.622
33.2756
34.7832
36.1657
37.4464
38.649
39.7952
40.9022
41.9802
43.025
43.9989
44.7242
1.77422
1.76867
1.76373
1.75992
1.75885
1.8192
2.61859
5.15882
8.78615
11.9389
14.055
16.3946
18.809
21.2641
23.6749
25.9759
28.1259
30.1107
31.9193
33.5646
35.0658
36.4458
37.7294
38.9413
40.1034
41.232
42.3357
43.4081
44.408
45.1554
1.77425
1.76873
1.76382
1.76005
1.7599
1.86555
2.91752
5.7302
9.35969
12.2668
14.3256
16.6374
19.0735
21.5426
23.9605
26.2634
28.4108
30.3887
32.186
33.8176
35.3052
36.6754
37.9562
39.1745
40.3531
41.5073
42.6436
43.7534
44.7907
45.5728
1.7743
1.76882
1.76394
1.76024
1.7619
1.93471
3.25599
6.29937