/*--------------------------------*- C++ -*----------------------------------*\
| =========                 |                                                 |
| \\      /  F ield         | OpenFOAM: The Open Source CFD Toolbox           |
|  \\    /   O peration     | Version:  2512                                  |
|   \\  /    A nd           | Website:  www.openfoam.com                      |
|    \\/     M anipulation  |                                                 |
\*---------------------------------------------------------------------------*/
FoamFile
{
    version     2.0;
    format      ascii;
    arch        "LSB;label=32;scalar=64";
    class       volScalarField;
    location    "140";
    object      p;
}
// * * * * * * * * * * * * * * * * * * * * * * * * * * * * * * * * * * * * * //

dimensions      [0 2 -2 0 0 0 0];

internalField   nonuniform List<scalar> 
90398
(
316.285
315.908
314.92
313.29
311.011
307.988
304.104
299.306
293.688
287.52
281.489
276.653
273.29
268.955
260.547
248.111
232.876
215.968
198.379
180.695
163.424
147.002
131.727
117.778
105.102
93.7594
82.3368
72.4563
51.0613
46.0053
316.41
316.038
315.062
313.448
311.19
308.187
304.313
299.498
293.806
287.47
281.166
275.98
272.001
266.778
257.964
245.421
230.089
213.119
195.501
177.778
160.435
143.904
128.487
114.366
101.509
89.9865
78.4857
68.5083
47.8903
42.6681
316.659
316.296
315.341
313.763
311.547
308.589
304.74
299.898
294.065
287.373
280.433
274.345
269.166
262.6
253.315
240.681
225.196
208.133
190.488
172.718
155.268
138.573
122.937
108.555
95.4265
83.645
72.0401
62.0317
42.6063
37.7153
317.024
316.675
315.754
314.228
312.081
309.197
305.408
300.56
294.55
287.305
279.217
271.49
264.425
256.457
247.05
234.528
218.915
201.787
184.155
166.34
148.751
131.838
115.912
101.187
87.706
75.6016
63.8841
53.8679
36.0305
31.5649
317.496
317.166
316.289
314.834
312.784
310.018
306.35
301.565
295.412
287.433
277.502
267.083
257.612
248.601
239.895
227.836
212.17
195.112
177.603
159.755
141.981
124.777
108.479
93.331
79.4306
66.9615
55.1414
45.1516
29.146
25.0569
318.064
317.757
316.933
315.568
313.646
311.05
307.603
303.026
296.911
288.173
275.429
260.896
248.52
239.313
233.061
221.938
206.033
189.042
171.705
153.786
135.73
118.122
101.339
85.665
71.2796
58.4128
46.5047
36.5838
22.512
18.7375
318.713
318.432
317.67
316.407
314.642
312.279
309.191
305.119
299.473
290.184
273.277
252.364
235.887
227.451
226.563
217.623
201.709
184.854
167.567
149.347
130.767
112.529
95.0664
78.7198
63.7546
50.4514
38.4684
28.6715
16.5361
13.0446
319.425
319.172
318.478
317.331
315.741
313.658
311.084
308.002
304.223
296.243
277.213
251.458
229.217
217.969
222.613
214.386
198.554
182.241
164.989
146.231
126.862
107.764
89.4443
72.3191
56.7389
43.0323
31.0516
21.4855
11.2194
8.11304
320.181
319.956
319.331
318.299
316.891
315.108
313.15
311.511
309.591
308.593
278.614
237.94
201.945
191.736
228.519
218.236
200.348
183.375
165.283
145.209
124.425
104.013
84.529
66.4377
50.1643
36.0831
24.2113
15.0399
6.71104
3.99832
320.962
320.764
320.202
319.274
318.025
316.497
315.112
315.073
318.345
329.894
264.558
233.482
187.463
166.45
232.447
222.727
203.389
185.041
165.526
143.803
121.446
99.7144
79.185
60.3321
43.6057
29.3793
17.8171
9.21006
2.8363
0.383772
321.746
321.573
321.067
320.225
319.086
317.694
316.499
316.83
323.063
360.865
320.902
184.109
163.683
232.457
222.871
202.697
183.781
163.536
140.787
117.363
94.6778
73.3863
54.0269
37.1306
23.0749
12.0859
4.19183
-0.151444
-2.73966
322.516
322.363
321.904
321.127
320.044
318.655
317.235
316.53
319.999
332.032
297.603
251.124
208.922
184.259
226.017
219.703
200.777
181.283
160.017
136.164
111.678
88.1258
66.2498
46.6453
29.8725
16.2921
6.20566
-0.673843
-2.92496
-5.50016
323.251
323.116
322.692
321.955
320.882
319.402
317.571
315.546
313.796
314.295
295.726
259.222
230.647
214.753
226.082
219.972
201.579
180.48
157.3
131.854
106.042
81.5368
59.1905
39.5536
23.1346
10.2166
1.11975
-4.74217
-5.21763
-7.61242
323.935
323.813
323.416
322.703
321.613
319.997
317.712
314.506
309.994
302.491
286.725
261.773
241.646
230.917
229.315
220.758
202.178
179.659
154.599
127.545
100.514
75.2232
52.5879
33.1267
17.2461
5.12094
-2.95109
-7.84833
-6.88594
-9.09221
324.552
324.44
324.063
323.362
322.242
320.486
317.814
313.807
307.886
298.906
284.941
265.667
249.184
238.552
232.46
221.487
202.846
179.28
152.427
123.741
95.5596
69.6382
46.8287
27.624
12.3779
1.11348
-5.95326
-9.99285
-7.94629
-10.0783
325.089
324.985
324.621
323.926
322.772
320.896
317.933
313.404
306.685
297.167
284.484
268.667
254.389
243.633
235.256
223.176
204.227
179.439
150.737
120.403
91.1342
64.6996
41.869
23.0503
8.49864
-1.90607
-8.03787
-11.3395
-8.52257
-10.6925
325.533
325.434
325.08
324.387
323.204
321.231
318.059
313.183
306.021
296.301
284.359
270.595
257.834
247.511
238.333
225.548
205.956
179.858
149.405
117.539
87.3119
60.4946
37.7536
19.3893
5.54538
-4.035
-9.34212
-12.0498
-8.72224
-10.9957
325.874
325.781
325.433
324.739
323.532
321.485
318.164
313.056
305.611
295.78
284.299
271.812
260.219
250.498
241.12
227.931
207.727
180.407
148.372
115.173
84.1674
57.092
34.5067
16.6068
3.42085
-5.43594
-10.0649
-12.3404
-8.7126
-11.1287
326.104
326.014
325.671
324.977
323.752
321.652
318.231
312.964
305.328
295.416
284.229
272.567
261.814
252.64
243.313
229.929
209.255
180.921
147.584
113.381
81.8658
54.6808
32.2831
14.7848
2.12744
-6.17741
-10.3112
-12.302
-8.51695
-11.1783
326.226
326.135
325.793
325.099
323.863
321.733
318.252
312.89
305.127
295.126
284.058
272.858
262.64
253.867
244.653
231.212
210.251
181.276
147.124
112.317
80.5593
53.3668
31.109
13.8566
1.51524
-6.47889
-10.3324
-12.2033
-8.25342
-11.2663
316.324
315.952
314.965
313.339
311.061
308.031
304.137
299.309
293.6
287.155
280.313
273.899
267.862
260.393
249.37
234.68
218.044
200.488
182.793
165.27
148.258
132.063
116.885
102.841
89.822
77.9801
65.8265
55.5216
34.4103
32.1613
316.452
316.083
315.108
313.498
311.24
308.229
304.341
299.49
293.697
287.057
279.928
273.134
266.691
258.685
247.505
232.977
216.438
198.926
181.238
163.686
146.611
130.329
115.047
100.876
87.7708
75.847
63.7567
53.3902
33.2617
30.2776
316.702
316.342
315.389
313.815
311.599
308.629
304.762
299.879
293.93
286.911
279.135
271.504
264.112
255.198
243.819
229.58
213.214
195.831
178.229
160.689
143.544
127.127
111.648
97.2691
83.9906
71.9054
59.8362
49.5296
30.5688
27.5776
317.069
316.724
315.804
314.283
312.134
309.235
305.424
300.525
294.383
286.805
277.886
268.7
259.712
249.807
238.687
224.967
208.859
191.713
174.294
156.804
139.575
122.97
107.207
92.5281
78.9538
66.6077
54.5181
44.2725
26.8197
23.8806
317.544
317.218
316.343
314.893
312.843
310.059
306.356
301.506
295.191
286.879
276.157
264.393
253.449
242.837
232.846
219.936
204.157
187.381
170.255
152.835
135.488
118.597
102.475
87.4008
73.4221
60.748
48.6247
38.4571
22.7298
19.8071
318.116
317.812
316.991
315.63
313.71
311.092
307.586
302.912
296.577
287.458
274.044
258.267
245.084
234.517
227.38
215.613
200.006
183.589
166.759
149.344
131.729
114.434
97.8503
82.2447
67.7785
54.7255
42.5722
32.5268
18.6337
15.731
318.769
318.491
317.731
316.475
314.712
312.318
309.139
304.891
298.907
289.25
272.319
250.462
234.137
224.11
222.338
212.664
197.3
181.257
164.586
146.898
128.767
110.866
93.5965
77.2814
62.2223
48.76
36.6026
26.7579
14.7463
11.9274
319.486
319.237
318.543
317.395
315.807
313.693
310.987
307.57
303.099
295.595
277.636
251.111
231.313
215.396
219.981
211.272
195.927
180.234
163.496
145.257
126.329
107.507
89.2933
72.153
56.4937
42.7024
30.6659
21.1873
11.0822
8.4697
320.248
320.028
319.405
318.37
316.95
315.121
312.991
310.767
308.565
305.408
279.377
244.861
214.771
189.61
225.499
216.295
199.203
182.715
164.865
145.038
124.494
104.212
84.7838
66.7279
50.5009
36.4968
24.7378
15.7914
7.58475
5.34389
321.036
320.842
320.285
319.362
318.106
316.528
314.916
314.028
315.929
324.37
276.128
143.346
184.997
127.954
232.979
223.474
203.423
184.836
165.332
143.787
121.582
99.8982
79.3968
60.6299
44.0743
30.0977
18.8304
10.5918
4.36206
2.44707
321.827
321.658
321.16
320.325
319.18
317.743
316.329
315.798
320.187
350.494
51.0735
230.061
222.324
202.146
182.996
162.429
139.547
116.119
93.5239
72.4708
53.482
37.0307
23.475
13.0294
5.7053
1.5668
-0.302157
322.604
322.457
322.005
321.234
320.156
318.74
317.15
315.812
317.926
326.565
303.985
183.972
213.14
152.618
227.174
218.932
199.842
180.198
158.426
134.326
109.899
86.4892
64.9245
45.7887
29.5563
16.5748
7.1231
0.86283
-1.18197
-2.98221
323.346
323.217
322.804
322.084
321.033
319.544
317.6
315.217
312.581
312.129
296.256
259.175
235.86
215.565
227.558
219.357
200.627
179.283
155.502
129.72
104.009
79.7234
57.6764
38.5241
22.6735
10.4244
2.05185
-3.16011
-3.39781
-5.1912
324.037
323.922
323.54
322.854
321.796
320.186
317.843
314.439
309.393
301.243
285.813
260.762
241.967
230.874
229.572
219.636
200.57
177.734
152.148
124.808
97.8543
72.9478
50.863
31.9687
16.7339
5.36797
-1.90228
-6.14275
-4.90968
-6.83399
324.661
324.558
324.198
323.53
322.451
320.721
318.037
313.918
307.569
297.897
283.123
263.491
247.937
237.414
231.522
219.829
200.636
176.561
149.141
120.267
92.3467
66.9735
44.8648
26.3555
11.9002
1.53209
-4.65778
-8.07589
-5.75192
-7.98924
325.204
325.109
324.766
324.109
323.002
321.166
318.233
313.63
306.524
296.242
282.313
266.075
252.355
241.922
233.667
221.003
201.323
175.848
146.584
116.177
87.4105
61.7953
39.8318
21.8684
8.22297
-1.2317
-6.44798
-9.17745
-6.1021
-8.78509
325.653
325.565
325.234
324.582
323.45
321.53
318.411
313.482
305.937
295.367
282.027
267.784
255.434
245.455
236.266
222.853
202.381
175.452
144.452
112.672
83.189
57.4807
35.788
18.3925
5.57544
-3.01442
-7.42843
-9.65265
-6.10584
-9.28198
325.998
325.916
325.593
324.944
323.794
321.809
318.552
313.4
305.567
294.831
281.913
268.977
257.714
248.28
238.782
224.848
203.583
175.308
142.768
109.839
79.8341
54.0859
32.7134
15.9015
3.81941
-4.04095
-7.81885
-9.7082
-5.91773
-9.57052
326.232
326.154
325.836
325.188
324.024
321.992
318.638
313.332
305.304
294.471
281.876
269.883
259.431
250.447
240.838
226.577
204.745
175.353
141.527
107.789
77.5081
51.8092
30.7528
14.4729
2.96358
-4.37305
-7.70614
-9.39411
-5.50338
-9.66657
326.353
326.276
325.96
325.312
324.14
322.079
318.666
313.261
305.093
294.161
281.776
270.459
260.568
251.85
242.194
227.816
205.641
175.543
140.838
106.554
76.2095
50.6051
29.7745
13.8753
2.7463
-4.28713
-7.34693
-8.98275
-4.87178
-9.80839
316.411
316.044
315.063
313.45
311.19
308.169
304.266
299.42
293.674
287.098
279.839
271.906
261.854
248.304
233.294
216.85
200.166
183.259
166.383
149.679
133.323
117.549
102.504
88.2993
74.8144
62.258
49.3416
39.0036
18.8889
21.2585
316.54
316.177
315.207
313.611
311.37
308.364
304.463
299.59
293.74
286.925
279.248
270.7
260.094
247.009
232.567
216.629
200.085
183.177
166.3
149.548
133.124
117.27
102.143
87.8466
74.29
61.7337
48.9752
38.5198
19.4111
20.6136
316.793
316.439
315.493
313.932
311.73
308.762
304.88
299.967
293.938
286.706
278.266
268.617
257.036
244.29
230.445
215.257
199.06
182.364
165.613
148.875
132.383
116.402
101.088
86.5806
72.8797
60.2477
47.5863
37.1819
19.0922
19.7302
317.165
316.826
315.913
314.406
312.271
309.37
305.539
300.601
294.352
286.537
276.884
265.476
252.906
240.157
227.292
213.054
197.371
181.063
164.548
147.866
131.277
115.073
99.4477
84.5751
70.6077
57.7608
45.1137
34.7455
17.9725
17.9833
317.647
317.326
316.459
315.024
312.986
310.194
306.463
301.548
295.08
286.503
275.042
261.16
247.684
234.985
223.794
210.664
195.588
179.806
163.61
146.977
130.211
113.643
97.5253
82.1763
67.8042
54.6407
41.99
31.6691
16.4338
15.7863
318.227
317.929
317.119
315.774
313.862
311.229
307.669
302.877
296.287
286.826
272.811
255.64
241.178
229.007
220.884
208.972
194.375
179.099
163.176
146.463
129.311
112.162
95.3901
79.4211
64.5185
50.9577
38.319
28.1192
14.5698
13.3708
318.889
318.617
317.871
316.633
314.876
312.453
309.167
304.677
298.233
288.112
270.838
249.119
232.837
221.739
218.741
208.586
194.44
179.591
163.723
146.561
128.661
110.62
92.9602
76.194
60.6434
46.6981
34.1416
24.2036
12.4537
10.9185
319.617
319.374
318.695
317.565
315.979
313.82
310.934
307.016
301.372
291.437
276.109
248.162
229.93
213.136
219.278
210.113
195.963
181.14
164.825
146.708
127.562
108.236
89.4932
71.8558
55.7344
41.5739
29.3062
19.8674
10.0255
8.4539
320.391
320.178
319.572
318.561
317.14
315.239
312.843
309.791
306.473
300.78
280.241
236.491
216.815
192.475
224.207
215.801
200.094
184.153
166.32
146.229
125.273
104.479
84.6103
66.1949
49.7167
35.5908
23.8623
15.165
7.31105
5.99324
321.191
321.008
320.472
319.578
318.329
316.68
314.721
312.59
311.837
312.749
296.013
58.7018
203.521
145.318
230.318
221.124
202.674
184.978
165.336
143.438
120.893
98.9224
78.2438
59.4142
42.9161
29.1312
18.1856
10.4082
4.59669
3.53363
321.997
321.84
321.366
320.569
319.44
317.941
316.191
314.406
315.394
326.107
286.058
132.463
225.348
219.593
201.178
182.225
161.12
137.887
114.28
91.6306
70.6643
51.8545
35.7028
22.5769
12.6574
5.92849
2.16989
1.11601
322.788
322.654
322.234
321.509
320.46
319.014
317.174
314.947
314.782
316.495
316.067
119.652
225.185
156.282
227.977
217.496
198.617
178.596
156.201
131.914
107.528
84.2751
63.0595
44.3111
28.5944
16.221
7.40116
1.75018
-0.0676535
-1.24755
323.546
323.432
323.057
322.394
321.396
319.922
317.836
314.89
310.772
304.019
296.399
258.694
239.716
216.356
228.517
217.247
198.305
176.787
152.598
126.827
101.424
77.5624
56.0684
37.5111
22.363
10.8305
3.12572
-1.53694
-1.73337
-3.2568
324.252
324.155
323.818
323.2
322.22
320.671
318.288
314.571
308.605
298.936
283.09
258.943
242.634
231.039
229.781
218.016
198.523
175.326
149.312
121.956
95.3636
70.9809
49.5538
31.5204
17.1911
6.60799
-0.0113079
-3.82561
-2.75086
-4.83208
324.89
324.807
324.497
323.911
322.933
321.301
318.662
314.366
307.302
296.243
280.145
260.823
247.089
236.969
231.277
218.564
198.667
174.018
146.176
117.35
89.9514
65.3684
44.0653
26.4944
13.0438
3.51935
-2.04698
-5.17668
-3.19727
-6.01926
325.445
325.373
325.085
324.521
323.537
321.83
318.995
314.289
306.534
294.756
279.331
262.942
250.284
240.64
232.747
219.488
199.044
172.994
143.421
113.212
85.1789
60.5684
39.6501
22.7364
10.1033
1.44486
-3.24037
-5.83161
-3.26136
-6.90779
325.905
325.842
325.571
325.023
324.029
322.261
319.274
314.282
306.079
293.887
279.052
264.361
252.677
243.503
234.713
220.967
199.816
172.38
141.225
109.805
81.2465
56.7374
36.288
20.0458
8.16936
0.268721
-3.73949
-5.98863
-3.08958
-7.53739
326.259
326.203
325.945
325.406
324.407
322.589
319.484
314.286
305.769
293.327
278.959
265.486
254.66
245.911
236.956
222.898
200.931
172.194
139.658
107.206
78.2789
53.9113
33.8963
18.2791
7.05465
-0.256709
-3.75848
-5.8073
-2.78472
-7.94121
326.498
326.447
326.196
325.664
324.659
322.803
319.609
314.267
305.537
292.987
279.06
266.519
256.262
247.947
239.097
224.768
202.013
172.047
138.488
105.452
76.3967
52.2551
32.6477
17.5199
6.79109
-0.117329
-3.30002
-5.26365
-2.24912
-8.07499
326.624
326.573
326.326
325.797
324.786
322.902
319.648
314.211
305.319
292.685
279.157
267.302
257.416
249.475
240.778
226.172
202.661
171.814
137.604
104.351
75.4831
51.6125
32.3113
17.5069
7.08882
0.395506
-2.59406
-4.61639
-1.41357
-8.22569
316.541
316.18
315.214
313.625
311.395
308.396
304.505
299.681
293.954
287.319
279.661
270.139
257.279
241.179
223.828
206.769
190.265
173.779
157.323
141.058
124.962
109.249
94.0512
79.4996
65.5526
52.5188
39.2373
29.0013
11.3088
17.4167
316.674
316.316
315.362
313.79
311.578
308.593
304.705
299.85
293.997
287.091
278.939
268.713
255.206
239.763
223.413
207.012
190.728
174.321
157.921
141.637
125.491
109.706
94.4296
79.799
65.7827
52.6684
39.5225
29.1095
12.2512
16.9564
316.932
316.584
315.653
314.117
311.947
309
305.129
300.229
294.182
286.832
277.792
266.268
252.152
237.41
222.264
206.8
190.978
174.812
158.578
142.313
126.093
110.162
94.6966
79.8413
65.6526
52.3944
39.3337
28.9158
12.7974
16.5013
317.311
316.978
316.083
314.602
312.499
309.622
305.801
300.87
294.593
286.602
276.204
262.974
248.742
234.402
220.654
206.25
191.02
175.268
159.318
143.065
126.699
110.493
94.6602
79.4072
64.8631
51.3535
38.2969
27.8664
12.7523
15.264
317.802
317.489
316.64
315.233
313.226
310.457
306.732
301.804
295.278
286.414
274.099
259.158
244.788
231.086
219.169
205.932
191.389
176.163
160.462
144.142
127.478
110.801
94.3532
78.4921
63.47
49.6338
36.5836
26.1386
12.2627
13.5478
318.393
318.104
317.316
316.002
314.117
311.499
307.93
303.079
296.347
286.43
271.587
255.019
240.533
227.902
218.7
206.652
192.675
177.869
162.24
145.614
128.358
110.875
93.5769
76.9187
61.2653
47.052
34.0566
23.7341
11.2904
11.5457
319.069
318.807
318.085
316.882
315.151
312.73
309.394
304.743
297.957
287.022
268.868
250.637
235.823
225.012
219.944
209.069
195.362
180.747
164.765
147.342
129.001
110.325
91.9104
74.3028
58.0087
43.4946
30.6393
20.6489
9.8246
9.41204
319.813
319.581
318.931
317.843
316.282
314.103
311.092
306.822
300.322
288.477
272.317
248.683
233.805
219.29
224.241
213.429
199.264
184.154
167.178
148.32
128.358
108.152
88.4764
69.988
53.2451
38.6803
26.2646
16.8957
7.86401
7.21777
320.605
320.405
319.832
318.873
317.488
315.548
312.918
309.213
303.675
293.001
276.641
245.26
230.413
210.73
229.961
218.846
203.349
186.88
168.081
147.095
125.341
103.639
82.9298
63.9052
47.0765
32.7872
21.1351
12.6826
5.56531
5.04181
321.425
321.257
320.759
319.923
318.717
317.022
314.738
311.64
307.216
301.87
301.126
203.719
228.374
195.63
236.976
223.428
204.891
186.231
165.373
142.61
119.458
96.879
75.7233
56.6487
40.0985
26.4445
15.8084
8.44517
3.27152
2.93397
322.251
322.112
321.685
320.957
319.89
318.361
316.299
313.508
309.705
307.592
322.449
152.406
247.223
191.729
232.136
220.695
201.771
181.811
159.703
135.904
111.938
89.0352
67.9183
49.0865
33.1169
20.319
10.8374
4.60804
1.29383
0.932919
323.064
322.952
322.586
321.947
320.982
319.547
317.503
314.524
310.109
302.67
302.041
241.71
252.616
199.731
231.216
217.759
198.306
177.376
154.34
129.801
105.282
81.9758
60.7964
42.2057
26.8071
14.8594
6.52509
1.35622
-0.309797
-0.943016
323.845
323.755
323.444
322.882
321.992
320.588
318.424
314.956
308.854
297.807
289.765
261.245
247.939
226.883
230.848
216.79
197.267
175.202
150.639
124.788
99.4231
75.7378
54.518
36.2884
21.5978
10.542
3.28898
-0.988273
-1.33178
-2.54511
324.573
324.504
324.241
323.741
322.901
321.481
319.142
315.144
307.78
295.098
277.539
257.968
245.031
233.821
230.962
217.703
197.863
174.289
147.915
120.492
94.0919
70.0065
48.8929
31.2721
17.4427
7.37446
1.15732
-2.39808
-1.76714
-3.83941
325.232
325.18
324.955
324.504
323.698
322.248
319.748
315.329
307.045
293.364
276.563
259.772
248.072
238.52
232.507
219.156
198.885
173.904
145.67
116.632
89.3655
65.164
44.3328
27.2985
14.3267
5.26091
-0.00650299
-3.00242
-1.72709
-4.84483
325.807
325.769
325.575
325.162
324.379
322.898
320.266
315.53
306.558
292.366
276.615
261.345
249.964
241.255
234.09
220.887
200.26
173.988
143.958
113.34
85.2869
61.065
40.7304
24.4146
12.3104
4.06598
-0.436456
-3.03984
-1.4048
-5.6217
326.283
326.258
326.087
325.704
324.938
323.425
320.688
315.718
306.236
291.746
276.701
262.447
251.694
244.027
236.601
223.19
201.705
173.866
142.442
110.657
81.9878
57.8991
38.1114
22.5286
11.1839
3.63667
-0.291786
-2.71119
-0.932035
-6.19793
326.649
326.634
326.482
326.119
325.362
323.818
320.993
315.852
305.982
291.296
276.782
263.372
253.495
246.86
239.614
225.76
203.014
173.375
140.676
108.245
79.4759
55.6639
36.3896
21.4532
10.7359
3.73494
0.207112
-2.14658
-0.404403
-6.57892
326.899
326.889
326.749
326.399
325.646
324.073
321.174
315.92
305.782
291.034
276.994
264.25
255.126
249.515
242.605
228.137
203.84
172.483
138.83
106.268
77.876
54.5111
35.7207
21.2865
11.0527
4.40343
1.105
-1.30897
0.277409
-6.71132
327.027
327.02
326.885
326.541
325.786
324.182
321.231
315.917
305.538
290.753
277.242
264.973
256.358
251.669
245.088
229.936
204.222
171.56
137.334
104.973
77.1538
54.2479
35.8259
21.7366
11.8038
5.32452
2.16584
-0.438922
1.22127
-6.86502
316.712
316.359
315.415
313.862
311.671
308.709
304.86
300.108
294.5
287.912
279.284
267.343
253.322
238.412
220.924
203.797
187.161
170.67
154.189
137.915
121.709
105.777
90.2532
75.2917
60.9494
47.5705
34.3503
24.3332
9.08741
17.0276
316.847
316.498
315.567
314.032
311.86
308.912
305.068
300.279
294.519
287.557
278.306
265.931
252.031
237.332
220.681
204.141
187.795
171.467
155.062
138.804
122.553
106.538
90.9115
75.8425
61.4094
47.9118
34.7635
24.5113
9.96767
16.3922
317.111
316.772
315.867
314.369
312.241
309.334
305.51
300.677
294.709
287.151
276.745
263.548
250.081
235.529
220.002
204.321
188.479
172.471
156.236
140.005
123.664
107.472
91.617
76.3052
61.66
47.998
34.8346
24.4886
10.505
15.686
317.499
317.176
316.308
314.869
312.812
309.981
306.212
301.356
295.14
286.725
274.82
261.017
247.771
233.412
219.147
204.46
189.279
173.676
157.729
141.469
124.93
108.398
92.1259
76.3791
61.3239
47.3872
34.1656
23.7483
10.562
14.2006
318.003
317.7
316.883
315.52
313.564
310.847
307.175
302.321
295.793
286.278
272.749
258.67
245.156
231.411
218.7
205.117
190.66
175.508
159.797
143.347
126.388
109.265
92.3264
75.9082
60.3334
46.0194
32.7572
22.3087
10.1519
12.2244
318.609
318.331
317.575
316.311
314.484
311.92
308.397
303.592
296.729
285.95
270.636
256.346
242.757
230.159
219.47
207.012
193.181
178.34
162.53
145.555
127.798
109.731
91.8326
74.5403
58.3295
43.629
30.4505
20.1587
9.21208
9.98596
319.303
319.054
318.367
317.218
315.549
313.179
309.864
305.187
298.047
285.994
268.608
254.544
241.299
230.417
222.18
210.659
197.042
182.155
165.684
147.627
128.561
109.161
90.0569
71.8155
55.0069
40.0476
27.1116
17.2322
7.73666
7.67843
320.067
319.851
319.242
318.214
316.72
314.582
311.54
307.103
299.803
286.515
267.823
256.381
243.556
234.238
227.332
215.768
201.611
185.934
168.094
148.365
127.501
106.555
86.2819
67.2222
50.0234
35.1886
22.8393
13.6385
5.77959
5.4214
320.882
320.7
320.177
319.285
317.97
316.064
313.341
309.25
302.035
288.119
268.946
255.112
244.215
231.264
232.591
220.405
205.241
187.979
168.135
146.239
123.579
101.328
80.2336
60.7592
43.6757
29.3417
17.8975
9.69717
3.57528
3.32559
321.728
321.579
321.139
320.385
319.267
317.596
315.163
311.447
304.648
292.558
279.588
260.73
252.969
238.223
237.227
223.251
205.685
186.223
164.3
140.684
116.916
94.0816
72.6822
53.3713
36.8153
23.2935
12.9497
5.89404
1.49633
1.46673
322.581
322.466
322.105
321.474
320.515
319.035
316.837
313.315
306.565
295.082
288.334
262.021
258.892
240.061
235.601
220.93
202.003
181.139
157.995
133.525
109.253
86.221
64.9809
46.153
30.3457
17.764
8.59737
2.66881
-0.154523
-0.139772
323.423
323.338
323.05
322.527
321.702
320.359
318.264
314.643
307.154
293.591
282.705
265.875
261.378
242.677
233.682
217.957
198.224
176.545
152.743
127.761
103.058
79.728
58.5535
40.135
24.9417
13.235
5.16224
0.24226
-1.27691
-1.51573
324.232
324.175
323.952
323.531
322.817
321.561
319.467
315.544
307.001
292.089
275.166
261.903
251.06
237.499
232.289
217.041
197.26
174.542
149.416
123.231
97.6962
74.0608
53.0159
35.0846
20.7021
9.93618
2.87069
-1.24964
-1.79704
-2.64682
324.989
324.956
324.795
324.458
323.834
322.626
320.484
316.195
306.638
291.153
274.401
259.773
248.907
238.784
232.85
218.595
198.434
174.419
147.525
119.777
93.2562
69.2864
48.4372
31.0881
17.5206
7.71766
1.62148
-1.86785
-1.76027
-3.55303
325.675
325.665
325.554
325.289
324.738
323.556
321.366
316.753
306.325
290.663
274.898
260.185
249.358
241.145
234.555
221.062
200.579
175.254
146.452
116.92
89.408
65.2814
44.8165
28.1826
15.4711
6.54909
1.26359
-1.78649
-1.31306
-4.2548
326.274
326.283
326.214
326.009
325.516
324.35
322.12
317.244
306.104
290.387
275.269
260.834
250.714
243.941
237.179
223.687
202.382
175.437
145.259
114.431
86.0834
61.9889
42.0383
26.1538
14.3378
6.21654
1.57333
-1.23126
-0.629628
-4.80103
326.772
326.796
326.762
326.604
326.155
324.993
322.731
317.658
305.942
290.15
275.381
261.634
252.865
247.843
241.176
226.796
203.692
174.445
142.931
111.601
83.2101
59.4552
40.1247
24.9896
13.9549
6.49468
2.35359
-0.403981
0.148497
-5.21002
327.156
327.192
327.185
327.061
326.642
325.471
323.181
317.974
305.764
289.879
275.373
262.522
255.443
252.093
245.479
229.87
204.576
172.816
139.774
108.426
80.8051
57.7147
39.0406
24.5676
14.1528
7.19023
3.35276
0.552638
0.915108
-5.48875
327.415
327.46
327.469
327.367
326.966
325.773
323.464
318.19
305.577
289.693
275.423
263.464
257.979
255.847
249.082
232.139
204.732
171.007
136.87
105.772
79.2706
56.9773
38.902
24.9654
14.9968
8.32469
4.59276
1.62054
1.72411
-5.5941
327.552
327.599
327.616
327.523
327.127
325.898
323.6
318.289
305.232
289.509
275.536
264.239
259.945
258.614
251.622
233.496
204.439
169.439
134.904
104.357
78.7537
57.0361
39.3802
25.8073
16.1059
9.54763
5.83192
2.56678
2.66727
-5.75368
316.913
316.57
315.657
314.149
312.011
309.113
305.345
300.745
295.384
288.678
278.65
265.455
252.697
238.385
221.428
204.46
187.74
171.121
154.477
137.984
121.482
105.18
89.2409
73.8493
59.1379
45.4854
32.4193
22.5935
9.25308
17.7219
317.052
316.714
315.814
314.326
312.208
309.327
305.568
300.922
295.353
288.088
277.377
264.222
251.73
237.538
221.263
204.81
188.407
171.995
155.432
138.963
122.405
106
89.9309
74.3988
59.5668
45.7939
32.7291
22.6717
9.94969
16.8106
317.324
316.996
316.124
314.676
312.607
309.772
306.044
301.355
295.499
287.322
275.414
262.45
250.303
236.104
220.713
205.011
189.12
173.053
156.658
140.205
123.527
106.909
90.571
74.7577
59.6868
45.7235
32.5919
22.4072
10.1546
15.6112
317.724
317.413
316.581
315.195
313.206
310.457
306.8
302.103
295.881
286.557
273.603
260.983
248.539
234.471
220.092
205.287
190.06
174.413
158.225
141.706
124.775
107.76
90.9544
74.6733
59.2087
44.9496
31.7597
21.4377
9.86067
13.5785
318.242
317.953
317.175
315.874
313.994
311.371
307.826
303.13
296.44
285.888
272.189
259.634
246.659
233.078
219.962
206.17
191.622
176.342
160.383
143.561
126.115
108.426
90.8994
73.9475
57.9628
43.3224
30.1245
19.7464
9.08761
11.0561
318.866
318.603
317.892
316.697
314.957
312.497
309.111
304.437
297.22
285.434
270.964
258.228
245.146
232.535
221.009
208.278
194.374
179.289
163.084
145.58
127.213
108.5
89.989
72.1944
55.6307
40.6804
27.5649
17.3264
7.79409
8.32937
319.582
319.35
318.713
317.642
316.071
313.811
310.631
306.021
298.279
285.283
269.788
257.186
244.607
233.517
223.808
211.997
198.304
182.943
165.891
147.152
127.374
107.306
87.6038
68.9695
51.874
36.8118
23.9947
14.2125
6.0455
5.66794
320.371
320.174
319.623
318.684
317.302
315.273
312.35
307.858
299.63
285.463
269.229
258.258
246.766
237.182
228.613
216.864
202.567
186.272
167.644
147.117
125.588
104.002
83.2299
63.9625
46.6792
31.8087
19.5992
10.5687
3.91357
3.24715
321.213
321.054
320.597
319.804
318.612
316.827
314.195
309.867
301.24
286.424
271.592
263.026
253.214
243.548
233.807
221.297
205.706
187.559
166.858
144.28
121.021
98.2142
76.7585
57.3355
40.3522
26.0365
14.8012
6.81473
1.68761
1.19138
322.089
321.966
321.602
320.965
319.983
318.436
316.088
311.927
303.034
288.366
274.548
264.493
257.237
246.136
237.584
223.514
205.59
185.304
162.657
138.497
114.186
90.9197
69.4029
50.2604
33.8004
20.3584
10.2428
3.37518
-0.258987
-0.425371
322.975
322.889
322.616
322.121
321.325
320.005
317.906
313.795
304.513
289.694
276.086
266.443
260.426
246.813
236.705
221.48
202.203
180.484
156.653
131.631
106.947
83.596
62.2786
43.5884
27.867
15.4259
6.43805
0.668794
-1.65709
-1.62555
323.85
323.8
323.613
323.253
322.631
321.491
319.567
315.314
305.306
289.566
275.037
265.74
257.637
245.213
234.789
218.817
198.922
176.442
151.903
126.396
101.356
77.7743
56.5381
38.2465
23.2523
11.709
3.71898
-1.10263
-2.44431
-2.48545
324.694
324.677
324.57
324.338
323.868
322.875
321.063
316.518
305.634
289.555
273.936
262.178
252.53
242.072
233.714
218.422
198.385
174.88
149.053
122.42
96.6213
72.9216
51.9246
34.1154
19.8875
9.23602
2.19052
-1.90726
-2.59713
-3.10046
325.484
325.498
325.467
325.348
325.01
324.133
322.395
317.496
305.808
289.89
274.361
260.61
250.205
241.898
234.824
220.539
199.95
175.295
147.807
119.683
92.9259
68.9274
48.1507
30.9446
17.5381
7.81291
1.63971
-1.92945
-2.24719
-3.57748
326.203
326.244
326.278
326.26
326.036
325.253
323.579
318.351
305.976
290.135
274.706
260.427
250.928
244.408
237.089
223.032
201.828
176.024
147.067
117.51
89.7778
65.6864
45.4066
28.9439
16.3848
7.45786
1.94967
-1.2986
-1.52012
-3.9387
326.832
326.897
326.987
327.054
326.927
326.217
324.607
319.102
306.104
290.185
274.696
260.951
253.362
248.532
240.932
225.891
203.002
174.943
144.752
114.698
86.8542
63.055
43.4007
27.7204
15.9976
7.8258
2.84183
-0.282805
-0.583601
-4.20489
327.355
327.44
327.576
327.713
327.663
327.002
325.461
319.746
306.155
290.053
274.547
262.165
256.828
253.494
245.634
229.005
203.811
173.058
141.15
110.87
84.0093
61.0439
42.1632
27.267
16.2623
8.66321
4.07255
0.911663
0.390563
-4.4184
327.758
327.859
328.031
328.22
328.227
327.587
326.123
320.254
306.059
289.735
274.408
263.797
260.623
258.504
250.237
231.746
203.937
170.737
137.406
107.249
81.6658
59.763
41.6475
27.4389
17.0219
9.81473
5.41376
2.11936
1.3225
-4.56757
328.034
328.146
328.341
328.563
328.607
327.958
326.589
320.594
305.848
289.395
274.421
265.363
263.999
262.669
253.811
233.484
203.355
168.335
134.366
104.867
80.4857
59.4432
41.9541
28.2733
18.2488
11.2339
6.82061
3.25557
2.1927
-4.59458
328.176
328.292
328.498
328.735
328.789
328.113
326.896
320.69
305.428
289.102
274.518
266.528
266.466
265.538
256.088
234.249
202.438
166.415
132.677
104.146
80.4736
59.8153
42.7234
29.3802
19.5642
12.5792
8.05264
4.13144
2.99087
-4.71671
317.14
316.809
315.933
314.483
312.418
309.612
305.972
301.615
296.509
289.35
278.457
266.244
254.684
240.126
223.674
206.952
190.242
173.503
156.644
139.851
122.971
106.24
89.8531
74.0357
58.9953
45.1044
32.1415
22.444
10.3798
18.628
317.284
316.957
316.096
314.668
312.626
309.841
306.211
301.781
296.345
288.447
277.04
265.143
253.624
239.398
223.534
207.283
190.893
174.369
157.582
140.804
123.846
106.99
90.4511
74.474
59.2951
45.2764
32.2954
22.3601
10.8789
17.4415
317.564
317.249
316.417
315.034