/*--------------------------------*- C++ -*----------------------------------*\
| =========                 |                                                 |
| \\      /  F ield         | OpenFOAM: The Open Source CFD Toolbox           |
|  \\    /   O peration     | Version:  2512                                  |
|   \\  /    A nd           | Website:  www.openfoam.com                      |
|    \\/     M anipulation  |                                                 |
\*---------------------------------------------------------------------------*/
FoamFile
{
    version     2.0;
    format      ascii;
    arch        "LSB;label=32;scalar=64";
    class       volScalarField;
    location    "140";
    object      p;
}
// * * * * * * * * * * * * * * * * * * * * * * * * * * * * * * * * * * * * * //

dimensions      [0 2 -2 0 0 0 0];

internalField   nonuniform List<scalar> 
84826
(
2.80135
2.80699
2.81799
2.82619
2.81404
2.75141
2.58893
2.25093
1.63933
0.655387
-0.729547
-2.37991
-3.84128
-4.51007
-4.19956
-3.31353
-2.39131
-1.69155
-1.19765
-0.840524
-0.598506
-0.447986
-0.337688
-0.229723
-0.126791
-0.0500639
-0.00654431
0.0115432
0.0189269
0.0080569
2.81098
2.81889
2.83586
2.85492
2.86017
2.82355
2.69651
2.39902
1.8182
0.822032
-0.657503
-2.51664
-4.18375
-4.88225
-4.43387
-3.38361
-2.36547
-1.63658
-1.13973
-0.787034
-0.555992
-0.417351
-0.313079
-0.20782
-0.110479
-0.042627
-0.00646276
0.00944609
0.0195203
0.0122482
2.82932
2.84166
2.8703
2.91072
2.95078
2.96739
2.91522
2.70763
2.20301
1.19666
-0.474046
-2.8064
-4.93745
-5.68701
-4.92532
-3.51108
-2.28875
-1.50925
-1.02043
-0.690763
-0.490898
-0.373909
-0.269318
-0.15482
-0.0589999
-0.00722623
0.00872728
0.0101656
0.0144519
0.00670314
2.85476
2.87347
2.91889
2.99053
3.08275
3.18206
3.25208
3.2028
2.85312
1.87412
-0.0899771
-3.29674
-6.24345
-7.03475
-5.72534
-3.68626
-2.12112
-1.26164
-0.788883
-0.511243
-0.386837
-0.324545
-0.225791
-0.0909321
0.015719
0.0577935
0.0544128
0.0387418
0.0327882
0.0187287
2.88496
2.91152
2.97783
3.08912
3.2499
3.46322
3.71325
3.9205
3.86601
3.03744
0.678555
-4.13089
-8.40857
-9.09947
-6.87637
-3.86489
-1.84198
-0.917833
-0.466202
-0.240813
-0.211541
-0.230327
-0.159448
-0.0227826
0.0803661
0.10605
0.0830842
0.0490564
0.0301251
0.00520637
2.917
2.95227
3.042
3.19887
3.44184
3.80028
4.29868
4.90138
5.37963
5.00188
2.22142
-5.47655
-11.9669
-12.2946
-8.4648
-3.79626
-1.20592
-0.367292
-0.0549537
0.0672641
0.00354271
-0.0624672
0.00406242
0.13496
0.212479
0.208941
0.168964
0.123843
0.0922676
0.0420907
2.94764
2.99164
3.10511
3.30953
3.64232
4.17082
4.99079
6.17561
7.5869
8.25793
5.07604
-7.58
-17.2193
-17.4309
-10.9471
-3.41745
-0.123324
0.469607
0.477447
0.359523
0.159505
0.0920772
0.201074
0.321434
0.335126
0.266555
0.191367
0.12802
0.0873461
-0.0148689
2.97361
3.02538
3.1602
3.40851
3.82828
4.53369
5.72804
7.70128
10.7049
13.9189
10.372
-5.40082
-21.0195
-25.0518
-13.9457
-1.74995
1.82435
1.65071
1.07368
0.564576
0.228044
0.279616
0.555946
0.73003
0.69296
0.548597
0.423535
0.315226
0.292725
0.0209203
2.99199
3.04957
3.20058
3.48274
3.97226
4.82755
6.37803
9.23335
14.5862
23.0967
23.9252
-9.69887
-25.8681
-45.2542
-18.8674
1.04614
5.02393
3.35766
1.43711
-0.0224281
-0.756645
-0.626998
-0.118583
0.215134
0.245608
0.139559
0.0544837
-0.0116853
-0.0448158
-0.132269
3.0006
3.0612
3.22069
3.5209
4.04852
4.98847
6.75206
10.2071
17.5226
32.5298
48.0778
3.35443
-29.5166
-70.8785
-16.5234
5.39522
9.87772
7.70546
4.90476
2.47363
1.05427
0.861291
1.22389
1.42769
1.31063
1.06533
0.857019
0.695776
0.43773
0.387941
2.99828
3.05868
3.21771
3.51707
4.04333
4.98232
6.74625
10.2041
17.5396
32.6554
55.7761
25.661
-60.8678
-15.9601
5.95199
9.49059
7.48943
5.03828
2.70683
1.22912
0.965143
1.2928
1.48634
1.36586
1.11705
0.905959
0.753136
0.490272
0.454914
2.9851
3.04216
3.19206
3.47236
3.95917
4.81169
6.36058
9.22083
14.6099
23.2737
35.9214
1.29972
-33.177
-56.9033
-18.6651
0.457782
3.82965
3.06824
2.01051
0.740053
-0.174076
-0.237436
0.187403
0.497709
0.507136
0.365182
0.239797
0.154226
0.107895
-0.0487806
2.96232
3.01329
3.14643
3.39202
3.8079
4.50823
5.6969
7.66853
10.6814
13.9276
16.3743
-8.00651
-28.5009
-32.1556
-13.2083
-1.29076
1.78107
1.79123
1.551
1.02606
0.455362
0.328699
0.563708
0.765158
0.745726
0.590411
0.446326
0.343685
0.339508
0.0268979
2.93224
2.97515
3.08631
3.28691
3.61399
4.13468
4.94434
6.11649
7.5068
8.13562
4.80094
-8.39835
-19.2297
-18.5235
-10.6338
-2.77941
0.223831
0.703741
0.806366
0.675058
0.346137
0.187293
0.289663
0.435295
0.448574
0.353276
0.253233
0.189943
0.153773
0.029587
2.89789
2.9318
3.01864
3.17071
3.40645
3.75463
4.23847
4.81953
5.26175
4.81971
1.90675
-6.0951
-13.1723
-13.175
-8.4106
-3.31129
-0.890827
-0.29729
-0.0425916
0.0846209
0.00164313
-0.0764464
0.000544705
0.143847
0.215152
0.196677
0.148893
0.115803
0.0852186
0.0506373
2.86263
2.8876
2.9505
3.05612
3.20833
3.40937
3.6418
3.82308
3.72812
2.83737
0.371786
-4.61869
-9.17032
-9.75045
-7.00425
-3.62974
-1.63543
-0.861661
-0.433212
-0.143499
-0.0705665
-0.0871155
-0.0348213
0.0789883
0.159488
0.17001
0.138085
0.106447
0.070794
0.0501372
2.82979
2.84671
2.8883
2.95355
3.03614
3.12175
3.17251
3.09571
2.7059
1.67006
-0.377399
-3.69388
-6.77267
-7.5246
-5.92319
-3.60698
-1.98579
-1.19286
-0.741004
-0.431352
-0.29345
-0.255543
-0.193207
-0.0829127
0.0135217
0.0552443
0.0487799
0.0332487
0.00863519
0.0149484
2.80235
2.81276
2.83723
2.8707
2.90036
2.90236
2.83009
2.59478
2.05177
0.994646
-0.740845
-3.14524
-5.34417
-6.07148
-5.13497
-3.51424
-2.20248
-1.43672
-0.964747
-0.623711
-0.416025
-0.309105
-0.218202
-0.107918
-0.0110297
0.040537
0.044409
0.0357605
0.0142813
0.0245931
2.7827
2.7886
2.80117
2.81288
2.80722
2.75544
2.60795
2.28301
1.66566
0.623622
-0.909015
-2.82044
-4.52603
-5.2045
-4.63787
-3.42851
-2.31432
-1.57288
-1.08858
-0.734199
-0.49588
-0.357995
-0.260249
-0.161299
-0.0729414
-0.0174015
-0.00238881
0.00124288
-0.0109332
0.0100759
2.77246
2.77608
2.78255
2.78322
2.75989
2.68184
2.49878
2.13359
1.48659
0.459404
-0.973163
-2.66727
-4.15554
-4.80426
-4.39833
-3.37627
-2.35877
-1.63528
-1.14915
-0.791027
-0.539398
-0.385102
-0.280298
-0.182449
-0.093624
-0.0310826
-0.00557907
0.00779436
0.000336443
0.0210275
2.79271
2.79767
2.80697
2.81228
2.79606
2.72842
2.5607
2.21912
1.60844
0.633135
-0.73226
-2.35063
-3.7767
-4.42617
-4.12336
-3.26474
-2.37112
-1.68871
-1.20232
-0.848787
-0.607797
-0.455529
-0.342494
-0.233299
-0.130746
-0.0546768
-0.0107724
0.00823173
0.0169364
0.00669864
2.80219
2.80935
2.82449
2.84034
2.84095
2.79837
2.66452
2.36118
1.77898
0.790813
-0.666152
-2.48422
-4.10528
-4.77875
-4.3422
-3.32821
-2.34483
-1.63501
-1.14604
-0.797762
-0.568438
-0.428011
-0.320449
-0.212958
-0.11477
-0.0465307
-0.00969269
0.00664697
0.0171167
0.00986081
2.82021
2.83167
2.85816
2.89472
2.92892
2.93746
2.8751
2.65664
2.14494
1.14436
-0.497958
-2.76775
-4.82878
-5.53956
-4.79814
-3.4418
-2.27003
-1.51381
-1.0315
-0.703833
-0.503523
-0.384023
-0.277546
-0.162989
-0.067008
-0.0138728
0.00438736
0.00745083
0.0125603
0.00500793
2.84523
2.86283
2.90568
2.97248
3.05697
3.14478
3.1988
3.12935
2.76102
1.78151
-0.14459
-3.25255
-6.08699
-6.81046
-5.53421
-3.59122
-2.10482
-1.28093
-0.819195
-0.541349
-0.408114
-0.335326
-0.232843
-0.100846
0.00270216
0.0451277
0.0447433
0.0317816
0.0275242
0.0150301
2.87494
2.90011
2.96323
3.06844
3.21892
3.41572
3.6405
3.8118
3.71684
2.871
0.566036
-4.0982
-8.18816
-8.73817
-6.58238
-3.74099
-1.83107
-0.945059
-0.508686
-0.288615
-0.247307
-0.247509
-0.16843
-0.0339835
0.0650599
0.089973
0.0687442
0.0363538
0.0182356
-0.00376
2.90645
2.94
3.02573
3.17501
3.40456
3.73971
4.19914
4.74031
5.13987
4.71008
1.99715
-5.5512
-11.7374
-11.6928
-7.98008
-3.63387
-1.25337
-0.464043
-0.147655
-0.0147327
-0.0569951
-0.101052
-0.0240132
0.109859
0.19034
0.191273
0.154603
0.110937
0.0810607
0.0364849
2.93657
2.97854
3.08721
3.28202
3.59769
4.09482
4.85734
5.94466
7.21182
7.78709
4.6438
-8.14835
-17.1527
-16.4057
-10.3011
-3.12814
-0.0927377
0.389647
0.380721
0.278043
0.0924774
0.0222178
0.114593
0.226626
0.244035
0.182786
0.111418
0.0490963
0.012397
-0.0598446
2.96209
3.01155
3.14094
3.37778
3.77583
4.43956
5.55359
7.38688
10.1736
13.2788
10.6811
-6.91075
-22.1162
-22.7979
-13.5468
-2.17543
1.39781
1.40664
0.972736
0.565833
0.266907
0.294217
0.5218
0.673032
0.638285
0.500967
0.375811
0.268394
0.228808
0.0115824
2.98015
3.03521
3.18025
3.44974
3.91376
4.71648
6.16096
8.82263
13.9293
22.9169
25.9151
-8.47661
-29.1811
-36.2602
-14.282
1.66043
4.21042
2.70225
1.12408
-0.102595
-0.776872
-0.711098
-0.293808
-0.00187001
0.0297949
-0.0632297
-0.134697
-0.190277
-0.162962
-0.27906
2.98859
3.04656
3.19985
3.48676
3.98722
4.86985
6.50758
9.71686
16.7816
33.7444
61.3264
-46.5652
-102.281
-72.9435
-13.2308
7.15775
8.83148
6.02908
3.42212
1.33236
0.120454
-0.00539322
0.37691
0.627789
0.585865
0.417137
0.281752
0.179332
0.0827851
-0.00779035
2.98628
3.04408
3.19695
3.48308
3.9822
4.86365
6.50124
9.71199
16.7879
33.8045
72.9217
-45.8293
-12.9776
7.31518
8.79355
6.3135
3.9709
1.8311
0.438952
0.169144
0.475028
0.688431
0.623578
0.438382
0.291291
0.194622
0.0615463
0.0376677
2.97328
3.02782
3.17204
3.43999
3.90067
4.70008
6.14205
8.80521
13.9313
23.0028
41.935
-23.3867
-55.3088
-63.7703
-12.3652
3.03487
4.34459
3.07589
1.97643
0.700304
-0.277571
-0.441596
-0.111154
0.147799
0.141241
-0.00260412
-0.123262
-0.196681
-0.218009
-0.303255
2.95084
2.99952
3.12738
3.36165
3.75531
4.41357
5.52106
7.34965
10.1342
13.2449
16.9415
-11.8627
-32.0015
-30.7432
-13.001
-1.68007
1.35169
1.59061
1.51361
1.04337
0.470952
0.309733
0.501486
0.683667
0.661849
0.508833
0.368598
0.268315
0.275163
-0.0174031
2.92121
2.96213
3.06847
3.25943
3.56934
4.05854
4.81017
5.88293
7.12444
7.6495
4.35445
-8.88675
-18.9988
-17.6914
-10.1729
-2.40988
0.436942
0.780871
0.784782
0.599426
0.255633
0.0950565
0.18919
0.336636
0.359437
0.278137
0.194427
0.142742
0.122238
0.00832195
2.88738
2.91958
3.00245
3.14697
3.36931
3.69412
4.13871
4.65758
5.0198
4.52483
1.68236
-6.12906
-12.8426
-12.5968
-8.02125
-3.17971
-0.957325
-0.428668
-0.16374
-0.00200464
-0.0452625
-0.0949448
-0.0114329
0.130499
0.201072
0.18464
0.140152
0.107501
0.0753179
0.0459141
2.85265
2.87625
2.936
3.03557
3.17752
3.36207
3.56928
3.71463
3.57935
2.67208
0.263988
-4.56203
-8.89602
-9.37249
-6.74242
-3.53796
-1.6428
-0.886889
-0.453261
-0.163119
-0.0891215
-0.10231
-0.0517175
0.058718
0.137052
0.148337
0.119484
0.0906194
0.0556253
0.0444185
2.82031
2.83615
2.87519
2.93565
3.01058
3.08481
3.11973
3.02308
2.61522
1.58016
-0.426402
-3.6353
-6.58814
-7.28228
-5.74076
-3.52996
-1.98105
-1.21417
-0.769966
-0.46438
-0.323475
-0.276021
-0.205644
-0.092418
0.00403305
0.0460956
0.0413203
0.0289492
0.0050567
0.0171844
2.7933
2.80285
2.8252
2.85487
2.87877
2.87284
2.79063
2.54485
1.99556
0.94545
-0.759556
-3.09722
-5.22037
-5.91123
-5.00723
-3.45303
-2.19259
-1.44791
-0.980943
-0.641206
-0.431689
-0.319982
-0.225562
-0.115378
-0.0203293
0.0306001
0.0357464
0.0309919
0.0103824
0.0264336
2.77398
2.77915
2.78992
2.79848
2.78829
2.73071
2.57669
2.24636
1.62839
0.595485
-0.91312
-2.78129
-4.43816
-5.09214
-4.54341
-3.37718
-2.30081
-1.57788
-1.09923
-0.747171
-0.509424
-0.369615
-0.269213
-0.168757
-0.0798439
-0.0230316
-0.00614905
0.00098532
-0.0110203
0.0143382
2.76389
2.76685
2.77166
2.76948
2.7422
2.65932
2.47129
2.10299
1.45765
0.440106
-0.971735
-2.63239
-4.08388
-4.71358
-4.31913
-3.3299
-2.3442
-1.63796
-1.15748
-0.801601
-0.550972
-0.395516
-0.2882
-0.188395
-0.0987497
-0.0354538
-0.00953674
0.00601038
-0.00287174
0.0233839
2.77504
2.77834
2.7836
2.78228
2.75693
2.67797
2.49783
2.1459
1.53309
0.571709
-0.755195
-2.3086
-3.66468
-4.27962
-3.9967
-3.19105
-2.3466
-1.69104
-1.21531
-0.86576
-0.624047
-0.466845
-0.348553
-0.237506
-0.135777
-0.0602458
-0.0147963
0.0059821
0.0165274
0.00628159
2.78422
2.78959
2.80038
2.809
2.79938
2.74361
2.59444
2.27659
1.68754
0.710546
-0.704755
-2.44223
-3.97454
-4.60414
-4.19536
-3.24769
-2.32202
-1.64091
-1.16227
-0.817779
-0.587304
-0.441031
-0.327348
-0.217127
-0.118514
-0.0498827
-0.0116078
0.0055629
0.0167459
0.00888522
2.80162
2.81104
2.83256
2.86064
2.88232
2.87367
2.78943
2.54716
2.0174
1.01953
-0.574681
-2.72685
-4.653
-5.30088
-4.60374
-3.34609
-2.25255
-1.52922
-1.05369
-0.725482
-0.519949
-0.392812
-0.281934
-0.167313
-0.0713446
-0.0160433
0.00560552
0.0105741
0.0165531
0.00794997
2.82576
2.84098
2.87795
2.93442
3.00286
3.06705
3.08815
2.97754
2.56783
1.57204
-0.296183
-3.21652
-5.83378
-6.4586
-5.25287
-3.46745
-2.09968
-1.3192
-0.86187
-0.575184
-0.423945
-0.334525
-0.22853
-0.102797
-0.00437655
0.0387447
0.0422232
0.0318077
0.0285819
0.0157274
2.85442
2.87675
2.93287
3.02528
3.15488
3.31873
3.4934
3.59393
3.4141
2.50964
0.262044
-4.06627
-7.78585
-8.17376
-6.13973
-3.5614
-1.83322
-0.998323
-0.56386
-0.330556
-0.257867
-0.227286
-0.139406
-0.0123754
0.0794534
0.103358
0.084499
0.053457
0.0345036
0.0105365
2.88479
2.91497
2.99248
3.12606
3.32856
3.61817
4.00226
4.42439
4.662
4.07592
1.37438
-5.60377
-11.0771
-10.7564
-7.25532
-3.38326
-1.2996
-0.560213
-0.224068
-0.0670608
-0.0742915
-0.0901313
-0.0106451
0.11445
0.18924
0.190124
0.153859
0.109646
0.077862
0.0372403
2.91382
2.95186
3.05089
3.22709
3.50879
3.9446
4.59617
5.49138
6.45993
6.65936
3.40343
-8.3509
-16.0978
-14.6864
-8.95425
-2.73891
-0.158884
0.302701
0.370855
0.340854
0.208733
0.154715
0.227806
0.326974
0.3439
0.284914
0.208444
0.137234
0.0870281
0.0153005
2.93839
2.98338
3.1016
3.31689
3.67466
4.26067
5.22014
6.75909
9.00339
11.2669
8.68246
-8.3555
-21.7739
-20.1495
-10.5754
-1.74735
1.03591
1.12282
0.845909
0.553198
0.296207
0.291254
0.454951
0.58934
0.578183
0.471916
0.364391
0.274158
0.215779
0.0755807
2.95574
3.00598
3.13869
3.38358
3.8007
4.51166
5.76043
8.01018
12.2314
19.3912
22.1541
-12.6834
-33.0193
-31.017
-8.02875
2.64652
3.92854
2.91272
1.87093
0.961408
0.332017
0.251056
0.465974
0.629321
0.596995
0.45757
0.335484
0.242649
0.204302
0.0425382
2.96381
3.01678
3.15726
3.4179
3.86656
4.64623
6.06068
8.77701
14.7016
28.7977
57.0296
-43.3857
-53.4649
-55.2916
-6.43765
7.03346
6.93895
4.90555
3.18119
1.72214
0.700365
0.481919
0.707492
0.875391
0.815482
0.639946
0.491576
0.385785
0.299058
0.142779
2.96151
3.01431
3.15435
3.41486
3.86461
4.64365
6.05479
8.77004
14.6935
28.7469
68.2123
-68.9328
-7.9303
7.04817
7.07381
5.20193
3.62929
2.04486
0.849019
0.522303
0.704452
0.85251
0.777441
0.588582
0.431896
0.328706
0.232764
0.107698
2.94891
2.99876
3.1309
3.37499
3.79037
4.49784
5.74063
7.98643
12.2012
19.3144
36.875
-47.9619
-67.3345
-59.8152
-5.89779
3.83525
3.58738
2.55917
1.92044
0.973746
0.135256
-0.0808327
0.155961
0.362137
0.348764
0.208323
0.087558
0.0105921
0.00773953
-0.147126
2.9272
2.97154
3.08843
3.30128
3.65435
4.2342
5.18574
6.71528
8.94044
11.1585
13.8557
-15.2469
-30.5011
-27.458
-10.667
-1.73528
0.688914
1.09442
1.20606
0.875854
0.402871
0.260496
0.431502
0.609747
0.614345
0.497966
0.38375
0.302014
0.302385
0.0544238
2.89853
2.93556
3.03229
3.20462
3.48057
3.90838
4.54831
5.42636
6.36312
6.49647
3.06587
-9.07442
-17.6069
-15.9764
-9.11817
-2.17123
0.308872
0.614509
0.647791
0.518752
0.245475
0.119329
0.200781
0.334064
0.357164
0.284568
0.204328
0.151303
0.117631
0.0230374
2.8658
2.89467
2.96935
3.09823
3.29357
3.57283
3.94179
4.34091
4.53975
3.88607
1.05369
-6.15384
-12.0226
-11.6144
-7.41427
-3.04345
-1.08649
-0.587113
-0.282547
-0.0759561
-0.0713307
-0.0914651
-0.00799151
0.125292
0.194116
0.182503
0.142602
0.110664
0.0749992
0.0522086
2.83223
2.85303
2.90583
2.99267
3.11382
3.26555
3.42281
3.49757
3.27789
2.31333
-0.0323211
-4.50259
-8.41495
-8.7617
-6.34229
-3.42525
-1.68975
-0.956101
-0.510199
-0.211758
-0.121193
-0.11541
-0.058055
0.0495986
0.126383
0.139564
0.113836
0.0874122
0.051236
0.0472602
2.80096
2.81445
2.84768
2.89788
2.95691
3.00775
3.01012
2.87293
2.42482
1.37576
-0.567378
-3.57807
-6.29259
-6.89802
-5.47003
-3.43874
-2.00086
-1.26253
-0.817826
-0.508464
-0.354547
-0.288777
-0.208141
-0.0949163
-0.00140628
0.0402656
0.0373897
0.0293695
0.00549911
0.0243949
2.77483
2.78239
2.79984
2.82112
2.83268
2.80985
2.70622
2.43744
1.87146
0.82631
-0.826493
-3.04006
-5.01917
-5.64995
-4.81109
-3.37283
-2.19236
-1.47476
-1.01079
-0.670055
-0.454785
-0.333622
-0.233561
-0.12418
-0.0317002
0.0198494
0.0281236
0.0294756
0.00980919
0.0327393
2.75614
2.75957
2.76605
2.7675
2.74726
2.67682
2.50797
2.16395
1.54055
0.520929
-0.943019
-2.72675
-4.29027
-4.90108
-4.39137
-3.30442
-2.29061
-1.59385
-1.12127
-0.770489
-0.530859
-0.385407
-0.279602
-0.176947
-0.0875963
-0.0286178
-0.0087669
0.00369498
-0.00921856
0.0223631
2.74636
2.74771
2.74855
2.73985
2.70364
2.60976
2.40985
2.03203
1.38593
0.384319
-0.986458
-2.57912
-3.95768
-4.55332
-4.18645
-3.26066
-2.32948
-1.64875
-1.17522
-0.821369
-0.570339
-0.410884
-0.298473
-0.195647
-0.105338
-0.0407734
-0.0136104
0.00559853
-0.00520958
0.0288853
2.74927
2.75006
2.74916
2.7379
2.69902
2.60333
2.40489
2.03714
1.41998
0.478283
-0.792424
-2.25126
-3.50876
-4.07892
-3.82891
-3.0972
-2.31836
-1.69886
-1.23876
-0.895183
-0.652318
-0.489005
-0.365083
-0.252508
-0.15165
-0.0761093
-0.0280476
-0.00476427
0.00904627
0.000347814
2.75798
2.76068
2.76486
2.76269
2.73802
2.66296
2.49144
2.15234
1.55282
0.592115
-0.761796
-2.38151
-3.78848
-4.36695
-4.00418
-3.14819
-2.29913
-1.65699
-1.19346
-0.853794
-0.620588
-0.466666
-0.346557
-0.234423
-0.135959
-0.0665762
-0.0254483
-0.00608891
0.00792901
0.00173851
2.77447
2.78088
2.79494
2.81052
2.81402
2.7807
2.66542
2.38945
1.83432
0.84317
-0.680588
-2.66106
-4.39733
-4.97884
-4.35927
-3.2366
-2.24548
-1.56548
-1.10127
-0.77294
-0.559766
-0.422441
-0.30627
-0.191661
-0.0957373
-0.0374975
-0.0108974
-0.00260014
0.0068546
0.000637309
2.79734
2.80909
2.83732
2.87872
2.92418
2.95507
2.93046
2.76343
2.29882
1.28411
-0.503237
-3.14136
-5.45139
-5.98656
-4.91084
-3.34409
-2.1309
-1.40191
-0.946743
-0.647663
-0.475539
-0.368349
-0.258459
-0.137864
-0.0418729
0.00528298
0.0157883
0.010085
0.0113678
0.00286624
2.82447
2.84276
2.88853
2.96253
3.0626
3.18074
3.28677
3.29235
3.00069
2.01819
-0.145221
-3.94342
-7.1421
-7.45529
-5.63812
-3.41849
-1.92784
-1.15508
-0.712142
-0.451721
-0.338883
-0.276598
-0.181217
-0.0611228
0.0280269
0.0576925
0.048118
0.0238638
0.0111638
-0.00493789
2.85319
2.87872
2.9441
3.05531
3.22009
3.44731
3.72981
3.99459
4.01432
3.21243
0.555572
-5.35921
-9.89971
-9.5684
-6.52551
-3.31794
-1.55605
-0.835446
-0.453975
-0.249438
-0.20042
-0.176705
-0.0889977
0.0309081
0.107104
0.116859
0.0906562
0.0537643
0.0299773
0.00435957
2.88062
2.91335
2.99849
3.1483
3.38304
3.73571
4.24031
4.87748
5.43762
5.09389
1.75575
-7.71841
-14.0001
-12.475
-7.6472
-2.93689
-0.83033
-0.24294
-0.0171743
0.0607845
0.0139285
-0.000552162
0.0789582
0.184646
0.220851
0.185579
0.126442
0.067247
0.0278137
-0.0160952
2.9038
2.94288
3.04563
3.23084
3.53286
4.0147
4.77113
5.9054
7.36089
8.2747
5.67054
-8.29156
-19.0926
-17.1685
-8.51755
-2.48147
-0.276882
0.172502
0.240834
0.159665
0.0221093
0.0297156
0.170228
0.315002
0.344792
0.284437
0.208888
0.143452
0.101005
0.0268217
2.92011
2.96389
3.07982
3.29208
3.6461
4.2357
5.23049
6.91247
9.70068
13.2781
13.6449
-13.8085
-27.2833
-25.2198
-7.1118
-0.0747352
1.42372
1.35947
1.04882
0.571202
0.149609
0.0613258
0.208534
0.359573
0.364065
0.268053
0.172079
0.10174
0.0699559
-0.0203513
2.92765
2.97384
3.09653
3.32239
3.70324
4.34962
5.48412
7.53962
11.4751
18.4985
30.4161
-62.0027
-30.1262
-42.3109
-7.75528
1.68897
2.87519
2.47795
1.89104
1.10849
0.400892
0.207946
0.376846
0.541331
0.5377
0.41971
0.307959
0.232314
0.190292
0.0635161
2.92538
2.97152
3.09386
3.31923
3.70168
4.34867
5.47856
7.53046
11.4553
18.4095
35.4088
-61.8644
-41.035
-54.7283
-7.03039
2.87476
3.5512
2.9571
2.36285
1.45056
0.593311
0.309026
0.443076
0.586697
0.566403
0.430144
0.306005
0.224971
0.184464
0.0416126
2.91334
2.95686
3.07196
3.28266
3.63572
4.2228
5.20997
6.88295
9.64706
13.1473
20.6989
-42.3636
-30.8919
-51.1506
-5.95779
0.922399
1.42782
1.28959
1.219
0.712587
0.128367
-0.0452991
0.134236
0.318817
0.334313
0.235621
0.1397
0.0742012
0.0761135
-0.0741609
2.89267
2.93109
3.03229
3.21479
3.51234
3.98784
4.73526
5.8561
7.2824
8.13418
8.63324
-13.534
-24.5997
-22.3531
-8.47969
-2.13017
-0.2185
0.333418
0.60674
0.472668
0.165159
0.0746697
0.219331
0.385995
0.418555
0.349235
0.269644
0.213366
0.197175
0.0519935
2.86543
2.89714
2.98002
3.12601
3.35501
3.6996
4.19206
4.81011
5.33539
4.92233
1.43071
-8.2992
-15.0081
-13.5308
-7.83561
-2.47511
-0.419594
0.031903
0.230199
0.243004
0.092611
0.0182607
0.0962957
0.218728
0.256189
0.2123
0.149935
0.105038
0.0665392
0.0126483
2.83434
2.85858
2.92119
3.02774
3.18543
3.40239
3.66976
3.91133
3.89247
3.02577
0.252204
-5.83107
-10.6111
-10.2738
-6.72512
-3.0781
-1.36885
-0.822135
-0.461654
-0.219787
-0.170398
-0.161836
-0.0760623
0.0501426
0.124214
0.127838
0.0990779
0.0743008
0.0406614
0.0356193
2.80244
2.81924
2.86175
2.93028
3.02207
3.12833
3.21733
3.19784
2.86783
1.82873
-0.420752
-4.3313
-7.65854
-7.95475
-5.85393
-3.33738
-1.80648
-1.10104
-0.64683
-0.337114
-0.216218
-0.178759
-0.107211
-0.000299739
0.0777437
0.0986765
0.0809071
0.06254
0.0291888
0.039125
2.77272
2.78279
2.80736
2.84263
2.87889
2.89679
2.85404
2.66145
2.16048
1.09619
-0.757473
-3.47126
-5.85145
-6.37197
-5.12317
-3.34334
-2.0532
-1.34823
-0.900549
-0.583363
-0.410485
-0.323062
-0.232756
-0.121695
-0.0313905
0.0134108
0.0162913
0.0165015
-0.00481724
0.025416
2.74789
2.75249
2.76256
2.7715
2.76512
2.71806
2.58407
2.28273
1.69348
0.658532
-0.917925
-2.95164
-4.72837
-5.29303
-4.55697
-3.27777
-2.20285
-1.5195
-1.06109
-0.720455
-0.498153
-0.365618
-0.259119
-0.150103
-0.0592732
-0.00443518
0.00958413
0.0196326
0.00157339
0.0350702
2.73012
2.73093
2.73091
2.72172
2.68671
2.59744
2.40698
2.04288
1.41102
0.41075
-0.987298
-2.64769
-4.07941
-4.6395
-4.19011
-3.21207
-2.28099
-1.61896
-1.15621
-0.808509
-0.56634
-0.413344
-0.300944
-0.195828
-0.105977
-0.0440063
-0.0199029
-0.000480101
-0.0132987
0.027511
2.72081
2.71971
2.71448
2.69602
2.64656
2.53644
2.31897
1.92651
1.27802
0.298922
-1.01182
-2.50558
-3.78137
-4.33263
-4.00879
-3.17079
-2.31197
-1.66504
-1.20254
-0.852882
-0.601348
-0.436412
-0.317903
-0.211922
-0.120964
-0.0543998
-0.0248648
0.000138936
-0.0116998
0.0331546
2.71682
2.71459
2.70609
2.68269
2.62748
2.51207
2.29284
1.90912
1.29119
0.378172
-0.821898
-2.16777
-3.31126
-3.83472
-3.62682
-2.98027
-2.27558
-1.69887
-1.25863
-0.923073
-0.67963
-0.510626
-0.381711
-0.267912
-0.167463
-0.0914207
-0.040449
-0.0146916
0.00313027
-0.00399548
2.72495
2.72441
2.72048
2.70512
2.66231
2.56451
2.3676
2.00656
1.4002
0.466332
-0.807665
-2.28683
-3.54883
-4.07655
-3.7737
-3.02364
-2.26062
-1.66427
-1.21996
-0.886837
-0.651033
-0.489775
-0.364165
-0.250852
-0.152644
-0.0821951
-0.0376995
-0.015736
0.00224861
-0.00264904
2.7403
2.7431
2.74799
2.74832
2.73
2.66772
2.51713
2.20549
1.62887
0.658516
-0.767638
-2.54085
-4.06069
-4.58346
-4.06824
-3.10016
-2.22079
-1.58962
-1.14065
-0.814495
-0.594382
-0.447374
-0.32629
-0.211767
-0.115885
-0.0548271
-0.0230231
-0.010984
0.00304765
-0.00199804
2.76159
2.76916
2.78668
2.80978
2.82777
2.81977
2.74333
2.51617
2.00067
0.987936
-0.676771
-2.96875
-4.92894
-5.4032
-4.51271
-3.19245
-2.1388
-1.46137
-1.01089
-0.70267
-0.513469
-0.391981
-0.279138
-0.16259
-0.0679643
-0.0166251
0.00101585
0.000265897
0.00679547
-0.000283566
2.78681
2.80023
2.83336
2.88504
2.95
3.01508
3.04454
2.94901
2.54916
1.51665
-0.482971
-3.64898
-6.28143
-6.58773
-5.08693
-3.25426
-1.9841
-1.2641
-0.815338
-0.532061
-0.386351
-0.300623
-0.201977
-0.0885942
-0.00113358
0.0350342
0.0353431
0.0183559
0.0124498
-0.00177522
2.8135
2.83337
2.88386
2.96801
3.08817
3.24355
3.41298
3.51054
3.31718
2.3403
-0.107052
-4.75029
-8.34753
-8.22073
-5.78625
-3.23745
-1.72074
-0.996534
-0.58339
-0.345601
-0.253455
-0.202478
-0.11345
-0.00277768
0.072587
0.0899576
0.0739338
0.0444009
0.0279261
0.00535535
2.83893
2.86524
2.93321
3.05085
3.23016
3.48793
3.83037
4.19656
4.35184
3.57197
0.528108
-6.56679
-11.3961
-10.2949
-6.47716
-3.05266
-1.25685
-0.541558
-0.207636
-0.0634788
-0.0538836
-0.0422592
0.0390737
0.142065
0.190008
0.172705
0.129118
0.0807958
0.0501973
0.0105384
2.86039
2.8924
2.9759
3.12405
3.36001
3.72168
4.25543
4.96723
5.67127
5.40295
1.53299
-9.74369
-15.8161
-13.1294
-7.06153
-2.71338
-0.78301
-0.126238
0.105699
0.120879
0.0297275
0.0203101
0.12681
0.251663
0.29259
0.253723
0.193427
0.138632
0.104154
0.046735
2.87546
2.91167
3.00673
3.17804
3.4584
3.90773
4.61733
5.6984
7.11926
8.02492
6.15628
-11.5577
-21.1086
-17.8612
-7.34934
-1.62403
0.293653
0.6917
0.695277
0.46461
0.175048
0.0827581
0.186684
0.317487
0.344889
0.280472
0.201757
0.142384
0.110933
0.0452228
2.88232
2.92067
3.02177
3.20482
3.50755
4.00419
4.82046
6.15202
8.15869
10.2897
11.1692
-20.1901
-26.7392
-23.1331
-8.65616
-0.886958
1.23638
1.42617
1.25356
0.823616
0.34408
0.167612
0.277785
0.416033
0.439657
0.358905
0.267475
0.204998
0.170503
0.0804244
2.88006
2.91832
3.0193
3.20226
3.50498
4.00023
4.8137
6.14126
8.13729
10.2363
12.3416
-22.7341
-28.6437
-25.1957
-8.61545
-0.654526
1.28283
1.41882
1.30211
0.869934
0.356727
0.162032
0.278741
0.423165
0.448615
0.368952
0.276878
0.21582
0.190583
0.0813753
2.86872
2.90456
2.99897
3.16919
3.44716
3.89234
4.59557
5.66622
7.06384
7.92187
8.19534
-16.3632
-24.6817
-22.2541
-7.30377
-1.1641
0.371472
0.643912
0.736166
0.497183
0.126872
-0.00783658
0.115339
0.266954
0.303686
0.243045
0.165772
0.112781
0.098596
0.00330815
2.84936
2.88065
2.96264
3.10821
3.33961
3.695
4.21946
4.91635
5.59194
5.27152
1.29631
-10.2172
-16.6243
-14.1742
-7.20746
-2.45596
-0.74185
-0.148941
0.180927
0.200719
0.0384474
-0.0142756
0.103738
0.249507
0.302392
0.268813
0.211433
0.1697
0.139865
0.0678415
2.82388
2.8492
2.91497
3.0289
3.20259
3.45226
3.78251
4.12945
4.25144
3.41355
0.257155
-7.00437
-12.0586
-11.0366
-6.6654
-2.78587
-1.01917
-0.402239
-0.0706675
0.0526228
-0.000881481
-0.0354013
0.0398608
0.152157
0.204153
0.187052
0.140934
0.104464
0.0645588
0.0378323
2.79482
2.81346
2.86123
2.94084
3.0541
3.19946
3.35422
3.42955
3.20064
2.16777
-0.368756
-5.12963
-8.86403
-8.74633
-5.98562
-3.105
-1.58604
-0.974136
-0.583844
-0.329134
-0.245181
-0.210304
-0.121486
-0.0012563
0.0778777
0.0967139
0.0783063
0.0621762
0.0309558
0.0406547
2.765
2.77697
2.80693
2.8533
2.91024
2.96388
2.97706
2.85795
2.42307
1.34079
-0.728114
-3.97748
-6.69001
-6.98864
-5.28989
-3.21922
-1.8925
-1.21664
-0.767597
-0.453634
-0.302852
-0.233817
-0.149482
-0.0426726
0.0370598
0.0677769
0.0592807
0.0514028
0.0218881
0.0448454
2.73721
2.74316
2.75713
2.77428
2.7834
2.76295
2.66927
2.41818
1.86952
0.812711
-0.907254
-3.25843
-5.26614
-5.72734
-4.70672
-3.21311
-2.08389
-1.41684
-0.972153
-0.65077
-0.460411
-0.353363
-0.255314
-0.146287
-0.0576715
-0.00768901
0.00208306
0.0117053
-0.00730898
0.0338811
2.71398
2.71503
2.71606
2.70996
2.68213
2.60671
2.43838
2.10303
1.4952
0.485698
-0.985681
-2.80252
-4.35095
-4.85742
-4.24967
-3.1517
-2.19482
-1.55272
-1.10551
-0.768994
-0.541374
-0.398287
-0.285643
-0.176216
-0.0855463
-0.0260795
-0.0059959
0.0130093
-0.00326954
0.041352
2.69736
2.695
2.68699
2.66485
2.61209
2.50072
2.28586
1.90147
1.26542
0.2959
-1.01667
-2.53
-3.81036
-4.32047
-3.94547
-3.09181
-2.25426
-1.63452
-1.18694
-0.845722
-0.602126
-0.441707
-0.322883
-0.215329
-0.124674
-0.0590923
-0.0307825
-0.00364844
-0.0161634
0.0353784
2.68865
2.68458
2.6719
2.64152
2.57615
2.44695
2.2097
1.80287
1.15612
0.209245
-1.02621
-2.40196
-3.55935
-4.06475
-3.79368
-3.05572
-2.27871
-1.67286
-1.22648
-0.88411
-0.633104
-0.462823
-0.338533
-0.22977
-0.137984
-0.0687208
-0.0362353
-0.00446883
-0.0163822
0.0402598
2.6793
2.67366
2.65666
2.6197
2.54655
2.4099
2.16917
1.77033
1.15471
0.276892
-0.843197
-2.06727
-3.09264
-3.57196
-3.41248
-2.85732
-2.23076
-1.69987
-1.28216
-0.956244
-0.713187
-0.539174
-0.405498
-0.29007
-0.189346
-0.112336
-0.0581233
-0.0296936
-0.00647741
-0.0110313
2.68675
2.6826
2.66958
2.63958
2.5769
2.4548
2.23187
1.84998
1.24072
0.34195
-0.84104
-2.17041
-3.28695
-3.76916
-3.53439
-2.89599
-2.22141
-1.67308
-1.25084
-0.926098
-0.688723
-0.520888
-0.390129
-0.275389
-0.17673
-0.10453
-0.0559939
-0.0309414
-0.00770427
-0.0103573
2.70084
2.6996
2.69427
2.67776
2.63575
2.54283
2.35658
2.01142
1.41938
0.481977
-0.829843
-2.38686
-3.69829
-4.17727
-3.77736
-2.96609
-2.19598
-1.6153
-1.18615
-0.865615
-0.640469
-0.484558
-0.358271
-0.243037
-0.146272
-0.0817206
-0.0436859
-0.027128
-0.00714422
-0.0100803
2.72034
2.72327
2.72892
2.73191
2.72037
2.67171
2.54337
2.26012
1.70487
0.717059
-0.797866
-2.74661
-4.38211
-4.82597
-4.13823
-3.05382
-2.1438
-1.51943
-1.08285
-0.772775
-0.570934
-0.436544
-0.319089
-0.203857
-0.108571
-0.0518793
-0.0254404
-0.0197464
-0.00592793
-0.0104131
2.74341
2.75144
2.7706
2.79799
2.82556
2.83588
2.78936
2.60066
2.11558
1.07915
-0.717029
-3.29195
-5.41771
-5.74896
-4.59778
-3.12239
-2.03808
-1.37293
-0.933628
-0.638962
-0.467981
-0.361554
-0.257089
-0.145947
-0.056955
-0.012168
0.000432786
-0.00695336
-0.00294629
-0.0128807
2.76779
2.78143
2.81555
2.87047
2.94362
3.0258
3.08521
3.03201
2.67086
1.61653
-0.542746
-4.0959
-6.90559
-6.98098
-5.15162
-3.14761
-1.84892
-1.16246
-0.750182
-0.492843
-0.363543
-0.284771
-0.188655
-0.0801638
-0.000684898
0.0288513
0.0274322
0.0093267
0.00459449
-0.0115645
2.79098
2.8102
2.85935
2.94246
3.06393
3.22634
3.41361
3.54219
3.38298
2.38266
-0.243375
-5.32485
-8.96361
-8.46062
-5.70424
-3.09549
-1.55936
-0.848183
-0.482865
-0.294373
-0.229869
-0.183117
-0.0906499
0.0165808
0.0806801
0.0863914
0.0646582
0.0331425
0.0181257
-0.00915235
2.81049
2.8346
2.89705
3.00587
3.17294
3.41527
3.74037
4.09095
4.23486
3.42234
0.242745
-7.19551
-11.8151
-10.2339
-6.13639
-2.84585
-1.20023
-0.543483
-0.247724
-0.148425
-0.165809
-0.149104
-0.0435974
0.0798356
0.141266
0.131308
0.0963458
0.0599983
0.0422376
0.00712415
2.8241
2.85181
2.9241
3.05227
3.25549
3.56427
4.01232
4.58837
5.10312
4.69925
0.991631
-9.58728
-15.1303
-12.2668
-6.58818
-2.19096
-0.485996
-0.0364134
0.117652
0.0846359
-0.0563786
-0.0998749
0.00223242
0.132071
0.186529
0.158231
0.107292
0.0648633
0.0455764