/*--------------------------------*- C++ -*----------------------------------*\
| =========                 |                                                 |
| \\      /  F ield         | OpenFOAM: The Open Source CFD Toolbox           |
|  \\    /   O peration     | Version:  2512                                  |
|   \\  /    A nd           | Website:  www.openfoam.com                      |
|    \\/     M anipulation  |                                                 |
\*---------------------------------------------------------------------------*/
FoamFile
{
    version     2.0;
    format      ascii;
    arch        "LSB;label=32;scalar=64";
    class       surfaceScalarField;
    location    "140";
    object      phi;
}
// * * * * * * * * * * * * * * * * * * * * * * * * * * * * * * * * * * * * * //

dimensions      [0 3 -1 0 0 0 0];

oriented        oriented;

internalField   nonuniform List<scalar> 
260615
(
1.59993
-5.21161e-05
0.000123239
1.59983
-0.000166033
0.000251945
1.59975
-0.000325998
0.00040667
1.59972
-0.000577791
0.000602775
1.59984
-0.000983795
0.000852803
1.60027
-0.00157724
0.00114815
1.6008
-0.00201071
0.00147039
1.60366
-0.00474348
0.00187694
1.60695
-0.00593804
0.00264005
1.61174
-0.00795379
0.00316561
1.61772
-0.0094749
0.00350107
1.61565
-0.00132009
0.0033939
1.62663
-0.0138787
0.00289754
1.6266
-0.00188918
0.00192057
1.62427
0.00140259
0.00094952
1.62122
0.00277744
0.0002964
1.61761
0.00338602
0.000236232
1.61605
0.00148179
9.21968e-05
1.61455
0.00141857
8.58751e-05
1.61347
0.000902909
0.000167437
1.61277
0.000430391
0.000267487
1.61233
9.9309e-05
0.000322826
1.61208
-0.000107843
0.00035519
1.61193
-0.000244807
0.000377341
1.61187
-0.000342212
0.000392932
1.61187
-0.000403883
0.000403803
1.6119
-0.000433055
0.000391252
1.61196
-0.000441343
0.000380773
1.61205
-0.000437788
0.000352137
-0.000393537
0.000315059
1.59992
-9.93274e-05
0.00012674
1.5998
-0.000317182
0.000258051
1.59968
-0.000624717
0.000416789
1.59959
-0.00111233
0.000620161
1.59962
-0.0019064
0.000883726
1.59997
-0.00313424
0.00120662
1.60098
-0.0046046
0.00157526
1.60304
-0.00882512
0.00201491
1.60632
-0.0121384
0.00291375
1.61137
-0.0165788
0.00357519
1.61806
-0.0201979
0.00404788
1.61671
-0.00399912
0.00402633
1.62793
-0.0284727
0.00338076
1.62758
-0.00378272
0.0022535
1.62473
0.00316824
0.00109943
1.62129
0.00587447
0.000369943
1.61817
0.0061783
0.000348162
1.6159
0.00356565
0.00019436
1.61434
0.00276663
0.000221166
1.61329
0.00162234
0.000334166
1.61262
0.000633433
0.000461455
1.61222
-5.5791e-05
0.000544931
1.61199
-0.000486212
0.000589703
1.61188
-0.000764242
0.000617854
1.61185
-0.000947618
0.0006334
1.61186
-0.00104707
0.000626319
1.61189
-0.00107994
0.000604523
1.61195
-0.00107724
0.000579043
1.61203
-0.00106549
0.000541559
-0.00101654
0.000483831
1.5999
-0.00013783
0.000131981
1.59975
-0.000440678
0.00026875
1.59956
-0.000871884
0.000433084
1.59935
-0.00156373
0.000652002
1.5992
-0.00270835
0.000947346
1.59927
-0.00454079
0.00133459
1.59984
-0.0070159
0.00183525
1.60171
-0.0129998
0.00230015
1.60491
-0.0188544
0.00351093
1.61048
-0.02662
0.00447965
1.61875
-0.0337306
0.00526922
1.61896
-0.00965806
0.00544688
1.63072
-0.044689
0.00446231
1.62963
-0.00566824
0.00298712
1.62565
0.00577671
0.00140811
1.62137
0.00966443
0.000516455
1.61776
0.00919165
0.000615762
1.61552
0.00541731
0.000409432
1.61399
0.00378189
0.000531505
1.61301
0.00193971
0.000671293
1.61241
0.000425306
0.000803192
1.61206
-0.00060411
0.000881443
1.61189
-0.00124862
0.000923556
1.61182
-0.00166853
0.000952838
1.61183
-0.00192988
0.000967591
1.61187
-0.00204445
0.000948228
1.61193
-0.002051
0.000907345
1.61199
-0.00200775
0.000860072
1.61209
-0.00195947
0.000797958
-0.00185653
0.000708086
1.59989
-0.000163588
0.000134945
1.59968
-0.000523997
0.000282303
1.59939
-0.00104298
0.000458681
1.59901
-0.00188896
0.000696845
1.59858
-0.00331901
0.00103754
1.59821
-0.00569024
0.00151028
1.59818
-0.00916313
0.00216994
1.59946
-0.0171203
0.0028352
1.60236
-0.0262518
0.00449339
1.60867
-0.0389548
0.00603688
1.61987
-0.0523378
0.00740689
1.62312
-0.0205588
0.00764753
1.63535
-0.0637161
0.00679413
1.63299
-0.00761904
0.00434486
1.62698
0.00983297
0.00199456
1.62131
0.0145249
0.000825035
1.61713
0.0123382
0.0010479
1.61479
0.00682123
0.000955408
1.61333
0.00400211
0.00125277
1.6125
0.00124749
0.00151561
1.61206
-0.00085085
0.00171102
1.61184
-0.00218116
0.0017835
1.61175
-0.00298508
0.00180488
1.61175
-0.00350134
0.00181252
1.6118
-0.0037989
0.00180353
1.61186
-0.00388746
0.00176967
1.61193
-0.00383447
0.00170765
1.61199
-0.00371414
0.00163392
1.61211
-0.00362859
0.0015535
-0.00350831
0.00143527
1.59986
-0.000173537
0.000141416
1.5996
-0.000557095
0.00029185
1.59918
-0.00111702
0.000489021
1.59858
-0.00204728
0.000755169
1.59776
-0.00366153
0.00114773
1.59677
-0.00644571
0.00173998
1.59579
-0.0107996
0.00260964
1.59598
-0.0209466
0.00362565
1.598
-0.0342512
0.00597691
1.60518
-0.054614
0.00848672
1.62175
-0.0797668
0.0108467
1.65019
-0.0609228
0.0119195
1.64249
-0.0667922
0.0108069
1.63804
-0.00977047
0.00661977
1.62863
0.0163688
0.00292298
1.62108
0.020678
0.00142782
1.61625
0.0153567
0.0018315
1.61378
0.00749466
0.00181375
1.61238
0.00323087
0.00217549
1.61177
-0.000636033
0.00249457
1.61154
-0.00337714
0.00273962
1.61151
-0.0049733
0.00280068
1.61159
-0.00586502
0.00277884
1.61172
-0.0063774
0.00271976
1.61186
-0.00659331
0.00263345
1.61196
-0.00653751
0.00251995
1.61205
-0.0063233
0.0023836
1.61213
-0.00602727
0.00222487
1.61224
-0.00581758
0.00207736
-0.00550713
0.00187999
1.59984
-0.000165986
0.000148135
1.59951
-0.000534011
0.000305586
1.59894
-0.00107912
0.000518723
1.59807
-0.00200436
0.00081936
1.59679
-0.00365782
0.00127336
1.59497
-0.00663871
0.00200203
1.59281
-0.0117948
0.00315193
1.59085
-0.0237133
0.0047108
1.59068
-0.0421612
0.00807396
1.59851
-0.0745495
0.0120957
1.62475
-0.122325
0.0163014
1.64729
-0.103425
0.0199553
1.65317
-0.0914338
0.0187909
1.64488
-0.0128334
0.0114703
1.62942
0.0266708
0.00521833
1.61951
0.0273025
0.00330326
1.61437
0.0160556
0.0044377
1.61172
0.00504621
0.00509165
1.61061
-0.00150796
0.00584759
1.61036
-0.00676481
0.00634846
1.61047
-0.0101628
0.00664955
1.61072
-0.0119475
0.00668712
1.61104
-0.0128149
0.0065946
1.61138
-0.0131684
0.00642008
1.61166
-0.01312
0.00620924
1.61188
-0.0127304
0.00594835
1.61205
-0.0121971
0.00567252
1.61216
-0.0115293
0.00537674
1.61237
-0.0111466
0.00511212
-0.0105769
0.00475277
1.59982
-0.000140883
0.0001517
1.59941
-0.000453891
0.000321851
1.5987
-0.00092489
0.000548332
1.59755
-0.00174094
0.0008803
1.59573
-0.00324635
0.00140583
1.59293
-0.00612279
0.00227615
1.58906
-0.0117092
0.00376445
1.58145
-0.0223615
0.00625438
1.57866
-0.0500235
0.010634
1.58604
-0.0990579
0.0171042
1.62768
-0.0373674
0.0246394
-0.0471441
-0.0463177
-0.0577915
1.66469
-0.0425667
0.0360253
-0.039003
-0.0476497
-0.0472634
1.67047
-0.0296934
0.0371393
-0.0275463
-0.0372561
-0.0398499
1.65502
-0.00664791
0.023269
0.00606164
-0.0151933
-0.00475863
1.62965
0.0379908
0.0140913
1.61536
0.0314072
0.010208
1.61169
0.00992964
0.00980693
1.60893
-0.00258347
0.0104051
1.60874
-0.0125932
0.0112699
1.60982
-0.0199324
0.0120648
1.61119
-0.0242123
0.0126439
1.61249
-0.0261729
0.0128803
1.61358
-0.0268559
0.0129085
1.61439
-0.0267893
0.0127763
1.61489
-0.0261675
0.0125106
1.61513
-0.0251366
0.0121343
1.61518
-0.0239727
0.0116954
1.61507
-0.0226895
0.0112528
1.61494
-0.0218502
0.0108245
-0.0204956
0.0102663
1.5998
-0.000100174
0.000154779
1.59933
-0.000322515
0.00033629
1.59849
-0.00066365
0.000574177
1.59707
-0.00126655
0.000935715
1.5947
-0.00241406
0.00152713
1.59072
-0.00468167
0.00253324
1.58415
-0.0095333
0.00437977
1.57382
-0.0199765
0.00792555
1.55967
-0.0492851
0.0133995
0.392022
-0.116911
0.023283
0.388426
0.388736
0.38502
0.396182
-0.0432771
0.00173428
-0.406126
0.419804
-0.0614787
0.00518325
-0.424366
0.429716
-0.0457564
0.0106653
-0.427826
0.42615
-0.0109516
0.00598405
1.63352
0.041831
0.0454389
-0.419556
-0.421789
-0.418249
-0.423032
1.61682
0.00276595
0.0453404
1.60865
-0.0274269
0.0455222
1.60389
-0.0439921
0.0461972
1.59957
-0.0550571
0.0467846
1.59438
-0.0620822
0.0473239
1.58802
-0.0653681
0.0474727
1.58096
-0.0660963
0.0469249
1.57363
-0.0655192
0.0459483
1.56632
-0.0642088
0.044694
1.55927
-0.0623547
0.0431983
1.5527
-0.0601626
0.0415544
1.54651
-0.0577239
0.0399048
1.54104
-0.0554209
0.0381811
1.53485
-0.0526132
0.0369433
-0.0506491
0.0349231
1.59979
-4.77669e-05
0.00015702
1.59926
-0.000152533
0.000347736
1.59832
-0.000319622
0.000593127
1.59669
-0.000626085
0.000979913
1.59388
-0.00123107
0.00162303
1.5889
-0.00245876
0.00274424
1.57969
-0.00524597
0.00491118
1.56231
-0.0118671
0.00925213
1.52804
-0.0310904
0.0160539
0.377802
-0.0983047
0.0248892
0.372028
0.371425
0.363254
0.383663
-0.0551185
0.00050931
0.0487173
0.419288
-0.40549
0.0807642
-0.0268379
-0.024321
-0.0300205
-0.0224833
0.0041156
0.000789256
0.00414766
-0.000103017
-0.422832
0.442368
0.0779328
-0.0417108
-0.0319011
-0.0400296
-0.02988
0.0140116
0.00884557
0.0103071
0.0127288
-0.450153
0.449018
0.0242972
-0.0133885
-0.0220568
-0.0160384
-0.00950813
0.00761726
0.0122289
0.0117812
0.00645214
1.42128
0.0327168
0.071272
-0.419185
-0.321688
-0.419024
-0.323213
1.38052
-0.0289343
0.0724971
1.34182
-0.0640983
0.0753828
1.30723
-0.0805635
0.0712014
1.27789
-0.0892248
0.0635366
1.25342
-0.0928416
0.0552049
1.23363
-0.0927319
0.047108
1.21843
-0.0905061
0.0395485
1.2073
-0.0873755
0.0329347
1.19957
-0.0838115
0.0272855
1.19467
-0.0799486
0.0224507
1.19208
-0.0759894
0.0183741
1.19119
-0.0718317
0.0149642
1.19159
-0.0681014
0.012255
1.19231
-0.0629312
0.00959694
-0.0576081
0.0078441
1.59976
1.08332e-05
0.000173128
1.5992
3.77332e-05
0.000367043
1.59819
6.85845e-05
0.000620887
1.59643
0.000105474
0.00101884
1.59335
0.000148562
0.00168847
1.5878
0.000199521
0.00288015
1.57703
0.000265167
0.00524587
1.55462
0.000343199
0.0101848
1.50547
0.000375627
0.0176706
0.352423
7.83455e-05
0.0194224
0.348373
0.343195
0.34364
-0.0312482
-0.0135272
0.0497703
0.0840871
0.0895865
0.0853761
0.0883579
0.0282725
-0.0995218
0.103572
-0.0249918
-0.00248249
-0.00198581
-0.00167509
-0.00121243
-0.0975813
0.0609136
0.0918304
-0.013851
-0.0176092
-0.0183659
-0.0174143
0.00269697
0.00264486
0.00440934
0.0022087
-0.0285866
0.0245973
-0.0185766
0.0113674
0.0113362
0.109762
0.00499503
-0.318318
0.0398115
0.0518266
0.0331891
0.112504
0.371127
0.018274
-0.308401
0.542915
0.00734676
-0.243184
0.662802
0.00185209
-0.202227
0.750025
-0.00261297
-0.17378
0.816101
-0.00556252
-0.153359
0.868823
-0.00701538
-0.138489
0.912909
-0.00749747
-0.127158
0.950781
-0.00734273
-0.11796
0.983873
-0.00675864
-0.11019
1.01323
-0.00584576
-0.1035
1.03946
-0.00470321
-0.0975604
1.06323
-0.00331972
-0.092317
1.08402
-0.00192391
-0.0869902
1.10591
-0.000545712
-0.0842703
0.00225706
-0.0766633
1.59975
6.89503e-05
0.000188051
1.59917
0.000226663
0.000381687
1.59815
0.000454235
0.000632202
1.59638
0.00083153
0.00103372
1.5933
0.00152145
0.00170268
1.58782
0.00286454
0.00280576
1.57705
0.00578388
0.00523244
1.55464
0.0125628
0.0101804
1.50535
0.0319626
0.0176859
0.348019
0.0993653
0.019784
0.352121
0.343261
0.342863
0.000414466
0.0306408
-0.0191698
0.0816962
0.0863495
0.0815037
0.0865747
0.00101463
-0.0964392
0.0896123
0.00865778
-0.000475579
-0.000936534
-0.000427666
-0.000997398
0.0231905
0.0234563
-0.0169162
-0.017801
-0.012289
0.0317649
-0.0201403
-0.297772
0.0626199
0.0348438
0.12148
0.0728081
0.316367
0.0348771
-0.30103
0.506123
0.0579143
-0.240284
0.638156
0.0712128
-0.20134
0.731823
0.0776083
-0.173847
0.800633
0.0790029
-0.153381
0.853778
0.0780546
-0.138261
0.896867
0.075976
-0.126622
0.932995
0.0735621
-0.117085
0.964042
0.0711676
-0.109014
0.99136
0.0689453
-0.102146
1.01576
0.067048
-0.0961876
1.03809
0.0654089
-0.0910855
1.05781
0.0644321
-0.0860911
1.07927
0.0614533
-0.0834585
0.0626597
-0.0772561
1.59976
0.000120406
0.00018684
1.59924
0.000394138
0.000344022
1.5983
0.000793701
0.000591838
1.59666
0.00146501
0.0010024
1.59384
0.00269681
0.00164153
1.58895
0.00507109
0.00267186
1.57975
0.0100612
0.00490686
1.56235
0.0206825
0.00927054
1.52782
0.0503255
0.0161537
0.371665
0.118611
0.025608
0.377472
0.362809
0.371011
-0.0498302
0.055645
-0.00269828
0.0928632
0.0899357
0.0914874
0.0942681
-0.0282305
-0.0996972
0.105581
-0.00511184
0.0274767
-0.0105968
-0.103268
0.110775
0.00720741
0.0396216
-0.0114072
-0.015069
-0.017246
-0.0219986
-0.0969333
0.0123187
0.0863563
0.0201938
1.4703
-0.0423191
0.0876081
-0.346582
-0.421908
-0.344344
-0.422712
1.45001
-0.0100182
0.0652378
1.43373
0.0173382
0.0568616
1.42004
0.034353
0.0505586
1.4066
0.0463923
0.0446717
1.39214
0.0543152
0.0391462
1.37694
0.0589544
0.034264
1.36153
0.0617164
0.0296341
1.34575
0.0638477
0.0254553
1.33031
0.0652806
0.021296
1.31515
0.0664765
0.0176002
1.30057
0.0673917
0.0142063
1.28677
0.068075
0.0111117
1.27418
0.0687678
0.00824796
1.26085
0.0687665
0.00602459
0.070599
0.00169866
1.59978
0.000159776
0.000172528
1.59933
0.000520629
0.000317542
1.59852
0.00104617
0.000555225
1.59711
0.00192659
0.00094618
1.59475
0.00351065
0.00153112
1.5908
0.00648523
0.00253409
1.58426
0.0122012
0.00438712
1.57394
0.0230373
0.00795711
1.55973
0.0510099
0.0135103
0.388413
0.100499
0.0237647
0.392009
0.384959
0.388684
-0.0494398
0.391428
0.0440557
0.00236436
-0.085391
-0.405954
0.42061
0.0642295
0.00648507
-0.0738926
-0.424475
0.432474
0.0444505
0.021298
-0.0269577
-0.434785
0.431703
0.0113434
0.0186025
1.63586
-0.0431774
0.0533011
-0.42301
-0.421134
-0.42429
-0.419765
1.61699
-0.0412204
0.0500921
1.60758
-0.022809
0.0495419
1.60456
-0.0121158
0.0494882
1.60431
-0.002328
0.0489732
1.60429
0.00579692
0.048526
1.60343
0.0117444
0.0480403
1.60146
0.0162746
0.0473756
1.5982
0.0202192
0.0468532
1.59361
0.0238454
0.0460035
1.5874
0.027199
0.0454645
1.58003
0.0301246
0.0446164
1.57145
0.0328747
0.0437647
1.5622
0.0352929
0.0427142
1.55077
0.0382495
0.0419557
0.0401726
0.0394474
1.59982
0.000182884
0.000154447
1.59942
0.000594127
0.000320965
1.59873
0.00118863
0.000537644
1.5976
0.00217181
0.000884068
1.5958
0.00389546
0.00140339
1.59304
0.00696499
0.00227345
1.58923
0.0122361
0.00376329
1.58168
0.0243183
0.00626685
1.579
0.0429875
0.0106877
1.58646
0.0757215
0.0172992
1.62919
0.124354
0.0252297
-0.0380825
-0.0481137
-0.0471954
-0.0589671
1.66934
0.106988
0.0369896
-0.0440811
-0.0407261
-0.0495539
-0.0498652
1.67363
0.0902038
0.0369594
-0.0287505
-0.0266449
-0.0370195
-0.0391874
1.65792
0.00791505
0.0250873
-0.00611541
0.00620679
-0.0141476
-0.00325405
1.63193
-0.032686
0.0155261
1.61614
-0.03444
0.00900884
1.61121
-0.0242412
0.00634415
1.60735
-0.0137795
0.0055126
1.60613
-0.00696208
0.0058494
1.60613
-0.00103093
0.00681868
1.60657
0.00321263
0.00806314
1.60733
0.00612258
0.00935854
1.60837
0.00845238
0.0107041
1.60961
0.0105494
0.01203
1.6108
0.0124231
0.0135627
1.61202
0.0140571
0.0148356
1.61306
0.0156126
0.0162004
1.61398
0.016994
0.0173802
1.61509
0.0186737
0.0184702
0.0202633
0.019757
1.59984
0.000188031
0.000147753
1.59952
0.000609087
0.000304436
1.59897
0.00121195
0.000513706
1.59813
0.00219265
0.000819072
1.59688
0.00386772
0.00126836
1.59512
0.00672736
0.00199537
1.59302
0.0111753
0.00314458
1.59118
0.0214476
0.00470686
1.59117
0.0348996
0.00808559
1.59926
0.0554802
0.012144
1.62622
0.0808978
0.0164665
1.65053
0.0624345
0.0202079
1.65615
0.0661773
0.0183725
1.647
0.00588459
0.0111679
1.63102
-0.0216672
0.00496231
1.62055
-0.0262698
0.00229891
1.61478
-0.0213983
0.00289886
1.61157
-0.0140114
0.0034319
1.61009
-0.00973547
0.00425202
1.60952
-0.00535357
0.00488243
1.60922
-0.00185966
0.00535256
1.60905
0.000664141
0.00561363
1.60897
0.0026621
0.00584125
1.60901
0.00443424
0.00605645
1.60908
0.00599653
0.00634178
1.6092
0.00730738
0.00661204
1.60938
0.00845772
0.00696425
1.60968
0.00947792
0.00721538
1.61032
0.0104933
0.00754692
0.0116305
0.00795612
1.59987
0.000175289
0.000140998
1.59961
0.000566611
0.000290505
1.59921
0.00112108
0.000486546
1.59864
0.00200867
0.00075119
1.59787
0.0034884
0.00114173
1.59694
0.00591987
0.00173137
1.59605
0.00946496
0.00259755
1.59637
0.0175117
0.00360966
1.59856
0.0267377
0.00595913
1.606
0.0395581
0.00847171
1.62304
0.0529855
0.0108446
1.65239
0.0211931
0.0118696
1.6449
0.0632476
0.0103992
1.63986
0.00494988
0.00596325
1.62989
-0.0138113
0.00211413
1.62194
-0.0186832
0.00036122
1.61661
-0.0165863
0.000494722
1.61356
-0.0112299
0.000262353
1.61169
-0.00832997
0.000467683
1.61071
-0.00515208
0.000772356
1.61016
-0.00250439
0.00118596
1.60984
-0.000597131
0.00156736
1.60967
0.000838534
0.00197396
1.60963
0.00207824
0.00238657
1.60964
0.00317378
0.00279781
1.60966
0.00409053
0.00318081
1.60972
0.00487335
0.00352633
1.60982
0.00556727
0.0038019
1.61005
0.00618476
0.00409159
0.00691585
0.00433123
1.59989
0.000146454
0.000134494
1.5997
0.000472935
0.000280809
1.59943
0.000931362
0.000455911
1.59908
0.00165507
0.000692354
1.5987
0.00283735
0.00103058
1.5984
0.00471451
0.00149972
1.59846
0.00724115
0.00215404
1.59987
0.0132851
0.00281122
1.60294
0.019196
0.00445849
1.60949
0.0270131
0.00598773
1.62103
0.0341027
0.00733336
1.62479
0.00990791
0.00751026
1.63728
0.0443001
0.00644815
1.63456
0.00392303
0.00374413
1.62802
-0.00849857
0.00122175
1.62198
-0.01257
-7.38043e-05
1.61742
-0.0120657
2.60723e-05
1.61464
-0.00831428
-0.000146697
1.61281
-0.00663407
0.000135872
1.61173
-0.00455091
0.000482144
1.61108
-0.00269608
0.000840975
1.61066
-0.00129677
0.00111062
1.61038
-0.000231801
0.00133236
1.61023
0.000685612
0.00153675
1.61015
0.00150615
0.00173468
1.61013
0.002198
0.00191608
1.61012
0.00277698
0.00209631
1.61019
0.00327481
0.00222358
1.6103
0.00370743
0.00237775
0.00424288
0.00251534
1.59991
0.00010472
0.000131515
1.59977
0.000338449
0.000267154
1.5996
0.000664391
0.000430099
1.59943
0.00117354
0.000647107
1.59933
0.00199287
0.000939635
1.59946
0.00325012
0.00132268
1.60013
0.00475331
0.00181687
1.60213
0.00900995
0.00227166
1.6055
0.0123534
0.00346672
1.61128
0.0168133
0.00441194
1.6198
0.0203992
0.00516579
1.62034
0.00407899
0.00528116
1.63229
0.028187
0.00416259
1.63099
0.00273042
0.002497
1.62658
-0.00484306
0.000758042
1.62194
-0.00770332
-0.000228478
1.61801
-0.00796321
-0.000185597
1.61543
-0.00533133
-0.000407514
1.61358
-0.00450954
-0.000269847
1.61233
-0.00323244
-7.45028e-05
1.61152
-0.00202885
0.000147591
1.61097
-0.00109451
0.000339607
1.61061
-0.000391651
0.00051803
1.61039
0.000193899
0.000707774
1.61027
0.000708429
0.000912243
1.61023
0.00113739
0.00109862
1.61023
0.00148884
0.00128552
1.61029
0.00178718
0.00142909
1.6104
0.00203123
0.00157642
0.00231542
0.00169429
1.59992
5.40021e-05
0.000126215
1.59982
0.000175827
0.000256347
1.59972
0.000345061
0.000413619
1.59967
0.000607718
0.000614941
1.59975
0.00102637
0.000875444
1.60017
0.00163435
0.00119371
1.60128
0.0020836
0.00155518
1.60347
0.00483326
0.00198345
1.60691
0.00604039
0.00286496
1.61215
0.00806187
0.00349909
1.61905
0.00956155
0.00393249
1.61793
0.00133728
0.00385064
1.62929
0.0137261
0.00310409
1.62879
0.00139432
0.00183418
1.6256
-0.00219552
0.000546609
1.62182
-0.00365727
-0.000260404
1.6184
-0.00424168
-0.000313074
1.61585
-0.00231849
-0.000463458
1.614
-0.00224107
-0.000419251
1.6127
-0.00165914
-0.000268389
1.61182
-0.00107331
-7.65147e-05
1.61124
-0.000610728
9.72747e-05
1.61085
-0.000262722
0.000254658
1.6106
2.54914e-05
0.00041096
1.61046
0.000280812
0.000567453
1.6104
0.000498186
0.00069921
1.61039
0.000680053
0.000820873
1.61044
0.00083455
0.000911922
1.6105
0.000971538
0.00100782
0.00113003
0.00106522
1.59993
0.000122768
1.59985
0.000250259
1.59979
0.000403495
1.5998
0.000597513
1.59998
0.00084441
1.60047
0.00113501
1.6011
0.00144994
1.60409
0.00184481
1.60753
0.00259004
1.6125
0.00308788
1.61868
0.00338367
1.61679
0.00321815
1.62789
0.00263392
1.62775
0.00153697
1.6251
0.000449526
1.62172
-0.000271604
1.61782
-0.000352727
1.61599
-0.000483521
1.61421
-0.000462497
1.61289
-0.00033315
1.61197
-0.00015751
1.61136
-1.15222e-06
1.61094
0.000149586
1.61067
0.000296733
1.61051
0.000442721
1.61043
0.000577307
1.61041
0.000697294
1.61046
0.000794534
1.61054
0.000900321
0.000967624
1.60004
-5.10622e-05
0.000124378
1.60007
-0.000162879
0.000381366
1.60011
-0.000319255
0.000682459
1.60021
-0.000564748
0.00106289
1.60046
-0.000959512
0.00155197
1.60093
-0.00134666
0.00202644
1.60132
-0.000918755
0.00199175
1.60125
-0.00296323
0.0049047
1.60453
-0.00600285
0.00535425
1.60954
-0.00793553
0.00609402
1.61236
-0.00592608
0.00661442
1.6121
-0.00249071
0.00614239
1.62115
-0.0119583
0.00580983
1.62427
-0.00490569
0.00371144
1.62179
0.00162381
0.00182662
1.61885
0.00289746
0.000360702
1.61831
0.00155829
-0.00077441
1.61698
0.000322973
0.00111505
1.61558
0.00113237
0.000361655
1.61455
0.000838051
0.000356049
1.61388
0.000396057
0.000528306
1.61343
8.80319e-05
0.000674664
1.61312
-0.000105365
0.000765581
1.6129
-0.000234034
0.000812646
1.61273
-0.000325102
0.000880695
1.61257
-0.00037917
0.000941288
1.61254
-0.000402853
0.000815789
1.61256
-0.000408348
0.000768451
1.61261
-0.00040362
0.000700501
-0.000371104
0.000651921
1.60004
-9.83101e-05
0.000126522
1.60005
-0.000312248
0.000388688
1.60006
-0.0006132
0.000697987
1.60011
-0.00108902
0.00109304
1.60028
-0.00186156
0.00160888
1.60098
-0.00299782
0.00214926
1.60321
-0.00384241
0.00226275
1.60321
-0.00623787
0.0052873
1.60606
-0.0117049
0.00575841
1.6106
-0.0157596
0.00686659
1.6127
-0.0115842
0.00760356
1.61362
-0.00624064
0.00686706
1.6224
-0.0245069
0.00715122
1.6266
-0.0111706
0.00432127
1.62437
0.00288626
0.00209266
1.62148
0.00556873
0.000607787
1.62058
0.00353149
-0.000698631
1.61717
0.00271925
0.00122072
1.61539
0.00256269
0.000581331
1.61437
0.00154796
0.000640941
1.61373
0.000637155
0.000857319
1.6133
1.17187e-05
0.001037
1.613
-0.000378586
0.00114716
1.61279
-0.000635649
0.00121626
1.61259
-0.000804696
0.00130511
1.61248
-0.000897492
0.0012548
1.61245
-0.000927014
0.00114736
1.61247
-0.00092341
0.00107348
1.61252
-0.00090871
0.000993899
-0.000867764
0.000909034
1.60003
-0.000136343
0.000130569
1.60001
-0.000434159
0.000403441
1.59995
-0.000855736
0.000728834
1.59989
-0.00153032
0.00115315
1.59988
-0.00264289
0.00172902
1.60013
-0.00438953
0.00246906
1.60139
-0.00638726
0.00311856
1.60167
-0.00971067
0.00548697
1.60457
-0.0178538
0.00676025
1.60958
-0.024846
0.008559
1.6144
-0.0210427
0.00991579
1.61613
-0.0116572
0.00913798
1.62607
-0.0394159
0.00943955
1.62839
-0.0159903
0.00550088
1.62511
0.00505994
0.00254005
1.62133
0.00901884
0.000867396
1.61951
0.00600469
-1.29362e-05
1.61668
0.00488337
0.00109218
1.61512
0.00375285
0.000913938
1.61416
0.00204694
0.00112866
1.61358
0.000641099
0.00137555
1.6132
-0.000296924
0.00155686
1.61294
-0.000879438
0.00166978
1.61274
-0.00125141
0.00175481
1.61256
-0.00148784
0.0018277
1.61251
-0.00159415
0.00168787
1.61251
-0.00160289
0.00157593
1.61254
-0.001567
0.00147447
1.61259
-0.00152231
0.0013544
-0.00144269
0.00121925
1.60001
-0.000161802
0.000142283
1.59995
-0.000516086
0.000417978
1.5998
-0.00102319
0.000772265
1.59957
-0.00184732
0.00123889
1.5993
-0.00323514
0.00189452
1.59912
-0.00552536
0.00281941
1.59948
-0.00858143
0.00399737
1.59947
-0.0131254
0.00625202
1.60213
-0.0245933
0.00856984
1.60785
-0.0359532
0.0114302
1.61518
-0.0346823
0.0137286
1.62134
-0.0225481
0.0123758
1.63012
-0.0555927
0.0142026
1.63155
-0.0207437
0.00769772
1.62639
0.00903924
0.00320616
1.62128
0.0139357
0.00103624
1.61867
0.00908263
0.000592688
1.61609
0.00702723
0.00141009
1.61463
0.00474746
0.00173325
1.61383
0.0022157
0.00215662
1.61339
0.000289081
0.00249372
1.61311
-0.000929609
0.00268127
1.61287
-0.00166709
0.00281041
1.6127
-0.00212941
0.00284359
1.61259
-0.00240474
0.00281295
1.61258
-0.00249584
0.00267448
1.6126
-0.00246333
0.00254152
1.61262
-0.00237454
0.00241406
1.61269
-0.00231005
0.00227043
-0.00224802
0.00210455
1.59997
-0.000171568
0.000170282
1.59986
-0.000547248
0.000426372
1.5996
-0.00109651
0.000820119
1.59916
-0.00200044
0.00134497
1.59852
-0.00356441
0.00210398
1.59773
-0.00624574
0.00324445
1.59696
-0.0101569
0.00494903
1.59625
-0.0164074
0.007615
1.59809
-0.0317757
0.011318
1.60483
-0.0500786
0.0158718
1.61863
-0.0581907
0.0205544
1.6499
-0.0611215
0.0192189
1.63828
-0.0542159
0.0210869
1.63658
-0.0232392
0.0108722
1.62813
0.0162829
0.00415707
1.62125
0.0211023
0.0011469
1.61771
0.0133158
0.00114243
1.61524
0.00928128
0.00202955
1.61389
0.00553373
0.00274118
1.61329
0.00193459
0.00337588
1.61306
-0.000603345
0.00383767
1.61293
-0.00209293
0.00407189
1.61277
-0.00291425
0.0041685
1.61273
-0.00339468
0.00400172
1.61275
-0.00360658
0.00379046
1.6128
-0.00357732
0.00354216
1.61284
-0.00340973
0.0032772
1.61286
-0.00317848
0.00299438
1.61291
-0.00301491
0.0027292
-0.0028189
0.00243871
1.59993
-0.000164021
0.00019886
1.59976
-0.000524346
0.0004487
1.59937
-0.00105523
0.000861171
1.59868
-0.00196048
0.00146267
1.5976
-0.00355619
0.00234335
1.59603
-0.0064191
0.00373321
1.59414
-0.011106
0.00598224
1.59234
-0.0195127
0.00961365
1.59192
-0.0385593
0.0152651
1.59973
-0.0686774
0.0228763
1.63744
-0.112287
0.0326935
1.65119
-0.0876781
0.0327997
1.66379
-0.0819263
0.0339512
1.64442
-0.00959244
0.017194
1.63015
0.0297533
0.006042
1.6214
0.0309733
0.00218599
1.61671
0.0192045
0.00323913
1.61408
0.0120196
0.00499068
1.61296
0.00620814
0.00629503
1.61265
0.00128718
0.00728739
1.61264
-0.00197425
0.00800942
1.61265
-0.00376866
0.00832444
1.61263
-0.00473269
0.00840173
1.61276
-0.00523649
0.00810752
1.61289
-0.00537889
0.00783147
1.61297
-0.00521282
0.00747821
1.61304
-0.00490889
0.00708742
1.61304
-0.00448813
0.00666891
1.61313
-0.00429952
0.00630773
-0.00411126
0.00583555
1.5999
-0.000139105
0.000215211
1.59964
-0.000445283
0.000504152
1.59913
-0.000903877
0.000899908
1.59818
-0.00169427
0.00155651
1.59659
-0.00316016
0.00259466
1.59408
-0.00590919
0.00426182
1.59076
-0.0111784
0.00714648
1.58604
-0.0206942
0.0121471
1.58088
-0.0433897
0.0206138
1.58446
-0.0889041
0.0337344
1.62325
-0.0395264
0.0525606
-0.0528336
-0.0358656
-0.0507703
1.65513
-0.0380631
0.0577783
-0.0372272
-0.0328013
-0.0331534
1.6609
-0.024835
0.0549953
-0.0322833
-0.0191377
-0.029206
1.65143
-0.00688847
0.0293421
0.000511424
-0.00230546
0.0025618
1.63101
0.0550523
0.00923402
1.62038
0.0469826
0.00481329
1.61487
0.0275237
0.00700049
1.61199
0.0159988
0.00931532
1.61144
0.00718576
0.0108396
1.61175
0.00109167
0.0119233
1.61224
-0.00225759
0.0124015
1.61272
-0.00362848
0.0122272
1.61311
-0.00396403
0.0117194
1.61348
-0.00375365
0.0108973
1.61371
-0.00317182
0.0100463
1.61381
-0.00231917
0.00911564
1.61382
-0.001435
0.00818848
1.61374
-0.00047623
0.0073036
1.61361
2.29496e-05
0.0066346
0.000807229
0.00592789
1.59987
-9.87857e-05
0.000230566
1.59951
-0.000315987
0.000562584
1.59885
-0.00064763
0.000970274
1.5977
-0.00123126
0.00162472
1.59558
-0.00233549
0.0028092
1.59197
-0.00449867
0.00472679
1.58591
-0.00911934
0.00837253
1.57688
-0.0186835
0.0149229
1.56283
-0.0431651
0.0272142
0.390358
-0.10837
0.0504637
0.386454
0.391076
0.387204
-0.00769986
0.393836
-0.0477311
0.0124103
-0.011732
-0.404275
0.416446
-0.0564544
0.0179416
-0.0204995
-0.419677
0.422824
-0.0316498
0.0242215
-0.0160643
-0.422987
0.421715
-0.00828526
0.0187326
1.62866
0.129489
0.0132139
-0.416667
-0.41846
-0.417176
-0.418577
1.61508
0.0912616
0.0146134
1.60776
0.0570454
0.0233144
1.60531
0.0353985
0.0292775
1.60546
0.020774
0.0330661
1.60598
0.0116622
0.0362195
1.60637
0.00667029
0.038117
1.60645
0.00435075
0.0388379
1.60615
0.00343889
0.0388094
1.60549
0.00329229
0.0382866
1.60447
0.00365932
0.0373643
1.60322
0.00436182
0.0361021
1.60171
0.00520938
0.0347472
1.60004
0.00612193
0.0332393
1.59786
0.0068477
0.0322933
0.00699938
0.0309227
1.59985
-4.6893e-05
0.00024118
1.59943
-0.000148938
0.000597097
1.59863
-0.000310835
0.00105559
1.59724
-0.000606995
0.0017369
1.59472
-0.00118874
0.00298865
1.59026
-0.00235575
0.00505138
1.58162
-0.00495454
0.00937808
1.56583
-0.0109412
0.0172861
1.53376
-0.0293456
0.0342772
0.372969
-0.0994214
0.072334
0.363563
0.37449
0.366317
-0.0653199
0.0164871
-0.00671387
0.0527822
0.0941476
0.0940822
0.0931862
0.0942898
-0.00238441
-0.0992415
0.0209836
0.104625
-0.0272926
0.00330002
-0.107305
-0.0146903
0.0108422
0.107182
-0.0107054
0.0146742
-0.10753
-0.0139649
0.00325705
-0.00319524
0.0135965
0.107856
1.59104
0.260122
-0.00753675
-0.418937
-0.396748
-0.422409
-0.404716
1.56893
0.185232
0.000621793
1.55559
0.126949
0.0188211
1.54388
0.0907564
0.0275866
1.53202
0.0664259
0.0297802
1.52021
0.0500756
0.0285978
1.50872
0.0396104
0.0256376
1.49844
0.032949
0.0211912
1.48943
0.0285932
0.0167589
1.4816
0.0257272
0.0126616
1.4748
0.0239008
0.00899181
1.46893
0.0227797
0.00580062
1.46358
0.0222468
0.0032465
1.45907
0.0217479
0.00112932
1.45279
0.0226519
6.64489e-05
0.021844
-0.000207357
1.59986
1.1083e-05
0.00024356
1.59942
3.81235e-05
0.000614594
1.59856
6.89523e-05
0.00109608
1.59703
0.00010472
0.00183351
1.59425
0.000148278
0.0031178
1.58927
0.00020306
0.00529811
1.57938
0.000270576
0.00990002
1.55959
0.000349509
0.0186655
1.50938
0.000424243
0.0380973
0.336417
0.000462655
0.0890779
0.333839
0.335764
0.333786
-0.0428685
0.0124148
0.00866358
0.0656817
0.0704126
0.0750051
0.0715514
0.0755376
0.00232443
0.00409546
-0.00559
0.00613061
-0.00216455
-0.00114206
-0.00132634
-0.0011372
-0.00118887
-0.00777672
0.00248225
-0.00464413
0.00493364
0.00850318
-0.000764968
-0.000987916
-0.000943493
-0.000794255
-0.00313124
0.00115087
0.00154101
-0.00154256
-0.00121187
0.00320017
0.839634
0.0478248
-0.388322
-0.168124
-0.0460798
-0.239397
-0.103565
1.0079
0.0349024
-0.32634
1.12453
0.0273845
-0.260242
1.20679
0.0241556
-0.21785
1.26524
0.0224545
-0.188214
1.30801
0.0219666
-0.168011
1.34021
0.0224732
-0.15357
1.36522
0.0235017
-0.14276
1.38505
0.0249042
-0.134122
1.40089
0.0264968
-0.126818
1.41354
0.028139
-0.120412
1.42359
0.0297433
-0.114595
1.43132
0.0313693
-0.109191
1.43727
0.0326178
-0.103818
1.44095
0.0343434
-0.0996349
0.0351359
-0.0909641
1.59988
6.86935e-05
0.000237421
1.59947
0.000223802
0.000602346
1.59867
0.000446443
0.00105026
1.59717
0.000814135
0.00181651
1.59443
0.00148153
0.00309833
1.5893
0.00276081
0.00537249
1.5794
0.00549266
0.00990317