/*--------------------------------*- C++ -*----------------------------------*\
| =========                 |                                                 |
| \\      /  F ield         | OpenFOAM: The Open Source CFD Toolbox           |
|  \\    /   O peration     | Version:  2512                                  |
|   \\  /    A nd           | Website:  www.openfoam.com                      |
|    \\/     M anipulation  |                                                 |
\*---------------------------------------------------------------------------*/
FoamFile
{
    version     2.0;
    format      ascii;
    arch        "LSB;label=32;scalar=64";
    class       surfaceScalarField;
    location    "140";
    object      phi;
}
// * * * * * * * * * * * * * * * * * * * * * * * * * * * * * * * * * * * * * //

dimensions      [0 3 -1 0 0 0 0];

oriented        oriented;

internalField   nonuniform List<scalar> 
278528
(
1.60033
-0.000180758
-0.000161944
1.60284
-0.00165571
-0.000866059
1.60793
-0.00341099
-0.00169135
1.61605
-0.0054536
-0.00266704
1.62645
-0.00656114
-0.00384611
1.63985
-0.00822367
-0.00519685
1.6563
-0.0101759
-0.00626985
1.67788
-0.0139064
-0.00763563
1.70087
-0.0145282
-0.00834841
1.73099
-0.0213337
-0.00864661
1.75293
-0.0136202
-0.00811665
1.77052
-0.000224765
-0.0171316
1.83261
-0.00649562
-0.0553516
1.92737
0.0235192
-0.118129
2.04792
0.0467269
-0.167336
2.17624
0.0646101
-0.19293
2.30145
0.0780855
-0.203252
2.42146
0.0837584
-0.203712
2.53292
0.0890152
-0.200438
2.63663
0.0913891
-0.195077
2.73342
0.0926528
-0.189446
2.82436
0.0937195
-0.184678
2.91061
0.0952487
-0.181538
2.99342
0.0977088
-0.180565
3.0742
0.101261
-0.182117
3.15439
0.106064
-0.186344
3.23685
0.111421
-0.193972
3.32389
0.118171
-0.205271
3.42883
0.1212
-0.226155
0.127365
-0.285723
1.60077
-0.000798807
-0.000168924
1.60359
-0.00361103
-0.000885094
1.60876
-0.00687421
-0.00171113
1.61653
-0.0105301
-0.00270534
1.62697
-0.0130846
-0.00393553
1.64097
-0.0170161
-0.00523196
1.6567
-0.0197012
-0.00621545
1.67806
-0.0276666
-0.00757198
1.70268
-0.0308132
-0.00826849
1.73248
-0.0423896
-0.00860772
1.75637
-0.0281349
-0.00919988
1.77661
0.00088421
-0.0211348
1.83823
-0.0100808
-0.0578069
1.92602
0.0470982
-0.111234
2.03719
0.0876634
-0.152118
2.15731
0.11896
-0.174441
2.27724
0.142495
-0.184271
2.39178
0.154591
-0.185314
2.49977
0.163741
-0.18267
2.60081
0.168195
-0.177833
2.69536
0.170531
-0.172428
2.78425
0.172327
-0.16751
2.86848
0.174827
-0.16384
2.94916
0.178888
-0.161913
3.02762
0.184886
-0.162161
3.10525
0.193112
-0.164765
3.18476
0.202523
-0.170704
3.26863
0.214129
-0.179883
3.36889
0.220166
-0.199255
0.229427
-0.253516
1.60074
-0.00138522
-0.000176713
1.60354
-0.00551974
-0.000912629
1.60848
-0.0100535
-0.00176706
1.61612
-0.0153875
-0.00280213
1.62645
-0.0192872
-0.00415017
1.63991
-0.0251099
-0.00540227
1.65717
-0.030652
-0.00632813
1.67762
-0.0403871
-0.00772315
1.70321
-0.047925
-0.00841378
1.73567
-0.0661353
-0.00861405
1.76323
-0.0448891
-0.0106541
1.78902
0.00228136
-0.0270038
1.85491
-0.00955559
-0.0662367
1.93788
0.0731658
-0.108905
2.0393
0.125352
-0.139072
2.1492
0.164186
-0.155053
2.2599
0.193483
-0.161609
2.36725
0.208909
-0.161606
2.4694
0.220114
-0.158483
2.56572
0.225457
-0.153571
2.65632
0.228127
-0.148188
2.7417
0.230138
-0.143215
2.82263
0.233153
-0.139282
2.9
0.238293
-0.136832
2.97499
0.246065
-0.13623
3.04882
0.256868
-0.137668
3.1241
0.269371
-0.142209
3.20296
0.284866
-0.149658
3.29679
0.29304
-0.166731
0.305906
-0.214902
1.60075
-0.00197708
-0.000188067
1.60339
-0.00722304
-0.000957369
1.6082
-0.0130253
-0.0018545
1.61555
-0.019805
-0.00294648
1.62604
-0.0253939
-0.00441712
1.6391
-0.0325112
-0.00570316
1.65525
-0.0402731
-0.00655323
1.67714
-0.0543014
-0.00796367
1.70427
-0.0662792
-0.00873839
1.74044
-0.0936867
-0.00850729
1.77423
-0.0666365
-0.011909
1.80812
0.00160869
-0.0330714
1.87816
-0.00881721
-0.070643
1.95604
0.09923
-0.103827
2.04772
0.158112
-0.124363
2.14703
0.198373
-0.133397
2.2476
0.228411
-0.135415
2.34621
0.243466
-0.133118
2.44101
0.254077
-0.12873
2.53118
0.258601
-0.1233
2.61651
0.26063
-0.117834
2.69724
0.262375
-0.112991
2.77384
0.265697
-0.109168
2.84697
0.271786
-0.106667
2.91755
0.281193
-0.105774
2.98664
0.294321
-0.106608
3.05656
0.30954
-0.110161
3.12914
0.328448
-0.116229
3.21434
0.338574
-0.130762
0.35586
-0.171911
1.60073
-0.00253306
-0.000206046
1.6032
-0.00869834
-0.00101808
1.60788
-0.0157598
-0.00196851
1.61498
-0.0238055
-0.00312983
1.62628
-0.0319874
-0.00473893
1.63882
-0.0388118
-0.00629935
1.65527
-0.0499202
-0.00681114
1.67602
-0.0668539
-0.00818483
1.70647
-0.0879765
-0.00868642
1.74669
-0.126096
-0.00773698
1.78974
-0.0977234
-0.0118634
1.85626
-0.0288321
-0.0359565
1.90626
0.0104481
-0.0691565
1.97746
0.122306
-0.0941726
2.05915
0.183897
-0.107394
2.14763
0.21962
-0.109643
2.23738
0.245257
-0.106515
2.32638
0.255719
-0.101212
2.41285
0.2626
-0.0949816
2.49588
0.264296
-0.0887184
2.57501
0.26466
-0.08317
2.65022
0.265797
-0.0786532
2.72166
0.269511
-0.0752857
2.78972
0.276867
-0.0731833
2.85507
0.288253
-0.0724543
2.91851
0.303951
-0.0731329
2.982
0.322019
-0.0760406
3.04711
0.34425
-0.0809694
3.12202
0.356504
-0.0928754
0.378893
-0.126424
1.60067
-0.00300639
-0.000229122
1.60316
-0.0101258
-0.0010951
1.60739
-0.0178969
-0.00212277
1.61394
-0.0270295
-0.00335833
1.62442
-0.0374294
-0.00508619
1.63994
-0.0468504
-0.00753627
1.65525
-0.0578738
-0.00735803
1.6764
-0.0802862
-0.00768025
1.70738
-0.111408
-0.0075052
1.74041
-0.154198
-0.00481885
1.81014
-0.159125
-0.0082494
1.87282
-0.0621473
-0.029238
1.93932
0.00252677
-0.058417
2.00076
0.139605
-0.0786494
2.07172
0.199848
-0.0868704
2.14913
0.225371
-0.0830976
2.22786
0.242132
-0.0755528
2.30634
0.24506
-0.0677994
2.38383
0.245071
-0.0599612
2.45903
0.242092
-0.0530151
2.53135
0.239841
-0.0475079
2.60043
0.240212
-0.0435094
2.66611
0.244591
-0.0407818
2.72844
0.253742
-0.0392412
2.7878
0.267698
-0.0388443
2.84474
0.286482
-0.0395212
2.90079
0.30778
-0.0418691
2.95729
0.333379
-0.0456882
3.0205
0.348114
-0.0548522
0.37586
-0.0806211
1.6007
-0.0034898
-0.000258834
1.60292
-0.0111724
-0.00120773
1.60724
-0.0198567
-0.00239776
1.61343
-0.0295787
-0.00368261
1.62208
-0.0409181
-0.00521735
1.63711
-0.0535701
-0.00835657
1.65474
-0.0662696
-0.00919927
1.67209
-0.0910474
-0.00655482
1.7001
-0.135066
-0.00421549
1.7454
-0.0419227
0.00228045
-0.0482804
-0.0521726
-0.0593085
1.83559
-0.064158
0.00228222
-0.0529126
-0.0743487
-0.0601738
1.9224
-0.0371609
-0.00665224
-0.0355403
-0.0356402
-0.0338106
1.98933
-0.0135913
-0.034622
-0.00277517
-0.0102022
-0.00299316
2.03473
0.0299447
-0.0585689
0.0418809
0.035489
0.0455743
2.08897
0.211159
-0.0655771
2.14715
0.223332
-0.056115
2.21582
0.218163
-0.0446751
2.2827
0.213153
-0.0349699
2.35078
0.203256
-0.0262769
2.41806
0.194053
-0.0192506
2.48351
0.188629
-0.014244
2.54638
0.188239
-0.0109063
2.60612
0.193629
-0.008791
2.66242
0.205062
-0.00763343
2.7153
0.22214
-0.00734962
2.76505
0.244469
-0.00776992
2.81277
0.269321
-0.00930473
2.85963
0.29825
-0.0117746
2.91002
0.315671
-0.0179878
0.348339
-0.0360683
1.60051
-0.00375808
-0.000290742
1.60289
-0.0122078
-0.00139012
1.60727
-0.0211389
-0.00313898
1.61342
-0.0313085
-0.00448142
1.62042
-0.0432586
-0.00471073
1.63158
-0.0567763
-0.00798289
1.64864
-0.0726866
-0.010588
1.65975
-0.0968835
-0.00515795
0.418072
-0.0302248
0.00167416
0.41584
0.424141
0.421914
-0.0401892
-0.0379541
-0.0484925
0.423327
-0.0487402
0.00159959
0.443655
-0.0771411
0.0023907
-0.433067
-0.456234
0.474609
-0.0662904
0.0108023
-0.486082
0.500704
-0.0346785
0.00661153
-0.502575
0.505335
0.0265173
0.000755884
2.08279
0.234654
-0.0479723
-0.507324
-0.510173
-0.523003
-0.517897
2.12592
0.21667
-0.0364886
2.17592
0.19247
-0.0243031
2.2332
0.169288
-0.0134115
2.29361
0.146966
-0.00413196
2.3542
0.130476
0.00298626
2.41353
0.121365
0.00793491
2.4706
0.119747
0.0114349
2.52453
0.125652
0.0140568
2.57468
0.138929
0.0159924
2.62081
0.158754
0.0172484
2.66297
0.184233
0.0180611
2.70196
0.212117
0.0181796
2.73882
0.243593
0.0177656
2.77711
0.262534
0.014831
0.29849
0.00470505
1.6004
-0.00388326
-0.000324011
1.60233
-0.0126798
-0.00151732
1.6068
-0.0221071
-0.00355738
1.61349
-0.0324199
-0.00564414
1.61937
-0.0436772
-0.00552116
1.6279
-0.0581718
-0.00714299
1.64064
-0.0752226
-0.0100953
0.410314
-0.0976001
-0.00363381
0.408877
0.413695
0.412244
0.409355
-0.0297746
0.000545053
0.414575
-0.0690754
0.00655259
0.0571312
-0.409118
0.437836
0.0133354
-0.428595
0.0961246
-0.0358181
-0.0245115
-0.0325959
-0.0257675
0.470865
-0.462231
0.100899
-0.0330913
-0.0344166
-0.0386349
-0.0329265
0.00764717
0.00645988
0.00725716
0.00820499
-0.477016
0.487328
0.0602014
-0.00902558
-0.0215584
-0.0148139
-0.0161969
-0.00546569
0.000733145
-0.000326348
-0.0038957
-0.488861
0.481973
-0.0267108
0.00653835
0.012524
0.0154134
0.0093671
-0.00240023
-0.00357815
-0.0020484
-0.00225207
1.8302
0.204459
-0.0200894
-0.470407
-0.419473
-0.4728
-0.417416
1.89611
0.155718
-0.00503007
1.96637
0.119105
0.00310151
2.03969
0.0873033
0.00866312
2.11275
0.0600717
0.013834
2.18424
0.0405231
0.0184795
2.25329
0.0298824
0.022466
2.31868
0.0282808
0.0261195
2.37906
0.0358391
0.0294785
2.43335
0.0522989
0.0323791
2.48097
0.0763872
0.0347657
2.52177
0.10646
0.0369806
2.5564
0.138421
0.0390465
2.58582
0.173074
0.0410849
2.61248
0.193643
0.0422126
0.231947
0.0398262
1.60031
-0.00390011
-0.000356695
1.60191
-0.0127521
-0.00158874
1.6053
-0.0222199
-0.00333602
1.61137
-0.032547
-0.00601566
1.61872
-0.043963
-0.00714042
1.62498
-0.0567994
-0.007622
1.631
-0.0708777
-0.0102228
0.40593
-0.0874085
-0.00398783
0.403985
0.408664
0.406438
0.399126
-0.0248152
0.00253917
0.0291255
0.0155719
-0.0974135
0.0959139
-0.0151783
0.00111535
0.03167
-0.107438
0.104587
0.00625479
-0.00996437
-0.00711665
-0.0110368
-0.00693746
0.0482771
-0.0688683
0.0729004
-0.0550871
-0.000825712
0.00168887
0.00130088
0.000625226
-0.0912093
0.00876589
0.0951643
5.15155e-05
-0.00250648
-0.00401105
-0.00273633
-0.00348387
-0.0992252
-0.0136452
0.0138125
0.00334626
0.0957045
1.26668
-0.0844205
0.203747
-0.323714
-0.3179
-0.294089
-0.246153
1.37946
-0.0732806
0.116105
1.50271
-0.0793471
0.0751894
1.63221
-0.0934435
0.0512459
1.76156
-0.107313
0.0380563
1.88601
-0.116106
0.0322228
2.00167
-0.116909
0.0311942
2.10491
-0.107973
0.0330948
2.19334
-0.0889317
0.036421
2.26615
-0.0606134
0.040172
2.32393
-0.0253149
0.0439699
2.36811
0.0143143
0.0479827
2.40058
0.0535913
0.0523737
2.42319
0.0933483
0.0571071
2.43815
0.116306
0.0623807
0.157689
0.0667984
1.60024
-0.00382028
-0.000391902
1.60166
-0.0125062
-0.00173167
1.60476
-0.0217796
-0.00361167
1.61045
-0.0318825
-0.0064451
1.61738
-0.0431801
-0.00778994
1.62392
-0.0546707
-0.00865405
1.62947
-0.0645254
-0.0117199
0.403834
-0.073503
-0.00621552
0.404714
0.406239
0.407287
0.02077
0.397148
-0.0166673
0.00266951
0.00535659
-0.0943561
0.0872052
-0.000332066
0.00213974
0.0109138
-0.047162
0.0820637
0.0208083
-0.0137393
-0.019605
-0.0134334
-0.0198139
-0.00277573
-0.0935312
0.0931991
0.0052066
-0.00207436
-0.101237
0.00329473
-0.0124089
0.0129466
0.0973959
1.12844
-0.244177
0.0150378
-0.285375
-0.259476
-0.196496
-0.242663
1.30283
-0.231514
-0.0162731
1.48848
-0.23735
-0.0276579
1.66819
-0.244485
-0.0286651
1.83128
-0.249935
-0.0204403
1.97188
-0.248455
-0.00818418
2.08883
-0.238476
0.00470713
2.18163
-0.217227
0.0165469
2.25153
-0.185308
0.026583
2.3008
-0.144869
0.0350743
2.33202
-0.0992539
0.0427836
2.34781
-0.051871
0.0504401
2.35075
-0.00782775
0.0584932
2.34412
0.033399
0.0665949
2.32727
0.0566429
0.0765328
0.0949869
0.0865159
1.60019
-0.0036577
-0.000429194
1.60158
-0.0120297
-0.00194545
1.6052
-0.0210926
-0.00438616
1.61079
-0.0305211
-0.00704767
1.61596
-0.0406208
-0.00782197
1.62246
-0.0505385
-0.0106084
1.63315
-0.0602037
-0.0147945
0.406796
-0.0639248
-0.0103776
0.40718
0.40994
0.410329
0.0115295
0.403298
-0.00938424
0.0014679
-0.00574451
0.025457
0.00988341
-0.00941032
-0.00534994
-0.00907236
0.0975626
0.0974317
0.0985085
0.0985926
-0.397782
-0.0273909
-0.10224
0.10363
0.00396539
0.0220616
-0.0527623
-0.0969289
0.0920645
0.0170713
0.0405643
-0.0213073
-0.0910378
0.0922851
-0.00440296
0.0245587
0.0115157
-0.0913114
-0.00727974
0.0884534
-0.00134358
1.73004
-0.223237
-0.0996616
-0.367573
-0.445424
-0.384009
-0.454496
1.82687
-0.243615
-0.0848041
1.9267
-0.267412
-0.0697904
2.0284
-0.291823
-0.0543527
2.12186
-0.30678
-0.036574
2.20288
-0.309653
-0.0197526
2.26783
-0.297827
-0.00549734
2.31528
-0.271077
0.00652607
2.34591
-0.232606
0.0167806
2.36033
-0.185102
0.0259267
2.36046
-0.134778
0.0354677
2.34811
-0.0851823
0.0457169
2.32444
-0.041196
0.0570655
2.29181
-0.00261778
0.0686668
2.24628
0.0188906
0.0833234
0.0495348
0.0987416
1.60018
-0.00345411
-0.00046403
1.60167
-0.0115123
-0.00209491
1.60483
-0.0197853
-0.00456176
1.60936
-0.0282484
-0.00690997
1.61411
-0.0369569
-0.00850567
1.62311
-0.0459808
-0.0135311
1.63766
-0.0560077
-0.0185211
1.64462
-0.0543652
-0.0161738
0.410558
-0.027787
-0.0125277
0.00864238
0.000682002
0.01309
0.00605629
0.412614
0.415747
0.417847
-0.0178744
0.412447
0.0128853
0.00317861
-0.0662251
0.432867
0.0499908
0.00541552
-0.421998
-0.0738765
-0.452223
0.472739
0.0457579
0.0077449
-0.0398306
-0.4859
0.499659
0.0196045
0.00651498
0.0141823
-0.507167
0.507104
-0.0191026
0.00498686
2.05695
-0.19684
-0.0359031
-0.507551
-0.506139
-0.515219
-0.518625
2.08929
-0.235432
-0.0405781
2.13036
-0.269804
-0.0386914
2.1807
-0.308149
-0.0339937
2.23227
-0.332113
-0.0261997
2.27771
-0.337447
-0.0175587
2.31267
-0.322973
-0.00969094
2.33466
-0.29109
-0.00183431
2.3423
-0.246944
0.00683224
2.33714
-0.196285
0.0164576
2.31927
-0.144788
0.0279754
2.28972
-0.0962762
0.0406868
2.24947
-0.0558407
0.0549261
2.20042
-0.0228622
0.0693306
2.13738
-0.00531562
0.0872989
0.0166597
0.107271
1.60025
-0.0032961
-0.000494716
1.60133
-0.0105009
-0.0021814
1.60371
-0.0179451
-0.00432564
1.60758
-0.0253044
-0.00691801
1.61375
-0.0329242
-0.0102999
1.62634
-0.0426156
-0.0159226
1.6421
-0.0513084
-0.020215
1.65706
-0.0468346
-0.022187
1.68089
-0.0274498
-0.0239745
1.72418
0.0180585
-0.0185139
-0.00748735
-0.0165585
-0.00517359
-0.0135495
1.82302
0.0541157
-0.0203961
-0.037598
-0.0313097
-0.0352507
-0.0284237
1.91492
-0.000430016
-0.0232486
-0.0205459
-0.0195912
-0.0123509
-0.0157655
1.98142
-0.020559
-0.0328955
-0.0049744
-0.00183684
-0.00265756
-0.00358816
2.0154
-0.125161
-0.0359758
0.0228806
0.0332206
0.0291849
0.0419146
2.04681
-0.183743
-0.0445807
2.08171
-0.226999
-0.0433768
2.12879
-0.276005
-0.0408952
2.17564
-0.315913
-0.0390668
2.22139
-0.342558
-0.0352421
2.25883
-0.345154
-0.0296346
2.28366
-0.324786
-0.0228709
2.29444
-0.286797
-0.0149142
2.29126
-0.238369
-0.00524686
2.27442
-0.186216
0.00690345
2.24418
-0.135955
0.0214983
2.20258
-0.0917606
0.0371381
2.15
-0.0572441
0.0540127
2.08827
-0.0315064
0.0704167
2.01193
-0.0193421
0.0904375
-0.00601853
0.114011
1.60012
-0.0029823
-0.000527145
1.60112
-0.009286
-0.00230591
1.60308
-0.0154958
-0.00451348
1.60687
-0.0218226
-0.00738891
1.61444
-0.0291375
-0.0114511
1.6275
-0.0385329
-0.0170962
1.64166
-0.0439062
-0.0213158
1.66308
-0.0406037
-0.0273641
1.69621
-0.027831
-0.0325946
1.73604
0.0127782
-0.0344984
1.82373
0.00738699
-0.0409304
1.89769
-0.0281945
-0.0462044
1.95691
-0.0289895
-0.0508214
1.99315
-0.111556
-0.0499076
2.02655
-0.165975
-0.0512406
2.06517
-0.215058
-0.0505928
2.10861
-0.26874
-0.0507144
2.15468
-0.309861
-0.052097
2.19729
-0.334298
-0.0508025
2.22896
-0.331102
-0.0455968
2.24561
-0.304195
-0.037073
2.24677
-0.261452
-0.026326
2.23353
-0.211369
-0.0135898
2.20648
-0.160775
0.00174921
2.16611
-0.114731
0.019235
2.11393
-0.0768496
0.0373074
2.05078
-0.0496864
0.055616
1.9785
-0.0320078
0.0728369
1.89137
-0.0255896
0.0934594
-0.0201625
0.119325
1.60008
-0.00260311
-0.000553498
1.60084
-0.00770219
-0.00243774
1.60291
-0.0128937
-0.0047812
1.60688
-0.0180303
-0.00788626
1.61503
-0.0251225
-0.0122465
1.62524
-0.0311423
-0.017541
1.64115
-0.0363853
-0.0231741
1.66487
-0.0327067
-0.0313574
1.70193
-0.0262653
-0.038482
1.75499
0.00420191
-0.0444261
1.82208
-0.0059561
-0.053713
1.90424
-0.0513519
-0.0590188
1.94337
-0.00994335
-0.0582358
1.97957
-0.0928241
-0.0550145
2.01133
-0.14217
-0.0556402
2.04783
-0.192999
-0.05859
2.08987
-0.247233
-0.0635576
2.13465
-0.286064
-0.068546
2.17384
-0.304818
-0.0685876
2.19959
-0.295145
-0.0615617
2.20832
-0.263619
-0.0491108
2.2007
-0.219661
-0.0339644
2.17847
-0.171755
-0.0172098
2.14244
-0.126027
0.00142169
2.09326
-0.0867565
0.0212949
2.03246
-0.0567582
0.0407417
1.96114
-0.0375142
0.059173
1.88064
-0.0274062
0.0759533
1.7855
-0.0261394
0.0957892
-0.026978
0.122903
1.60003
-0.00214903
-0.000578409
1.60077
-0.0059892
-0.00255603
1.60272
-0.00993045
-0.00502145
1.60664
-0.0137688
-0.00831024
1.61386
-0.0195378
-0.0128759
1.62479
-0.0236156
-0.0183718
1.64123
-0.0276101
-0.0249401
1.66805
-0.025214
-0.0340708
1.70519
-0.020959
-0.0423326
1.7586
0.000825446
-0.0499969
1.82081
-0.00765317
-0.0604981
1.8739
-0.0400886
-0.0643847
1.93218
-0.00748156
-0.0608153
1.96664
-0.0700229
-0.0573456
1.99673
-0.11288
-0.0594454
2.03183
-0.16053
-0.0676184
2.07318
-0.210071
-0.0785331
2.11639
-0.242658
-0.0865934
2.15195
-0.254278
-0.0859942
2.17173
-0.239796
-0.0749656
2.17305
-0.207675
-0.0570385
2.15776
-0.16726
-0.0368926
2.12797
-0.125822
-0.0159504
2.08451
-0.0881413
0.00572014
2.02834
-0.0575719
0.0270685
1.96106
-0.0360637
0.0466237
1.88373
-0.024248
0.0640772
1.79739
-0.0202907
0.0793076
1.697
-0.0229068
0.0972743
-0.0274433
0.124821
1.59996
-0.0015976
-0.000597809
1.60072
-0.00420998
-0.00264447
1.6026
-0.00671555
-0.00520435
1.60662
-0.00928109
-0.00863238
1.61362
-0.0132461
-0.0133438
1.62518
-0.0159043
-0.0191563
1.64344
-0.0193507
-0.0262476
1.67048
-0.0160074
-0.0360055
1.70857
-0.0143368
-0.0446028
1.76102
0.000840485
-0.0524263
1.81973
-0.00407609
-0.0622735
1.86867
-0.0242154
-0.0648577
1.92343
-0.00198459
-0.0603436
1.95564
-0.0451452
-0.0571925
1.98403
-0.078347
-0.0630057
2.01796
-0.116736
-0.0777828
2.05853
-0.156095
-0.0945578
2.09981
-0.1796
-0.104302
2.13131
-0.184651
-0.101021
2.14513
-0.169113
-0.0843216
2.13977
-0.141737
-0.0603393
2.11813
-0.110069
-0.0353181
2.0823
-0.0791865
-0.0105971
2.03303
-0.0522287
0.0134979
1.97166
-0.0315274
0.0354075
1.89976
-0.0182243
0.0540808
1.81836
-0.0124566
0.0696344
1.72799
-0.0124228
0.0825861
1.62408
-0.0170137
0.0981676
-0.0221109
0.125459
1.59994
-0.00106577
-0.00062273
1.60064
-0.00233724
-0.00271936
1.60261
-0.00351069
-0.00534854
1.60664
-0.00462211
-0.00886934
1.61373
-0.00679747
-0.0136521
1.62604
-0.00838861
-0.0197421
1.64341
-0.00938272
-0.0270751
1.67252
-0.0077581
-0.0371279
1.71141
-0.00745019
-0.0456913
1.76267
0.00197757
-0.0523845
1.81911
-4.21321e-05
-0.060483
1.8656
-0.00917658
-0.06159
1.9176
0.00186221
-0.0559785
1.94779
-0.0210952
-0.0543884
1.9746
-0.0401893
-0.0651094
2.00729
-0.0627357
-0.0867846
2.04661
-0.0860201
-0.109434
2.08493
-0.0978739
-0.120014
2.11168
-0.0987754
-0.112504
2.11958
-0.0876013
-0.0892295
2.10848
-0.0709815
-0.0594164
2.08187
-0.0531162
-0.0301147
2.04134
-0.0362948
-0.00217708
1.98771
-0.0220542
0.0235857
1.9226
-0.0117037
0.045336
1.8474
-0.0056316
0.062625
1.76295
-0.00388793
0.0759032
1.66927
-0.00498398
0.0863626
1.56217
-0.00922689
0.0994614
-0.0115613
0.12629
1.59949
-0.000631207
1.59982
-0.00276246
1.60167
-0.00545368
1.60599
-0.00904978
1.61307
-0.0139117
1.62493
-0.0201695
1.6434
-0.02768
1.67348
-0.0377036
1.71182
-0.0457378
1.76453
-0.0507092
1.82067
-0.0561967
1.8665
-0.055055
1.91694
-0.0486563
1.94529
-0.0495332
1.97047
-0.0654514
2.00167
-0.0939781
2.03817
-0.122537
2.0738
-0.133479
2.09566
-0.12057
2.09828
-0.0901123
2.0827
-0.0552839
2.05214
-0.0224289
2.00778
0.00816611
1.95069
0.0350964
1.88228
0.056735
1.80363
0.0730299
1.71537
0.0844095
1.6174
0.0930551
1.50463
0.103634
0.130671
1.60047
-0.000250793
-0.00041086
1.60308
-0.00171522
-0.00178092
1.60825
-0.00346139
-0.00340876
1.61611
-0.00514587
-0.00539106
1.62748
-0.00757788
-0.00766827
1.64163
-0.00905826
-0.0103214
1.65898
-0.0106138
-0.0130278
1.6815
-0.0144591
-0.0156568
1.70668
-0.0147203
-0.018732
1.73683
-0.0143583
-0.0243197
1.78533
-0.0141342
-0.0423678
1.85805
0.00386614
-0.0936209
1.98635
-0.00382547
-0.17974
2.127
0.0117514
-0.270499
2.2572
0.0266609
-0.324242
2.37816
0.031986
-0.345896
2.49404
0.0323267
-0.351459
2.60281
0.0314866
-0.343972
2.70589
0.0326388
-0.336156
2.80506
0.0315917
-0.325849
2.90128
0.0305887
-0.316275
2.99513
0.0305916
-0.309135
3.08727
0.0319825
-0.305695
3.17842
0.0349749
-0.30673
3.27048
0.0396353
-0.313862
3.36039
0.0456022
-0.321906
3.45129
0.0524451
-0.337383
3.54249
0.0604295
-0.356946
3.64229
0.0655326
-0.391512
0.0754656
-0.451302
1.60085
-0.000885247
-0.000411426
1.60373
-0.00370353
-0.00179904
1.60896
-0.006971
-0.00344013
1.61668
-0.0100959
-0.00548341
1.62739
-0.0145818
-0.00765866
1.64164
-0.0182245
-0.01036
1.65933
-0.0215057
-0.0130223
1.68163
-0.028692
-0.0156199
1.70885
-0.0311812
-0.0189451
1.74209
-0.030873
-0.0252315
1.7887
-0.0260749
-0.0437617
1.85709
0.00748224
-0.093049
1.9743
-0.00847419
-0.170291
2.10495
0.0191114
-0.249214
2.22803
0.048115
-0.29668
2.34463
0.0580047
-0.317079
2.45661
0.0593958
-0.323314
2.55922
0.0598115
-0.316235
2.6589
0.058918
-0.30863
2.75535
0.055866
-0.298573
2.84883
0.0535079
-0.28884
2.93978
0.0530666
-0.280963
3.02882
0.0552774
-0.276202
3.11722
0.060773
-0.276154
3.20473
0.0689368
-0.27903
3.29098
0.0802183
-0.28569
3.37783
0.0932078
-0.298386
3.46561
0.107986
-0.315275
3.56034
0.118706
-0.347185
0.135817
-0.403287
1.6008
-0.0014609
-0.000426413
1.60369
-0.00566809
-0.00186235
1.6087
-0.0101928
-0.00356289
1.61634
-0.0147941
-0.00576272
1.6268
-0.02135
-0.00786482
1.64068
-0.0268175
-0.0107367
1.66008
-0.0337924
-0.013463
1.68159
-0.0417691
-0.0161266
1.71028
-0.0485002
-0.0197262
1.74712
-0.0491605
-0.02708
1.79143
-0.0325321
-0.0484161
1.87024
0.00204114
-0.100297
1.98062
-0.0137999
-0.171225
2.09582
0.027472
-0.232442
2.20724
0.0649608
-0.267337
2.31518
0.0766357
-0.281613
2.41966
0.0776404
-0.284319
2.51774
0.0775266
-0.277396
2.61291
0.0740677
-0.268795
2.70493
0.0686542
-0.258387
2.79414
0.0645334
-0.248443
2.88083
0.0633205
-0.240184
2.9661
0.0662479
-0.235547
3.04996
0.0732686
-0.233223
3.13155
0.0850391
-0.233979
3.21276
0.100978
-0.239689
3.29425
0.119533
-0.250086
3.37642
0.14057
-0.264457
3.4651
0.156354
-0.293093
0.180895
-0.343689
1.60081
-0.00204108
-0.000449002
1.60352
-0.00740032
-0.00195782
1.60843
-0.0132288
-0.0037469
1.61602
-0.0192441
-0.00610907
1.62629
-0.0278102
-0.00825276
1.6397
-0.0346798
-0.0113152
1.65796
-0.0444573
-0.0141549
1.68127
-0.0560991
-0.0169317
1.7119
-0.0669903
-0.020817
1.75465
-0.0708428
-0.0294967
1.81235
-0.0480216
-0.0540379
1.89071
0.00020212
-0.109515
1.99217
-0.0189525
-0.166908
2.09442
0.0343638
-0.212942
2.19318
0.0772755
-0.235422
2.29065
0.0871819
-0.241392
2.38603
0.0852676
-0.238401
2.47717
0.0827136
-0.229431
2.56582
0.0756641
-0.218979
2.65192
0.0671654
-0.207911
2.73556
0.0609028
-0.197866
2.81683
0.0587313
-0.189693
2.89729
0.0621352
-0.18554
2.97433
0.0711258
-0.181594
3.05007
0.0862098
-0.182727
3.12498
0.106654
-0.18725
3.19977
0.130468
-0.195936
3.2748
0.157352
-0.208086
3.35537
0.177964
-0.232968
0.209943
-0.276719
1.60078
-0.00258393
-0.000479483
1.60335
-0.00893192
-0.0020852
1.60815
-0.0160303
-0.00399061
1.61602
-0.0237498
-0.0065208
1.62266
-0.0293069
-0.00993023
1.6385
-0.0460872
-0.0107773
1.65668
-0.0544748
-0.0149926
1.67993
-0.0697227
-0.0177842
1.71386
-0.087969
-0.0215661
1.7659
-0.0991206
-0.0314016
1.83613
-0.0723678
-0.057669
1.93975
-0.02603
-0.113288
2.0101
-0.00205397
-0.156374
2.09795
0.0424742
-0.190114
2.18306
0.0857403
-0.200946
2.26862
0.0896444
-0.197646
2.35311
0.082177
-0.187894
2.43553
0.0745515
-0.175454
2.51626
0.0626585
-0.162715
2.59522
0.0503126
-0.150834
2.67226
0.0415537
-0.140869
2.74748
0.0386306
-0.133795
2.82066
0.0423828
-0.128735
2.89116
0.0538856
-0.126468
2.96003
0.0725701
-0.127723
3.02756
0.0976368
-0.131689
3.09442
0.12661
-0.13908
3.16098
0.158953
-0.149174
3.23183
0.184163
-0.169953
0.223164
-0.205879
1.60082
-0.00315792
-0.000518217
1.60323
-0.0102097
-0.00225807
1.60764
-0.0182629
-0.0043277
1.61482
-0.027353
-0.0069663
1.62844
-0.0364633
-0.0116044
1.63693
-0.0513609
-0.0108133
1.65478
-0.0637959
-0.0158892
1.678
-0.0821785
-0.0183852
1.71411
-0.110413
-0.0210727
1.77568
-0.134843
-0.0305717
1.8724
-0.12136
-0.0559483
1.95695
-0.0322651
-0.107499
2.05239
-0.0170149
-0.138847
2.10681
0.0748666
-0.165421
2.17548
0.0952146
-0.165013
2.24731
0.0871445
-0.152411
2.31868
0.0713959
-0.136119
2.39036
0.0550673
-0.119993
2.46211
0.0361355
-0.105199
2.5332
0.0188548
-0.0926546
2.60337
0.00722563
-0.0833663
2.67166
0.00338337
-0.0765648
2.73701
0.00856538
-0.0723244
2.80033
0.0229591
-0.0716583
2.86149
0.0458563
-0.0733098
2.92068
0.0758783
-0.0769842
2.97855
0.109984
-0.0831549
3.03552
0.14731
-0.0910479
3.09545
0.176677
-0.107321
0.221662
-0.134817
1.60061
-0.00350329
-0.00056909
1.60328
-0.0116509
-0.00247651
1.60754
-0.019919
-0.00504008
1.61419
-0.03001
-0.00771179
1.6247
-0.0409416
-0.0113161
1.63316
-0.0548557
-0.0133703
1.64764
-0.0718827
-0.0155682
1.6718
-0.0945789
-0.0182223
1.71403
-0.138859
-0.0179275
1.77195
-0.0437183
-0.0246693
-0.0439728
-0.0428511
-0.0352516
1.8849
-0.056623
-0.0395325
-0.0483223
-0.0458181
-0.0416948
1.98923
-0.0194529
-0.0783208
-0.0216899
-0.00842041
-0.0152946
2.06776
-0.00477688
-0.106856
-0.0049325
-0.00284861
-0.0106861
2.11447
0.0296103
-0.137452
0.0327301
0.0237707
0.0209501
2.16291
0.114036
-0.132874
2.21636
0.0884914
-0.110911
2.27376
0.0576717
-0.0883463
2.33404
0.0287249
-0.0689057
2.39706
-0.000600693
-0.0525683
2.46122
-0.0247121
-0.0398529
2.52464
-0.039748
-0.0306958
2.58593
-0.0440764
-0.0247331
2.64474
-0.0368937
-0.0221434
2.70076
-0.0184963
-0.0222094
2.75378
0.00953673
-0.0240686
2.80404
0.0449818
-0.0271471
2.8522
0.0841165
-0.0316198
2.89875
0.125717
-0.0367615
2.94698
0.158375
-0.0479369
0.207609
-0.0666438
1.60059
-0.00380927
-0.000628951
1.60273
-0.012335
-0.00289046
1.60689
-0.0220169
-0.00523904
1.61275
-0.0320849
-0.00833149
1.62254
-0.0424233
-0.0130835
1.63277
-0.0584094
-0.0146953
1.64269
-0.0766782
-0.0156491
1.66481
-0.104724
-0.017041
0.422826
-0.0344447
-0.00889181
0.421139
0.424885
0.422925
-0.0430306
-0.0351591
-0.0425441
-0.00306033
0.430501
-0.0509482
0.00265259
-0.0068655
0.458996
-0.0708043
0.00592306
-0.443875
-0.0132729
-0.478484
0.497994
-0.0326388
0.00698047
-0.00317946
-0.513014
0.524838
-0.00758859
-0.00575316
0.00792072
-0.529092
0.53015
0.0409879
-0.0203104
2.10858
0.171385
-0.113162
-0.527534
-0.521252
-0.52938
-0.52264
2.14296
0.0997775
-0.0821707
2.18857
0.042478
-0.0547144
2.24335
-0.00697322
-0.0324914
2.30271
-0.0498234
-0.0142725
2.36411
-0.0823017
-0.000818281
2.42519
-0.101279
0.00839618
2.4839
-0.104943
0.0136026
2.53879
-0.09343
0.0157181
2.58906
-0.0685903
0.0158212
2.63465
-0.0335944
0.014787
2.67612
0.00811525
0.0134509
2.71443
0.0521354
0.0118386
2.75024
0.0971502
0.010511
2.78624
0.131936
0.00525385
0.183505
-0.00437969
1.60047
-0.00397734
-0.000687692
1.60259
-0.0128467
-0.0031768
1.60553
-0.0224499
-0.00611815
1.60909
-0.0334371
-0.00791339
1.6202
-0.0448662
-0.0142639
1.62927
-0.0581476
-0.0164928
1.63724
-0.0762857
-0.0183642
0.412195
-0.101883
-0.0138909
0.410259
0.412576
0.409768
-0.0010916
0.413364
-0.0350803
0.000592957
0.420148
-0.0653958
0.0133305
-0.0109275
0.0585816
-0.415692
0.0223401
-0.0229373
-0.440002
0.0858185
0.116965
0.114697
0.114854
0.116386
-0.0254946
-0.0272573
-0.0288516
-0.0265144
-0.00914149
-0.122128
0.0133784
0.125919
-0.016192
0.00817701
-0.129788
0.00106837
0.00407553
0.130706
-0.00450316
-0.00153984
-0.12884
0.00565267
-0.0139331
0.0168001
-0.00725494
0.127585
1.85128
0.197881
-0.0946812
-0.476894
-0.422484
-0.47882
-0.425102
1.91519
0.0805135
-0.0497069
1.98689
-0.00517277
-0.0209451
2.06292
-0.0729244
-0.00140546
2.1407
-0.127915
0.0141618
2.21778
-0.166217
0.0253234
2.29016
-0.184026
0.0328635
2.35499
-0.180666
0.0370413
2.41101
-0.159067
0.039127
2.4584
-0.123748
0.0401664
2.49824
-0.0797152
0.0410637
2.53197
-0.0313544
0.0427327
2.56117
0.0167372
0.0452387
2.58689
0.063727
0.048778
2.61199
0.0987691
0.0502778
0.150987
0.0497989
1.60037
-0.00401871
-0.000744975
1.60212
-0.0129941
-0.00325421
1.60602
-0.0225909
-0.00716113
1.6097
-0.0331045
-0.0101088
1.6169
-0.0447869
-0.0144916
1.627
-0.0580902
-0.0177932
1.63527
-0.0724325
-0.0221999
0.409102
-0.0895558
-0.0136044
0.407777
0.407876
0.408004
0.403561
-0.030056
0.00327165
-0.00273894
0.0350868
-0.00521639
0.0169084
-0.0996764
0.0988983
-0.0171695
0.00627288
-0.00330834
0.0078194
-0.0271686
0.0271301
-0.00763455
0.00315548
0.00259747
0.000385682
-0.00745883
0.00766069
-0.00259741
-7.30659e-05
-0.000264923
-0.000164635
-8.50131e-05
0.00259252
0.000497127
-0.00433423
0.00428288
-0.00261574
-7.06577e-05
-0.000153121
-9.82417e-05
-0.000100551
-0.00555712
-0.000570508
-0.00159362
0.00177626
0.000501459
0.00544265
1.19814
-0.0397886
0.0827795
-0.267463
-0.16762
-0.258826
-0.145757
1.45415
-0.102041
0.0425977
1.65677
-0.159411
0.0268198
1.82658
-0.21308
0.0216065
1.96676
-0.255625
0.0256054
2.08009
-0.279276
0.0319823
2.16941
-0.280049
0.0379311
2.23858
-0.258927
0.0422383
2.29164
-0.22132
0.0456505
2.33211
-0.173244
0.0492363
2.36283
-0.120238
0.0538102
2.38606
-0.0666866
0.0600996
2.40387
-0.016746
0.0680586
2.41758
0.0297778
0.0773477
2.42984
0.0626784
0.0862206
0.113088
0.094323
1.60029
-0.00396075
-0.000816307
1.60186
-0.012821
-0.00353795
1.60547
-0.0221793
-0.00770806
1.6094
-0.0324493
-0.0111204
1.61655
-0.0435918
-0.0162144
1.62619
-0.0561536
-0.0202367
1.63404
-0.0662726
-0.0255476
0.407904
-0.0734113
-0.0189273
0.407819
0.408648
0.406507
0.0256785
0.403577
-0.0210929
0.00224552
-0.00242037
0.00834358
-0.0072666
-0.0973317
0.0911261
-0.00369264
0.00883921
0.000337871
3.71403e-05
0.00019595
-0.000345623
-0.000148199
-7.50588e-05
1.26892
-0.343668
-0.120901
-0.149347
-0.259949
-0.144255
-0.275679
1.55265
-0.318707
-0.08339
1.75152
-0.330044
-0.0558856
1.89944
-0.355845
-0.0338104