/*--------------------------------*- C++ -*----------------------------------*\
| =========                 |                                                 |
| \\      /  F ield         | OpenFOAM: The Open Source CFD Toolbox           |
|  \\    /   O peration     | Version:  2512                                  |
|   \\  /    A nd           | Website:  www.openfoam.com                      |
|    \\/     M anipulation  |                                                 |
\*---------------------------------------------------------------------------*/
FoamFile
{
    version     2.0;
    format      ascii;
    arch        "LSB;label=32;scalar=64";
    class       volVectorField;
    location    "140";
    object      U;
}
// * * * * * * * * * * * * * * * * * * * * * * * * * * * * * * * * * * * * * //

dimensions      [0 1 -1 0 0 0 0];

internalField   nonuniform List<vector> 
84826
(
(20 -0.000191702 0.000203333)
(19.9997 -0.000627405 0.000654879)
(19.9992 -0.00123628 0.0011939)
(19.999 -0.00219168 0.00187682)
(19.9999 -0.00372802 0.00276484)
(20.0035 -0.00616445 0.00391611)
(20.0123 -0.00988363 0.00537139)
(20.0301 -0.0152308 0.00711335)
(20.0616 -0.0221419 0.00899644)
(20.1107 -0.0294267 0.0107206)
(20.178 -0.0346517 0.011833)
(20.2542 -0.0328025 0.0117108)
(20.317 -0.022031 0.00992143)
(20.343 -0.00712667 0.00676381)
(20.3282 0.00451552 0.00334003)
(20.2897 0.0096763 0.000764728)
(20.2491 0.00990425 -0.000554836)
(20.2171 0.00812162 -0.00093994)
(20.1943 0.00592257 -0.00086484)
(20.1781 0.00377524 -0.000579081)
(20.1676 0.00195605 -0.000202612)
(20.1612 0.000642393 0.000145496)
(20.1571 -0.00025976 0.000380643)
(20.1539 -0.000923375 0.000518826)
(20.1512 -0.00137306 0.000615444)
(20.1495 -0.00154502 0.000714317)
(20.1488 -0.00145374 0.000789221)
(20.1486 -0.00122312 0.000851072)
(20.1491 -0.00101579 0.00082517)
(20.1496 -0.0008152 0.000829365)
(19.9999 -0.00055624 0.000207088)
(19.9995 -0.0018232 0.000667888)
(19.9987 -0.00360076 0.0012213)
(19.998 -0.00640426 0.00193006)
(19.998 -0.0109432 0.00286594)
(20.0003 -0.0182053 0.00410392)
(20.0073 -0.0294304 0.00571069)
(20.0232 -0.0457971 0.00770805)
(20.0535 -0.0673901 0.00997305)
(20.1037 -0.090712 0.0121662)
(20.1763 -0.108356 0.0137275)
(20.2621 -0.103101 0.0137527)
(20.3327 -0.0687252 0.0117836)
(20.3592 -0.0214227 0.00790427)
(20.3385 0.0149861 0.00373934)
(20.2932 0.0303969 0.000761278)
(20.2484 0.030185 -0.00062875)
(20.2149 0.0240118 -0.000948716)
(20.1917 0.0170218 -0.000784234)
(20.1758 0.0106651 -0.000383608)
(20.1657 0.00569447 0.000137506)
(20.1598 0.00235464 0.000634751)
(20.1561 2.55746e-07 0.00100033)
(20.1531 -0.0020782 0.00123144)
(20.1507 -0.00390779 0.00137234)
(20.1492 -0.00510213 0.00146307)
(20.1488 -0.00547933 0.00149722)
(20.1487 -0.00524601 0.00150932)
(20.1491 -0.00476625 0.00145984)
(20.1497 -0.00406894 0.00143443)
(19.9999 -0.000869743 0.000214661)
(19.9992 -0.00285764 0.00069472)
(19.9978 -0.00566666 0.00127856)
(19.9959 -0.0101399 0.00204242)
(19.9942 -0.0174773 0.00308051)
(19.9938 -0.0294205 0.00450526)
(19.9972 -0.0483213 0.0064384)
(20.0088 -0.0767008 0.0089853)
(20.036 -0.115676 0.0121016)
(20.0875 -0.159823 0.0153681)
(20.1716 -0.19646 0.0180268)
(20.2789 -0.188352 0.0184168)
(20.3669 -0.123772 0.0161165)
(20.394 -0.0366122 0.0106324)
(20.3599 0.0290104 0.00476082)
(20.2995 0.0549051 0.000881306)
(20.2459 0.0521373 -0.000590088)
(20.2098 0.0391559 -0.000656169)
(20.1868 0.0252099 -0.000233881)
(20.1718 0.0130769 0.000338583)
(20.163 0.00446168 0.00093554)
(20.1581 -0.00039565 0.00143835)
(20.1548 -0.00326101 0.00180708)
(20.1518 -0.0059323 0.00209808)
(20.1497 -0.00873423 0.00233507)
(20.1488 -0.0110237 0.00250852)
(20.1489 -0.0123257 0.00257393)
(20.1493 -0.0127175 0.00256899)
(20.15 -0.0125349 0.00247312)
(20.1503 -0.011829 0.0023783)
(19.9999 -0.00110422 0.000224634)
(19.9988 -0.00363853 0.000731438)
(19.9965 -0.00725462 0.00135775)
(19.993 -0.0130931 0.00220001)
(19.9886 -0.0228523 0.00338788)
(19.9839 -0.039146 0.00509572)
(19.9812 -0.0658329 0.00754496)
(19.9851 -0.107723 0.011004)
(20.0058 -0.168749 0.01561)
(20.0574 -0.243076 0.0208809)
(20.1606 -0.313093 0.0256381)
(20.3069 -0.301648 0.0269382)
(20.425 -0.192171 0.0243228)
(20.4518 -0.0515913 0.0160442)
(20.3941 0.0498109 0.00711083)
(20.3078 0.0852308 0.00162138)
(20.2396 0.0771944 -4.77398e-05)
(20.1994 0.05626 0.000370346)
(20.1767 0.0346452 0.0015515)
(20.164 0.0154259 0.00292278)
(20.1582 0.00155252 0.00409102)
(20.1558 -0.00616329 0.00481476)
(20.1534 -0.010141 0.00518441)
(20.1505 -0.0130077 0.00545271)
(20.1483 -0.0155284 0.00573628)
(20.1478 -0.0172922 0.00599678)
(20.1485 -0.018046 0.00613921)
(20.1493 -0.0178608 0.00618142)
(20.1502 -0.0171521 0.00610935)
(20.1516 -0.0153164 0.00599671)
(19.9998 -0.00123367 0.000236252)
(19.9983 -0.00407825 0.000775022)
(19.9949 -0.00818695 0.00145532)
(19.9893 -0.0149378 0.00239717)
(19.9813 -0.026496 0.00377895)
(19.9707 -0.0464457 0.00586958)
(19.9589 -0.0806329 0.00905629)
(19.9499 -0.137613 0.0139034)
(19.9575 -0.227195 0.020905)
(20.0038 -0.347406 0.0297566)
(20.1378 -0.4795 0.0381015)
(20.3525 -0.467521 0.0412328)
(20.5191 -0.287368 0.0374973)
(20.5405 -0.0656693 0.0239564)
(20.4429 0.0839337 0.00983383)
(20.3167 0.121033 0.00232502)
(20.2293 0.0959931 0.000725209)
(20.1849 0.0608022 0.00149091)
(20.1629 0.0302793 0.00301076)
(20.1526 0.00524709 0.00493533)
(20.1507 -0.0125419 0.0067033)
(20.1518 -0.0233545 0.00779716)
(20.1513 -0.0301513 0.00830726)
(20.1493 -0.035169 0.00858627)
(20.1478 -0.0387514 0.0088319)
(20.148 -0.0407417 0.00903241)
(20.1493 -0.0416112 0.00911418)
(20.1506 -0.0417569 0.00911436)
(20.1521 -0.0416468 0.0090228)
(20.1531 -0.0401948 0.0089116)
(19.9998 -0.00124065 0.00024883)
(19.9977 -0.00411608 0.00082172)
(19.9931 -0.00832679 0.00156536)
(19.9851 -0.0153862 0.0026264)
(19.9727 -0.0278151 0.00423928)
(19.9545 -0.0501344 0.00680261)
(19.9297 -0.0905935 0.0109666)
(19.9005 -0.16344 0.017776)
(19.883 -0.289568 0.0285233)
(19.9091 -0.481218 0.0429012)
(20.0916 -0.72538 0.0573735)
(20.4236 -0.710975 0.0674257)
(20.6652 -0.434301 0.0659672)
(20.6705 -0.0841503 0.044093)
(20.5012 0.14551 0.0204502)
(20.31 0.180745 0.00942888)
(20.1984 0.127571 0.00951978)
(20.1548 0.0687661 0.0134474)
(20.1383 0.0234728 0.0175341)
(20.1333 -0.00818303 0.0210613)
(20.1364 -0.0271156 0.0236824)
(20.1411 -0.037892 0.0252171)
(20.1429 -0.0455102 0.0259659)
(20.1428 -0.0512441 0.0263065)
(20.1434 -0.0540925 0.0263819)
(20.1455 -0.053795 0.0262016)
(20.1482 -0.0518093 0.0258103)
(20.1507 -0.0489544 0.0253436)
(20.1524 -0.0470636 0.0248568)
(20.1581 -0.0412192 0.0240571)
(19.9997 -0.00111884 0.000261044)
(19.9971 -0.00372626 0.000867146)
(19.9912 -0.00760026 0.00166955)
(19.9807 -0.0142314 0.00286252)
(19.9635 -0.0262548 0.00474117)
(19.9361 -0.0488086 0.00784908)
(19.8941 -0.0923075 0.0132057)
(19.8344 -0.178663 0.0225879)
(19.7692 -0.346281 0.0382975)
(19.7502 -0.661062 0.0619496)
(19.9864 -1.10461 0.0813207)
(20.5078 -1.03406 0.111976)
(20.8794 -0.666708 0.130862)
(20.8753 -0.125827 0.0943722)
(20.5884 0.20123 0.0611484)
(20.2921 0.200579 0.0436309)
(20.1482 0.0994975 0.0388454)
(20.1093 0.0113929 0.0410577)
(20.1084 -0.0495311 0.0463279)
(20.1223 -0.0863456 0.0525021)
(20.1426 -0.104001 0.0582247)
(20.1596 -0.113527 0.0630636)
(20.1694 -0.122858 0.067374)
(20.1754 -0.131908 0.0711376)
(20.1807 -0.137619 0.0740945)
(20.1849 -0.138743 0.0761323)
(20.1876 -0.137527 0.0774446)
(20.1873 -0.133655 0.078383)
(20.1874 -0.133682 0.0789409)
(20.186 -0.124875 0.0791641)
(19.9997 -0.000875571 0.000271455)
(19.9966 -0.00292604 0.000907425)
(19.9896 -0.00602478 0.00175984)
(19.9767 -0.0114323 0.00306371)
(19.9548 -0.0215401 0.00520141)
(19.9176 -0.0411882 0.00894464)
(19.8548 -0.0817706 0.0156022)
(19.7517 -0.170122 0.0285649)
(19.5985 -0.368817 0.0478621)
(19.4601 -0.847548 0.0912202)
(19.7034 -1.21579 0.0317434)
(20.5271 -1.66239 0.0236895)
(21.221 -1.06325 0.130769)
(21.3625 -0.252821 0.0715035)
(20.7686 0.343289 0.211009)
(20.2646 0.276229 0.216669)
(20.0894 0.0787826 0.23764)
(20.0548 -0.0757981 0.2562)
(20.0291 -0.169414 0.267838)
(19.9832 -0.211823 0.27162)
(19.9146 -0.219197 0.268291)
(19.824 -0.213966 0.260313)
(19.7212 -0.210221 0.250499)
(19.6197 -0.209175 0.23989)
(19.5268 -0.207174 0.228697)
(19.4417 -0.202599 0.217187)
(19.3657 -0.196492 0.206257)
(19.2875 -0.190076 0.195423)
(19.236 -0.183273 0.188035)
(19.1339 -0.17888 0.174274)
(19.9996 -0.000532485 0.000279134)
(19.9962 -0.00178537 0.000936429)
(19.9883 -0.00372308 0.00182888)
(19.9736 -0.0071804 0.00321309)
(19.9479 -0.0138541 0.00553631)
(19.902 -0.0271096 0.00983691)
(19.8197 -0.056348 0.0177983)
(19.6614 -0.123451 0.0345665)
(19.3826 -0.304847 0.0591115)
(18.9024 -0.812379 0.111241)
(19.0473 -1.62123 0.00336588)
(20.6232 -2.62166 0.172285)
(21.5224 -2.85475 0.54915)
(22.4853 -1.20584 0.453735)
(18.3468 -0.108089 0.566808)
(17.4469 -0.226227 0.439789)
(16.8921 -0.476521 0.358825)
(16.4939 -0.694725 0.277327)
(16.1437 -0.83708 0.191537)
(15.8355 -0.89933 0.108256)
(15.5694 -0.901716 0.0344186)
(15.3398 -0.877476 -0.0250354)
(15.1543 -0.848813 -0.068628)
(15.0228 -0.821035 -0.0990802)
(14.9427 -0.792149 -0.120022)
(14.8997 -0.76166 -0.133922)
(14.8836 -0.729081 -0.142431)
(14.8802 -0.699237 -0.145778)
(14.8977 -0.660877 -0.148888)
(14.9105 -0.618774 -0.144725)
(19.9996 -0.000124309 0.000283084)
(19.996 -0.000425651 0.000951068)
(19.9877 -0.000953618 0.00186262)
(19.9719 -0.00200156 0.00328666)
(19.9442 -0.00418126 0.00570372)
(19.8933 -0.00875854 0.0102446)
(19.799 -0.0194343 0.0188884)
(19.6019 -0.045009 0.0386893)
(19.2055 -0.12127 0.066821)
(18.2801 -0.355122 0.125414)
(17.7066 -1.18456 -0.196777)
(20.4589 -3.35872 -0.406768)
(20.114 -7.64168 0.532453)
(3.40345 -2.31527 1.06343)
(0.172445 1.38218 -1.96477)
(2.89617 0.788891 -2.11556)
(5.53959 0.326173 -1.84211)
(7.51754 0.0529514 -1.54903)
(8.88141 -0.123392 -1.31937)
(9.87304 -0.224548 -1.1545)
(10.6211 -0.269038 -1.03536)
(11.1967 -0.28319 -0.942721)
(11.6685 -0.285372 -0.864491)
(12.0875 -0.282345 -0.796316)
(12.4728 -0.275177 -0.737008)
(12.8237 -0.26493 -0.684949)
(13.137 -0.251204 -0.639811)
(13.426 -0.239437 -0.596117)
(13.6512 -0.218374 -0.569679)
(14.0219 -0.194615 -0.517903)
(19.9996 0.000305547 0.000282915)
(19.996 0.00101321 0.000950133)
(19.9877 0.0019975 0.00185862)
(19.972 0.00357577 0.00327686)
(19.9443 0.0063487 0.00568396)
(19.8935 0.0116845 0.0102252)
(19.7992 0.0232314 0.0188803)
(19.6018 0.0496046 0.0387454)
(19.2037 0.125262 0.0669923)
(18.2712 0.353112 0.127273)
(17.3481 0.573183 -0.251086)
(19.6194 0.487218 -0.636651)
(-4.09336 -2.54112 -1.5965)
(-0.913934 -1.48358 -1.78408)
(2.05205 -0.90576 -1.93677)
(5.0566 -0.42714 -1.72769)
(7.18389 -0.127146 -1.49125)
(8.62525 0.0201237 -1.294)
(9.66474 0.0753025 -1.14419)
(10.4348 0.0914347 -1.03035)
(11.0084 0.0995961 -0.939311)
(11.4623 0.110291 -0.862055)
(11.856 0.123678 -0.795157)
(12.2143 0.138034 -0.737509)
(12.5407 0.153084 -0.687449)
(12.8323 0.168647 -0.644602)
(13.1072 0.186101 -0.604133)
(13.3185 0.192961 -0.578632)
(13.695 0.218574 -0.534767)
(19.9996 0.000708864 0.000278296)
(19.9963 0.00236165 0.000935436)
(19.9884 0.00476256 0.00182016)
(19.9738 0.00876713 0.00317689)
(19.9482 0.0161356 0.00549056)
(19.9025 0.0301973 0.00981063)
(19.8202 0.0603904 0.0178129)
(19.6614 0.128463 0.0347392)
(19.3796 0.311094 0.0596613)
(18.89 0.819405 0.114723)
(18.5052 1.62717 -0.0252592)
(20.4302 3.4508 -0.304968)
(21.9015 5.29246 0.341346)
(18.3439 2.76546 0.906879)
(18.8917 0.292508 0.670012)
(18.1639 0.374183 0.454936)
(17.9357 0.588829 0.326345)
(17.8042 0.766302 0.239097)
(17.6578 0.872297 0.169404)
(17.5045 0.908277 0.111161)
(17.335 0.896774 0.0628535)
(17.1391 0.86755 0.0244551)
(16.9286 0.83807 -0.00394368)
(16.72 0.811287 -0.0246369)
(16.5244 0.785495 -0.0396623)
(16.3398 0.76085 -0.0507891)
(16.1649 0.737774 -0.0591441)
(15.9967 0.719495 -0.0660203)
(15.858 0.693697 -0.0701861)
(15.6589 0.677806 -0.084354)
(19.9997 0.0010435 0.000270394)
(19.9967 0.00347256 0.00090436)
(19.9897 0.00699939 0.00175115)
(19.977 0.012904 0.00303853)
(19.9553 0.0236061 0.0051756)
(19.9184 0.0439946 0.00893967)
(19.8557 0.0855805 0.0156345)
(19.7527 0.175327 0.0287624)
(19.5978 0.376747 0.0484072)
(19.4581 0.861978 0.0937535)
(19.4232 1.38061 0.0448951)
(20.6136 2.20803 0.0892435)
(21.5074 1.57625 0.319174)
(21.6891 0.427291 0.280392)
(20.7846 -0.384839 0.274012)
(20.2703 -0.363088 0.265074)
(20.0851 -0.229326 0.265122)
(20.0483 -0.106438 0.263297)
(20.0484 -0.0072924 0.257486)
(20.0605 0.0618046 0.249633)
(20.0671 0.105662 0.240849)
(20.0507 0.141429 0.232145)
(20.0089 0.180879 0.224503)
(19.9506 0.223331 0.217641)
(19.8806 0.264168 0.211102)
(19.7967 0.300977 0.204676)
(19.6998 0.333754 0.198358)
(19.5826 0.362638 0.191876)
(19.4791 0.387323 0.186703)
(19.2811 0.415568 0.174483)
(19.9997 0.00127275 0.000260132)
(19.9972 0.00422788 0.000863266)
(19.9914 0.00849937 0.00166273)
(19.9811 0.0156004 0.00285373)
(19.9642 0.0282037 0.0047327)
(19.9372 0.0515013 0.00784544)
(19.8956 0.0960083 0.0132225)
(19.8365 0.183896 0.0226969)
(19.7718 0.354435 0.038652)
(19.755 0.675022 0.0629835)
(19.9948 1.13213 0.0839)
(20.5498 1.06755 0.113972)
(20.9556 0.636332 0.125412)
(20.9312 0.081991 0.0928671)
(20.606 -0.249784 0.0635256)
(20.2909 -0.258359 0.0395787)
(20.1426 -0.177287 0.0231591)
(20.0958 -0.101569 0.0141257)
(20.079 -0.0381281 0.0112952)
(20.0779 0.00759886 0.0133169)
(20.088 0.033637 0.0184574)
(20.0984 0.0504409 0.0251337)
(20.1051 0.068134 0.0329597)
(20.1128 0.0883547 0.0413072)
(20.1253 0.108376 0.0497163)
(20.1412 0.126111 0.0577953)
(20.1572 0.142539 0.0651813)
(20.1701 0.157028 0.0719931)
(20.1821 0.174989 0.0775042)
(20.1939 0.189172 0.0844217)
(19.9998 0.00137671 0.000247759)
(19.9978 0.00456076 0.000818176)
(19.9933 0.00912576 0.00155883)
(19.9856 0.0166052 0.00261549)
(19.9736 0.0295505 0.00422313)
(19.9559 0.0525372 0.00678369)
(19.9318 0.0938912 0.0109566)
(19.9037 0.168112 0.0178006)
(19.8878 0.296323 0.0286737)
(19.917 0.491605 0.0432282)
(20.105 0.740195 0.0581739)
(20.4561 0.729011 0.0681279)
(20.718 0.415914 0.0624408)
(20.7154 0.0328235 0.0388456)
(20.5197 -0.204868 0.0163239)
(20.3117 -0.238109 0.00408933)
(20.198 -0.185155 0.00224646)
(20.1546 -0.124274 0.00547238)
(20.1343 -0.069606 0.0098564)
(20.1244 -0.0253782 0.0138569)
(20.1228 0.00457982 0.0166708)
(20.1228 0.0247441 0.0182042)
(20.1195 0.0422667 0.0191743)
(20.1149 0.0596501 0.0200813)
(20.1125 0.0753667 0.0211023)
(20.1132 0.0878505 0.0222105)
(20.1157 0.0979294 0.0233283)
(20.1194 0.106099 0.0244695)
(20.1229 0.114862 0.0256723)
(20.1357 0.121074 0.0273435)
(19.9998 0.00134848 0.00023505)
(19.9984 0.00445412 0.000770902)
(19.9952 0.00886365 0.00144714)
(19.9899 0.015973 0.00238371)
(19.9823 0.0279741 0.00375897)
(19.9724 0.0484904 0.00584253)
(19.9614 0.083421 0.00902286)
(19.9539 0.141422 0.0138701)
(19.9634 0.232342 0.0208826)
(20.0128 0.354307 0.0297685)
(20.1518 0.487478 0.0381178)
(20.3771 0.47507 0.040847)
(20.5556 0.275615 0.0349577)
(20.5746 0.0304891 0.0194846)
(20.4612 -0.126271 0.00485488)
(20.3216 -0.158978 -0.0029504)
(20.2299 -0.130572 -0.00496399)
(20.1842 -0.0958991 -0.00477633)
(20.1578 -0.0661814 -0.00412469)
(20.1413 -0.0412851 -0.00311736)
(20.134 -0.0235677 -0.00179906)
(20.1313 -0.0119418 -0.00040392)
(20.1281 -0.00221247 0.00112571)
(20.1241 0.00796711 0.00281229)
(20.1213 0.0179659 0.00461838)
(20.1206 0.0265416 0.00641962)
(20.1211 0.0339062 0.00810521)
(20.1225 0.0405469 0.00958978)
(20.1233 0.0467997 0.0109737)
(20.1283 0.0541402 0.0124245)
(19.9999 0.00119476 0.000223279)
(19.9989 0.00393588 0.000726717)
(19.9968 0.0077918 0.0013485)
(19.9937 0.0139172 0.00218464)
(19.9897 0.0240296 0.00336402)
(19.9858 0.0407681 0.00505975)
(19.9841 0.0680139 0.00749222)
(19.9895 0.110609 0.0109272)
(20.0122 0.172427 0.0154966)
(20.0668 0.247575 0.0207065)
(20.1742 0.317606 0.0253347)
(20.3268 0.304329 0.0263012)
(20.4519 0.184343 0.0226705)
(20.4782 0.0293092 0.0130461)
(20.4109 -0.0786882 0.00339236)
(20.3142 -0.112294 -0.00232628)
(20.2408 -0.101816 -0.0041712)
(20.1982 -0.0811556 -0.00403592)
(20.1722 -0.0598131 -0.00311572)
(20.1551 -0.0385536 -0.00173903)
(20.1458 -0.020464 -0.000185004)
(20.1411 -0.0071011 0.00118843)
(20.137 0.00329846 0.00226586)
(20.1325 0.0127138 0.00316016)
(20.1288 0.02136 0.00400838)
(20.1269 0.0286024 0.00483266)
(20.1265 0.0345081 0.00563978)
(20.1272 0.0393479 0.00630935)
(20.1277 0.0434733 0.006974)
(20.1293 0.0475638 0.00761541)
(19.9999 0.000934051 0.000213178)
(19.9993 0.00306948 0.000689518)
(19.9982 0.00605066 0.0012683)
(19.9967 0.0107308 0.00202514)
(19.9955 0.0183223 0.00305301)
(19.9958 0.0305813 0.00446237)
(20.0003 0.0498657 0.0063721)
(20.0134 0.0786954 0.00888255)
(20.0426 0.118116 0.0119371)
(20.0969 0.162595 0.0151026)
(20.1844 0.198854 0.0175878)
(20.296 0.189032 0.0176726)
(20.3883 0.118705 0.014766)
(20.4153 0.0230345 0.0084154)
(20.3752 -0.047691 0.00189227)
(20.3067 -0.073412 -0.00228546)
(20.2476 -0.0691254 -0.00386813)
(20.2085 -0.0559826 -0.00396698)
(20.1826 -0.042045 -0.00348687)
(20.1642 -0.0285792 -0.00273259)
(20.1522 -0.0175993 -0.00184995)
(20.145 -0.0103175 -0.00101481)
(20.1396 -0.00546122 -0.000282349)
(20.1347 -0.00118702 0.000426768)
(20.1307 0.00312911 0.0012016)
(20.1286 0.00712124 0.00201784)
(20.1279 0.0105738 0.00286073)
(20.1285 0.0134604 0.00354939)
(20.1288 0.0158023 0.00421301)
(20.1308 0.0184971 0.00483785)
(20 0.000593062 0.000205388)
(19.9996 0.00194564 0.000662117)
(19.9991 0.00382425 0.00120997)
(19.9987 0.00675048 0.00191091)
(19.9993 0.0114407 0.00283523)
(20.0024 0.0188893 0.00405544)
(20.0106 0.030336 0.00563482)
(20.028 0.0469501 0.00758817)
(20.0602 0.068762 0.00978118)
(20.1129 0.0921824 0.0118585)
(20.1885 0.109479 0.0132409)
(20.2776 0.103098 0.0129947)
(20.351 0.0657776 0.0105909)
(20.3775 0.0140328 0.00611702)
(20.3525 -0.0254473 0.00142756)
(20.3007 -0.0410956 -0.00183084)
(20.2507 -0.039958 -0.0032842)
(20.2139 -0.0333168 -0.0035505)
(20.1881 -0.0259658 -0.00328512)
(20.1693 -0.0186127 -0.00275283)
(20.1563 -0.0121906 -0.00205564)
(20.148 -0.00744636 -0.00132153)
(20.1422 -0.00381988 -0.000638854)
(20.1374 -0.000333956 -1.35385e-05)
(20.1336 0.00330952 0.000598395)
(20.1313 0.00673959 0.00116816)
(20.1302 0.00962583 0.00171834)
(20.1304 0.0118191 0.00210495)
(20.1304 0.0133763 0.00250961)
(20.131 0.0148591 0.00278133)
(20 0.000203091 0.000201644)
(19.9998 0.000666034 0.000648946)
(19.9996 0.00130765 0.00118213)
(19.9997 0.00230335 0.00185681)
(20.0013 0.00388957 0.00273262)
(20.0057 0.00638739 0.00386507)
(20.0156 0.0101786 0.00529112)
(20.0349 0.0156045 0.00698633)
(20.0683 0.0225806 0.00879323)
(20.1199 0.0298829 0.010399)
(20.1899 0.0349771 0.0113365)
(20.2689 0.0327445 0.010962)
(20.3338 0.0210622 0.00880789)
(20.3598 0.00479076 0.00518029)
(20.3414 -0.00785258 0.00131691)
(20.2973 -0.0131289 -0.00151191)
(20.2516 -0.0130291 -0.00288354)
(20.2162 -0.0110086 -0.00320147)
(20.1906 -0.00862342 -0.00301565)
(20.1717 -0.00614863 -0.002584)
(20.1582 -0.00392061 -0.00199263)
(20.1493 -0.00225093 -0.00134141)
(20.1432 -0.00102329 -0.00072294)
(20.1383 5.72325e-05 -0.000165678)
(20.1344 0.00109073 0.000368209)
(20.1319 0.0019591 0.00085891)
(20.1306 0.00255746 0.00136988)
(20.1306 0.00284426 0.00174275)
(20.1304 0.00292728 0.00221008)
(20.1317 0.00289546 0.00251208)
(20 -0.000190871 0.000613099)
(19.9997 -0.000619263 0.00192318)
(19.9993 -0.00121593 0.00346109)
(19.9992 -0.00214979 0.00540374)
(20.0004 -0.00364719 0.00793773)
(20.0042 -0.00601347 0.011251)
(20.0133 -0.00961284 0.015474)
(20.0313 -0.0147459 0.0206343)
(20.0628 -0.0213612 0.0264167)
(20.1118 -0.0283345 0.0318454)
(20.1785 -0.0331802 0.0353291)
(20.2538 -0.0312972 0.0348896)
(20.3158 -0.0208898 0.0294319)
(20.3417 -0.00669274 0.0202765)
(20.3277 0.00427709 0.010919)
(20.2909 0.00908548 0.0045271)
(20.2519 0.00927348 0.00167894)
(20.2211 0.00756643 0.00110923)
(20.1989 0.00545852 0.00158403)
(20.1833 0.0034263 0.00246823)
(20.1731 0.00175631 0.00344139)
(20.1669 0.000603961 0.00419897)
(20.163 -0.000150988 0.00457568)
(20.1599 -0.000704882 0.00467078)
(20.1574 -0.00109943 0.00467928)
(20.1558 -0.00127473 0.00469714)
(20.1553 -0.00122894 0.0046165)
(20.1552 -0.00106485 0.00448482)
(20.1558 -0.000901479 0.00414486)
(20.1564 -0.000790702 0.00387043)
(19.9999 -0.000553734 0.00062332)
(19.9995 -0.00179911 0.00195924)
(19.9989 -0.00354053 0.00353779)
(19.9982 -0.00627927 0.00555279)
(19.9985 -0.0106992 0.00821982)
(20.0011 -0.0177461 0.0117728)
(20.0085 -0.0285991 0.0164156)
(20.0247 -0.0442978 0.0222575)
(20.0551 -0.0649398 0.0290739)
(20.1051 -0.0872317 0.0358632)
(20.1769 -0.103627 0.040777)
(20.2614 -0.0983107 0.0409982)
(20.331 -0.0650123 0.034859)
(20.3572 -0.0199378 0.0240464)
(20.3375 0.0142555 0.0130488)
(20.2941 0.0285318 0.00585807)
(20.2511 0.028286 0.00294025)
(20.2187 0.0224899 0.00255582)
(20.1962 0.0158672 0.00323865)
(20.1807 0.00980358 0.00434673)
(20.1708 0.00506756 0.00555796)
(20.1651 0.00191466 0.00651473)
(20.1614 -0.000264171 0.00701777)
(20.1584 -0.00214225 0.00717109)
(20.1561 -0.00377461 0.00713233)
(20.1547 -0.0048463 0.00699092)
(20.1543 -0.00518802 0.00670072)
(20.1542 -0.00498668 0.00636258)
(20.1547 -0.00454933 0.00590034)
(20.1553 -0.0039722 0.00541957)
(19.9999 -0.0008657 0.000643667)
(19.9993 -0.0028194 0.00203192)
(19.998 -0.00557019 0.00369329)
(19.9963 -0.00993665 0.00585595)
(19.9948 -0.017074 0.00879542)
(19.9948 -0.0286463 0.0128449)
(19.9987 -0.0468973 0.018376)
(20.0108 -0.074084 0.0256865)
(20.0384 -0.111242 0.0347643)
(20.0898 -0.153331 0.0446575)
(20.1727 -0.187453 0.0528439)
(20.278 -0.179057 0.0545084)
(20.3642 -0.116209 0.0467717)
(20.3906 -0.0331533 0.0322207)
(20.3581 0.0282408 0.017391)
(20.3005 0.051996 0.00837891)
(20.2494 0.0492095 0.0054077)
(20.2146 0.0371221 0.00557399)
(20.1921 0.0242881 0.00670624)
(20.1774 0.0132075 0.00802672)
(20.1688 0.00534525 0.00920764)
(20.164 0.000845558 0.00995113)
(20.1607 -0.00187509 0.0102572)
(20.1577 -0.00439047 0.0103485)
(20.1556 -0.00696785 0.010305)
(20.1547 -0.00901296 0.0100862)
(20.1548 -0.0101297 0.00960177)
(20.1551 -0.0104242 0.00898426)
(20.1558 -0.0101842 0.00823263)
(20.1561 -0.00957526 0.00736289)
(19.9999 -0.00109904 0.000671603)
(19.9989 -0.00358925 0.00213271)
(19.9967 -0.00712824 0.00391077)
(19.9934 -0.0128235 0.00628559)
(19.9894 -0.0223082 0.00962634)
(19.9853 -0.0380718 0.0144284)
(19.9834 -0.0637859 0.0213562)
(19.9883 -0.103809 0.0310912)
(20.0098 -0.161793 0.0441224)
(20.0615 -0.232441 0.0597766)
(20.1629 -0.297666 0.0738211)
(20.3058 -0.2848 0.0780944)
(20.4207 -0.177218 0.0679806)
(20.4461 -0.0437324 0.0469655)
(20.391 0.0505129 0.0252536)
(20.3091 0.0829037 0.0129524)
(20.2446 0.0750313 0.00991689)
(20.2062 0.0550406 0.0112543)
(20.1843 0.0345622 0.0137774)
(20.1718 0.0167416 0.0162747)
(20.1658 0.00415647 0.0179613)
(20.1631 -0.00277548 0.0184204)
(20.1606 -0.00641136 0.0181044)
(20.1576 -0.00911424 0.0176814)
(20.1555 -0.011497 0.017352)
(20.155 -0.0131441 0.0169715)
(20.1556 -0.0138242 0.0163344)
(20.1563 -0.0136308 0.0155376)
(20.1571 -0.012905 0.0146184)
(20.1583 -0.0113344 0.0134634)
(19.9998 -0.00122761 0.000705985)
(19.9983 -0.00402321 0.00225108)
(19.9951 -0.00804289 0.00416976)
(19.9899 -0.0146186 0.00681203)
(19.9823 -0.0258355 0.0106724)
(19.9726 -0.0450979 0.0164873)
(19.962 -0.0779429 0.0253985)
(19.9549 -0.13218 0.0387663)
(19.9641 -0.217019 0.0582131)
(20.011 -0.330815 0.0832976)
(20.1424 -0.454248 0.107822)
(20.3524 -0.437154 0.118285)
(20.5122 -0.255178 0.105636)
(20.5309 -0.0460747 0.0728567)
(20.4379 0.0905987 0.0389001)
(20.3191 0.123339 0.0212753)
(20.2365 0.10062 0.0179686)
(20.1942 0.0690458 0.0199128)
(20.1729 0.0413417 0.0229919)
(20.163 0.0184669 0.026228)
(20.1608 0.00225577 0.028354)
(20.1614 -0.00754739 0.0284979)
(20.1605 -0.0137528 0.02726)
(20.1583 -0.018522 0.0257131)
(20.1567 -0.0221401 0.0242341)
(20.1568 -0.024399 0.0227421)
(20.1579 -0.0256301 0.0210762)
(20.159 -0.0261487 0.0193475)
(20.1603 -0.0262845 0.0176989)
(20.1606 -0.0254834 0.0157179)
(19.9998 -0.00123481 0.000742872)
(19.9978 -0.00405453 0.0023801)
(19.9934 -0.00817464 0.00443953)
(19.9858 -0.0150509 0.0073749)
(19.9741 -0.0270839 0.0118469)
(19.957 -0.0485827 0.0189165)
(19.9342 -0.0873106 0.0304232)
(19.9081 -0.156458 0.0490341)
(19.8939 -0.275482 0.0780283)
(19.9215 -0.456046 0.118399)
(20.102 -0.692504 0.163799)
(20.429 -0.657917 0.191162)
(20.6602 -0.368224 0.178652)
(20.6581 -0.0415725 0.123633)
(20.4974 0.170709 0.067371)
(20.3201 0.197267 0.0414867)
(20.2172 0.142093 0.0406254)
(20.1759 0.0851168 0.0470542)
(20.1593 0.0428316 0.0531294)
(20.1537 0.0137989 0.0578323)
(20.1556 -0.00330852 0.0603397)
(20.159 -0.0126598 0.060178)
(20.1595 -0.0187694 0.0585292)
(20.1581 -0.0231071 0.0563837)
(20.1575 -0.0250357 0.0540315)
(20.1584 -0.0243891 0.0514113)
(20.16 -0.0224063 0.0486116)
(20.1614 -0.0197925 0.0458408)
(20.1625 -0.0179631 0.0434804)
(20.1662 -0.0138017 0.0400753)
(19.9997 -0.00111285 0.000777818)
(19.9972 -0.00367116 0.00250899)
(19.9916 -0.00744696 0.00471322)
(19.9815 -0.0139109 0.00790806)
(19.9652 -0.0255593 0.0130058)
(19.9395 -0.0471926 0.0214877)
(19.9004 -0.08861 0.0361608)
(19.8455 -0.170298 0.0618343)
(19.7869 -0.328279 0.104653)
(19.7694 -0.627827 0.169787)
(20.0089 -1.08103 0.254023)
(20.5338 -0.922586 0.32844)
(20.8799 -0.518149 0.335331)
(20.8575 -0.0460174 0.239215)
(20.5859 0.267246 0.143704)
(20.3078 0.284877 0.0998701)
(20.1758 0.197124 0.0915289)
(20.1416 0.113264 0.0946353)
(20.1374 0.0518632 0.0985267)
(20.1429 0.0117227 0.100117)
(20.153 -0.0110256 0.0980275)
(20.1608 -0.0256712 0.0934112)
(20.1636 -0.0389271 0.0883772)
(20.1643 -0.0510334 0.0834146)
(20.1658 -0.059569 0.0781671)
(20.1679 -0.0635511 0.0724489)
(20.1697 -0.064885 0.0667482)
(20.1698 -0.0637135 0.061544)
(20.1711 -0.0647834 0.0576109)
(20.168 -0.0595672 0.0522613)
(19.9997 -0.000870745 0.000808344)
(19.9967 -0.00287943 0.0026191)
(19.9899 -0.0059041 0.00497137)
(19.9777 -0.0111437 0.00840986)
(19.9569 -0.0209372 0.0140217)
(19.922 -0.039912 0.0236337)
(19.8633 -0.0784424 0.0416647)
(19.7671 -0.161945 0.0755631)
(19.6247 -0.347108 0.136484)
(19.4785 -0.830555 0.239423)
(19.5889 -1.42738 0.276496)
(20.4751 -1.87841 0.391893)
(21.1102 -0.930558 0.631397)
(21.1549 -0.258699 0.546878)
(20.6619 0.51001 0.368492)
(20.2297 0.395903 0.328037)
(20.0705 0.225126 0.340972)
(20.0525 0.107188 0.356326)
(20.0669 0.0422364 0.365051)
(20.0853 0.0197417 0.366941)
(20.0982 0.0257255 0.36319)
(20.0983 0.0406252 0.356336)
(20.0876 0.0520092 0.350003)
(20.0733 0.0586028 0.3438)
(20.0597 0.0636589 0.336299)
(20.0452 0.0691195 0.327041)
(20.0299 0.0740417 0.317512)
(20.0076 0.0789432 0.306929)
(19.9931 0.0800226 0.300783)
(19.9542 0.0813138 0.287502)
(19.9996 -0.00052871 0.000830834)
(19.9963 -0.00175525 0.00270002)
(19.9887 -0.0036423 0.00515445)
(19.9747 -0.00700115 0.00882395)
(19.9503 -0.0134479 0.0148773)
(19.9074 -0.0260481 0.0253644)
(19.8305 -0.0538158 0.0460525)
(19.6823 -0.117437 0.0869718)
(19.4124 -0.288074 0.165934)
(18.8665 -0.807587 0.319388)
(18.6655 -2.03454 0.321331)
(20.3192 -3.52707 0.251588)
(21.3657 -1.44208 1.55904)
(21.6796 -0.606109 1.56546)
(20.1859 1.54692 0.664818)
(19.6451 1.10221 0.561009)
(19.4493 0.665638 0.606985)
(19.3519 0.352507 0.645915)
(19.237 0.145624 0.642623)
(19.1062 0.0251689 0.605502)
(18.9659 -0.0325232 0.550673)
(18.82 -0.0563466 0.493339)
(18.6816 -0.066477 0.443191)
(18.5634 -0.0698946 0.400525)
(18.4686 -0.06735 0.362934)
(18.3902 -0.0598462 0.329248)
(18.3245 -0.0489367 0.299992)
(18.2562 -0.0376481 0.27391)
(18.2175 -0.0226228 0.25352)
(18.0967 -0.00925063 0.226285)
(19.9996 -0.000121995 0.000842401)
(19.9961 -0.000412721 0.00274398)
(19.9881 -0.000920154 0.00525157)
(19.9731 -0.00192694 0.0090434)
(19.9467 -0.00399965 0.0153995)
(19.8991 -0.00832897 0.026706)
(19.8113 -0.0182737 0.0490074)
(19.6279 -0.0409747 0.0943315)
(19.2334 -0.113517 0.183832)
(18.1059 -0.361909 0.366605)
(16.1947 -1.61114 0.0664264)
(18.8246 -11.6056 -4.10215)
(14.6588 -8.28884 13.4043)
(9.91485 -3.35304 -2.14135)
(9.28324 2.54313 -1.5547)
(11.5258 2.04853 -1.78825)
(13.2864 1.5714 -1.59154)
(14.5728 1.23157 -1.34256)
(15.469 0.990425 -1.14873)
(16.1134 0.825505 -1.02358)
(16.5848 0.717289 -0.944301)
(16.9282 0.642976 -0.885517)
(17.1877 0.585987 -0.832707)
(17.3981 0.539071 -0.783138)
(17.5752 0.500057 -0.737874)
(17.7207 0.467303 -0.696433)
(17.8369 0.440504 -0.65824)
(17.9219 0.414072 -0.620007)
(17.9917 0.401505 -0.594589)
(18.0312 0.367402 -0.541865)
(19.9996 0.000305864 0.000842079)
(19.9962 0.00100671 0.00274263)
(19.9881 0.00196904 0.00525439)
(19.9731 0.00349032 0.00904526)
(19.9469 0.00618834 0.0153374)
(19.8993 0.0113176 0.0265371)
(19.8115 0.0221843 0.0488191)
(19.628 0.0457729 0.0942736)
(19.2325 0.118386 0.184089)
(18.1013 0.363747 0.370363)
(15.594 0.820283 -0.0227961)
(-1.86475 0.651778 -0.0600815)
(5.8357 -2.16127 -1.79707)
(9.13355 -1.71726 -1.87509)
(11.401 -1.22583 -1.59059)
(12.8789 -0.870973 -1.31703)
(13.8393 -0.645309 -1.12055)
(14.5089 -0.501061 -0.996421)
(14.9924 -0.398729 -0.91834)
(15.3444 -0.314267 -0.860417)
(15.6187 -0.237285 -0.807344)
(15.8567 -0.165133 -0.755727)
(16.0716 -0.0986575 -0.70858)
(16.2632 -0.03803 -0.666332)
(16.43 0.0174705 -0.629242)
(16.576 0.0669427 -0.593314)
(16.6926 0.107742 -0.572294)
(16.8494 0.157136 -0.529689)
(19.9996 0.000708558 0.000830529)
(19.9964 0.00232962 0.00268941)
(19.9888 0.00470742 0.00516736)
(19.9748 0.00862619 0.00883244)
(19.9507 0.0157249 0.0148256)
(19.9078 0.0290887 0.0252546)
(19.831 0.0577864 0.045999)
(19.6826 0.122441 0.0872043)
(19.411 0.29441 0.167309)
(18.8594 0.815537 0.326586)
(17.8114 2.11238 0.272779)
(18.6549 9.79488 -2.93846)
(14.0115 8.14169 9.25742)
(5.65282 1.05646 -1.34076)
(18.6437 -1.76245 0.837116)
(18.3406 -1.28933 0.5515)
(18.3362 -0.824745 0.475599)
(18.3675 -0.488743 0.456955)
(18.3412 -0.265739 0.436613)
(18.2813 -0.131201 0.406179)
(18.1837 -0.0544227 0.369457)
(18.0504 -0.00795291 0.335767)
(17.88 0.0281101 0.30457)
(17.6983 0.0561827 0.274206)
(17.5226 0.077924 0.243652)
(17.359 0.0954122 0.213057)