/*--------------------------------*- C++ -*----------------------------------*\
| =========                 |                                                 |
| \\      /  F ield         | OpenFOAM: The Open Source CFD Toolbox           |
|  \\    /   O peration     | Version:  2512                                  |
|   \\  /    A nd           | Website:  www.openfoam.com                      |
|    \\/     M anipulation  |                                                 |
\*---------------------------------------------------------------------------*/
FoamFile
{
    version     2.0;
    format      ascii;
    arch        "LSB;label=32;scalar=64";
    class       volVectorField;
    location    "140";
    object      U;
}
// * * * * * * * * * * * * * * * * * * * * * * * * * * * * * * * * * * * * * //

dimensions      [0 1 -1 0 0 0 0];

internalField   nonuniform List<vector> 
90398
(
(20.0022 -0.00253239 -0.000881861)
(20.0246 -0.00790366 -0.00321791)
(20.0762 -0.0136765 -0.00598848)
(20.1608 -0.020055 -0.00932211)
(20.2807 -0.0271498 -0.0133117)
(20.4401 -0.0349684 -0.0177919)
(20.6433 -0.043152 -0.0219064)
(20.8907 -0.0509583 -0.025055)
(21.1741 -0.0564756 -0.0256262)
(21.4793 -0.0569823 -0.0207241)
(21.7751 -0.0483473 -0.00587345)
(22.039 -0.0292046 0.00860395)
(22.4863 0.0148685 -0.0779692)
(23.4351 0.0998402 -0.320016)
(24.826 0.191376 -0.592745)
(26.4162 0.261884 -0.791042)
(28.0263 0.309141 -0.902041)
(29.5677 0.338309 -0.948305)
(31.0084 0.354427 -0.955372)
(32.3493 0.362666 -0.941377)
(33.598 0.367457 -0.918036)
(34.7665 0.372142 -0.893035)
(35.8682 0.379108 -0.871468)
(36.9204 0.390018 -0.856746)
(37.9339 0.405487 -0.851353)
(38.9469 0.426003 -0.85744)
(39.9202 0.44855 -0.879182)
(41.096 0.476578 -0.921681)
(41.8766 0.488988 -0.987004)
(44.4386 0.513889 -1.32356)
(20.0022 -0.00752944 -0.000930605)
(20.0243 -0.0235249 -0.00333083)
(20.0754 -0.0407455 -0.00616098)
(20.1591 -0.0598203 -0.00955934)
(20.278 -0.0811664 -0.0135772)
(20.4366 -0.10492 -0.0179512)
(20.6395 -0.13019 -0.0218635)
(20.8882 -0.154926 -0.0245287)
(21.1759 -0.173654 -0.0241885)
(21.4908 -0.176706 -0.018369)
(21.8017 -0.148762 -0.00735074)
(22.1055 -0.0823687 -0.0142124)
(22.5823 0.0499326 -0.105594)
(23.4762 0.279171 -0.310445)
(24.751 0.521822 -0.536184)
(26.2246 0.713373 -0.705581)
(27.7448 0.847537 -0.806538)
(29.2209 0.934085 -0.853228)
(30.6135 0.98405 -0.864559)
(31.9176 1.01052 -0.855133)
(33.1366 1.02545 -0.835163)
(34.2788 1.03819 -0.811689)
(35.3553 1.05564 -0.789558)
(36.3817 1.0826 -0.77184)
(37.3678 1.12123 -0.76158)
(38.3497 1.17319 -0.7608)
(39.2903 1.23149 -0.775062)
(40.4217 1.30309 -0.806692)
(41.1739 1.33733 -0.866278)
(43.6191 1.39468 -1.17075)
(20.0021 -0.0123393 -0.000965525)
(20.0237 -0.0385891 -0.00344347)
(20.0736 -0.0668772 -0.0063685)
(20.1557 -0.0982898 -0.00988481)
(20.2727 -0.133711 -0.0139906)
(20.4296 -0.173549 -0.0183567)
(20.6321 -0.217124 -0.0221928)
(20.8834 -0.2613 -0.0245611)
(21.1801 -0.297339 -0.023425)
(21.5147 -0.307834 -0.0160216)
(21.8603 -0.25798 -0.00873411)
(22.2272 -0.126411 -0.0319448)
(22.7878 0.117473 -0.145919)
(23.6759 0.471578 -0.329338)
(24.8456 0.817027 -0.506346)
(26.1834 1.08569 -0.632697)
(27.5808 1.27835 -0.706931)
(28.9557 1.40596 -0.740867)
(30.2672 1.48102 -0.747621)
(31.5065 1.52098 -0.737504)
(32.6723 1.54278 -0.718371)
(33.7688 1.56011 -0.695913)
(34.8035 1.58331 -0.673818)
(35.789 1.61986 -0.65485)
(36.7334 1.67352 -0.642103)
(37.6692 1.74674 -0.637099)
(38.5616 1.8305 -0.645546)
(39.6274 1.93297 -0.669067)
(40.3361 1.98511 -0.719693)
(42.5951 2.06391 -0.987256)
(20.002 -0.0168454 -0.00101513)
(20.0228 -0.0527013 -0.00361928)
(20.071 -0.0913963 -0.00668795)
(20.1506 -0.134491 -0.0103866)
(20.2644 -0.183466 -0.0146792)
(20.4182 -0.23936 -0.0190996)
(20.6191 -0.302376 -0.0230241)
(20.8724 -0.369483 -0.0250551)
(21.1811 -0.430558 -0.0231498)
(21.5468 -0.460371 -0.0135918)
(21.9504 -0.392699 -0.00733072)
(22.4208 -0.176051 -0.0504078)
(23.0781 0.20573 -0.17479)
(23.9572 0.680645 -0.333503)
(25.0193 1.09252 -0.467508)
(26.2193 1.39442 -0.552814)
(27.4858 1.60894 -0.596851)
(28.7439 1.74961 -0.61261)
(29.9552 1.82953 -0.609749)
(31.1108 1.86976 -0.595393)
(32.2063 1.89055 -0.575306)
(33.2419 1.90791 -0.553573)
(34.2212 1.93414 -0.532415)
(35.1538 1.97792 -0.514059)
(36.0447 2.04372 -0.501169)
(36.9228 2.13456 -0.494563)
(37.7551 2.23916 -0.499396)
(38.7373 2.36824 -0.51709)
(39.3922 2.43437 -0.558638)
(41.4072 2.54248 -0.785049)
(20.0019 -0.0209247 -0.00108085)
(20.0216 -0.0654885 -0.00385237)
(20.0676 -0.113625 -0.00711906)
(20.1437 -0.167372 -0.011017)
(20.2531 -0.22901 -0.0156177)
(20.4016 -0.300506 -0.0204035)
(20.5979 -0.384359 -0.0243599)
(20.8502 -0.479692 -0.0257961)
(21.1711 -0.578001 -0.0222276)
(21.5796 -0.651883 -0.00892089)
(22.0756 -0.58108 0.000611981)
(22.6852 -0.260858 -0.0561749)
(23.4416 0.272116 -0.179667)
(24.2907 0.864933 -0.313873)
(25.2307 1.30351 -0.413956)
(26.2897 1.59214 -0.463065)
(27.4219 1.79451 -0.47707)
(28.5536 1.92417 -0.472026)
(29.6523 1.99161 -0.456091)
(30.7118 2.02055 -0.434751)
(31.7252 2.0338 -0.412372)
(32.6884 2.04827 -0.390947)
(33.6019 2.07662 -0.371549)
(34.4712 2.12801 -0.355616)
(35.2985 2.20638 -0.344429)
(36.1076 2.31449 -0.338217)
(36.8687 2.43872 -0.341311)
(37.7509 2.59197 -0.354831)
(38.3416 2.67232 -0.387844)
(40.0738 2.81636 -0.570995)
(20.0017 -0.0244331 -0.00116038)
(20.0201 -0.0765505 -0.00411327)
(20.0634 -0.132924 -0.00764209)
(20.1352 -0.195872 -0.0118193)
(20.2384 -0.268606 -0.0167259)
(20.3789 -0.354572 -0.021835)
(20.5659 -0.459562 -0.0256909)
(20.8101 -0.589197 -0.0259957)
(21.1351 -0.746584 -0.0185868)
(21.5954 -0.903628 0.0041636)
(22.227 -0.861475 0.0233621)
(23.0275 -0.422521 -0.0292665)
(23.8832 0.302929 -0.141824)
(24.6742 1.04983 -0.255684)
(25.4567 1.49251 -0.331744)
(26.3667 1.71289 -0.351787)
(27.3653 1.84725 -0.342359)
(28.3653 1.92125 -0.321699)
(29.3426 1.94665 -0.295456)
(30.2974 1.94776 -0.26828)
(31.2207 1.9461 -0.243538)
(32.1042 1.95656 -0.22237)
(32.9445 1.9899 -0.205218)
(33.7425 2.05347 -0.192106)
(34.4975 2.14926 -0.18311)
(35.2275 2.27866 -0.1778)
(35.9061 2.42564 -0.179614)
(36.6736 2.60389 -0.189506)
(37.1885 2.70172 -0.214077)
(38.6124 2.8861 -0.354263)
(20.0015 -0.0273165 -0.00125902)
(20.0184 -0.0855226 -0.00444734)
(20.0586 -0.148531 -0.00818875)
(20.1252 -0.21904 -0.0126974)
(20.2209 -0.300763 -0.0180417)
(20.35 -0.398376 -0.0233963)
(20.52 -0.523444 -0.0267536)
(20.7415 -0.689223 -0.0240393)
(21.0477 -0.953413 -0.00789093)
(21.5619 -1.24353 0.0323803)
(22.368 -1.29757 0.0705052)
(23.4834 -0.792845 0.0764584)
(24.545 0.126049 -0.00614829)
(25.2598 1.06448 -0.143477)
(25.7742 1.50689 -0.22367)
(26.4596 1.68705 -0.226504)
(27.2865 1.76385 -0.198852)
(28.1359 1.77035 -0.166527)
(28.9847 1.73503 -0.134321)
(29.8324 1.69277 -0.104761)
(30.665 1.6666 -0.0801032)
(31.4682 1.66892 -0.0607769)
(32.2335 1.70684 -0.0461498)
(32.9573 1.78423 -0.03485)
(33.6349 1.90006 -0.0264368)
(34.2783 2.05306 -0.0205126)
(34.8646 2.22445 -0.0197552)
(35.5048 2.42705 -0.0251146)
(35.9316 2.54477 -0.0406419)
(37.0343 2.76808 -0.13965)
(20.0013 -0.0294705 -0.0013709)
(20.0166 -0.092286 -0.00484817)
(20.0532 -0.160059 -0.00895297)
(20.1141 -0.235392 -0.0135582)
(20.2012 -0.322854 -0.0189088)
(20.3161 -0.42791 -0.0244112)
(20.4605 -0.566041 -0.0270299)
(20.6283 -0.764839 -0.0192563)
(20.8518 -1.14131 0.0155767)
(21.0325 -1.37677 0.0459093)
(21.8977 -1.75352 0.0414826)
(23.1837 -1.63301 0.124581)
(24.5395 -0.640544 0.168069)
(25.2906 0.888891 0.123238)
(25.7896 1.57141 -0.107853)
(26.2169 1.5176 -0.123033)
(26.8703 1.46602 -0.105734)
(27.5754 1.3829 -0.0756875)
(28.316 1.28503 -0.0409488)
(29.076 1.20571 -0.00821704)
(29.8301 1.1641 0.0191528)
(30.5595 1.16743 0.0417823)
(31.2526 1.21857 0.0614603)
(31.9018 1.318 0.0791803)
(32.4994 1.4614 0.094692)
(33.0518 1.64395 0.107706)
(33.5406 1.8436 0.116215)
(34.0495 2.0709 0.119289)
(34.3823 2.20729 0.114343)
(35.1937 2.46791 0.057186)
(20.0011 -0.0308534 -0.00149754)
(20.0147 -0.0965706 -0.00529509)
(20.0479 -0.167191 -0.00985339)
(20.103 -0.245328 -0.0150542)
(20.1812 -0.334704 -0.0206454)
(20.2804 -0.440503 -0.0257945)
(20.3933 -0.578714 -0.0276146)
(20.4778 -0.786519 -0.0130322)
(20.4427 -0.968747 0.0220295)
(20.5454 -1.97607 0.101804)
(21.709 -2.83165 0.177138)
(23.4987 -3.63869 0.568238)
(24.1034 -2.16309 0.23777)
(24.3321 0.805858 -0.0924422)
(22.3607 2.13758 -0.0434711)
(23.1689 1.77714 -0.00478782)
(24.1534 1.45939 0.0157201)
(25.0832 1.18288 0.0318016)
(25.9876 0.953774 0.0516062)
(26.8906 0.790403 0.0741058)
(27.7743 0.697089 0.0969003)
(28.6172 0.669979 0.120514)
(29.403 0.706156 0.144751)
(30.1186 0.803089 0.168155)
(30.7518 0.953735 0.189015)
(31.3033 1.14969 0.206898)
(31.7598 1.36421 0.221407)
(32.1809 1.60416 0.23215)
(32.4424 1.74635 0.240138)
(32.9547 2.0204 0.223395)
(20.0009 -0.0314308 -0.00163766)
(20.013 -0.0983107 -0.00577812)
(20.043 -0.169834 -0.0107889)
(20.0929 -0.247979 -0.0167754)
(20.1637 -0.335389 -0.0235284)
(20.2485 -0.434931 -0.0301515)
(20.3361 -0.55378 -0.0318839)
(20.3058 -0.717429 -0.0137272)
(20.0793 -0.860884 0.0513225)
(19.3712 -1.81032 0.0955392)
(22.0212 -3.78997 0.156851)
(13.6834 -6.65264 0.0919995)
(19.0429 -0.209343 -0.786175)
(19.5873 1.80584 -0.000195307)
(14.9162 0.975473 1.20051)
(16.3362 0.678721 0.801207)
(18.0261 0.420183 0.570366)
(19.6533 0.192645 0.419333)
(21.2585 -0.00234376 0.31655)
(22.8512 -0.143249 0.249332)
(24.3667 -0.217183 0.213073)
(25.742 -0.217569 0.203375)
(26.9397 -0.141346 0.211948)
(27.9435 0.00810335 0.229663)
(28.7512 0.217173 0.249892)
(29.3805 0.468666 0.269581)
(29.8455 0.728697 0.288452)
(30.1921 1.00327 0.305741)
(30.3876 1.16239 0.326194)
(30.5869 1.46309 0.343369)
(20.0008 -0.0312106 -0.00178614)
(20.0114 -0.0975448 -0.00629516)
(20.0386 -0.168008 -0.0117927)
(20.0844 -0.244134 -0.0184631)
(20.1503 -0.326436 -0.0259741)
(20.2293 -0.415206 -0.0337163)
(20.3086 -0.50313 -0.0368112)
(20.2636 -0.580884 -0.0216889)
(19.936 -0.503014 0.0539206)
(18.0265 -0.241085 0.158819)
(13.7064 0.65512 -6.14916)
(20.136 0.477521 -1.10238)
(19.9102 -0.898581 0.389368)
(12.6873 -2.10753 0.49339)
(14.9325 -1.78419 0.172359)
(17.4942 -1.65784 -0.0209095)
(19.848 -1.61423 -0.114187)
(21.9766 -1.59903 -0.126517)
(23.8737 -1.57154 -0.0866008)
(25.4909 -1.49874 -0.0204686)
(26.7978 -1.35946 0.0534245)
(27.8035 -1.14847 0.122198)
(28.5348 -0.873978 0.180107)
(29.0249 -0.55658 0.227581)
(29.3053 -0.218545 0.26773)
(29.4108 0.103547 0.304167)
(29.3659 0.416354 0.336152)
(29.261 0.594721 0.37487)
(28.8664 0.906974 0.421857)
(20.0006 -0.0302253 -0.00193904)
(20.01 -0.094371 -0.00684784)
(20.0349 -0.162076 -0.0128698)
(20.078 -0.234058 -0.0200419)
(20.1415 -0.309717 -0.0284377)
(20.2238 -0.385662 -0.0379403)
(20.3152 -0.444494 -0.0439548)
(20.3587 -0.452877 -0.0391091)
(20.1574 -0.222531 0.0358699)
(19.6483 0.981921 0.177082)
(20.8074 2.58372 0.23312)
(18.4723 5.62549 1.36234)
(18.3602 3.06559 -0.458005)
(18.0797 -0.60118 -0.5603)
(20.9706 -1.81104 -0.358849)
(22.0906 -1.84084 -0.403981)
(23.4621 -1.95639 -0.387307)
(24.7856 -2.074 -0.334559)
(26.0119 -2.14593 -0.251297)
(27.1132 -2.15 -0.155744)
(28.0351 -2.06671 -0.0661602)
(28.7362 -1.88569 0.0120078)
(29.2128 -1.61793 0.0771707)
(29.4813 -1.28682 0.131052)
(29.5623 -0.922713 0.178553)
(29.473 -0.554421 0.223854)
(29.2473 -0.220042 0.270673)
(28.8568 0.0822565 0.316435)
(28.4875 0.251725 0.374333)
(27.5412 0.514649 0.453361)
(20.0005 -0.028522 -0.00209864)
(20.0089 -0.0889506 -0.00740984)
(20.0321 -0.152399 -0.0139179)
(20.0736 -0.219112 -0.0219814)
(20.1377 -0.287005 -0.0321198)
(20.2271 -0.350475 -0.0440732)
(20.3436 -0.388491 -0.0553438)
(20.4709 -0.371939 -0.0558825)
(20.6233 -0.130846 -0.0335649)
(20.541 0.430626 0.0765899)
(21.3484 1.36148 0.139258)
(23.1575 1.65898 0.101753)
(24.7313 0.777497 0.133853)
(25.4678 -0.55687 0.138762)
(25.5841 -1.52194 -0.0743084)
(25.8123 -1.75017 -0.138066)
(26.348 -2.01594 -0.160304)
(26.9751 -2.25647 -0.157773)
(27.6253 -2.41132 -0.128899)
(28.2433 -2.45038 -0.0856491)
(28.7549 -2.35921 -0.0429284)
(29.1147 -2.14559 -0.00352055)
(29.2994 -1.83514 0.0358675)
(29.3091 -1.46631 0.0774153)
(29.1548 -1.08111 0.123969)
(28.8445 -0.712438 0.175678)
(28.4129 -0.394508 0.232916)
(27.8041 -0.12468 0.290513)
(27.2764 0.0239817 0.361524)
(25.967 0.226248 0.467054)
(20.0004 -0.0261541 -0.00225601)
(20.008 -0.0815329 -0.00794603)
(20.03 -0.139375 -0.0150494)
(20.0709 -0.199293 -0.0241082)
(20.1367 -0.25891 -0.0358519)
(20.2355 -0.311921 -0.0501681)
(20.3777 -0.340514 -0.0648905)
(20.5759 -0.315831 -0.074845)
(20.8536 -0.148942 -0.0704934)
(21.316 0.170546 -0.0326335)
(22.1583 0.455625 -0.00783293)
(23.3433 0.233456 -0.0210126)
(24.4522 -0.298065 -0.0879824)
(25.1127 -0.989405 -0.143018)
(25.4107 -1.45123 -0.208)
(25.7923 -1.75467 -0.224226)
(26.3386 -2.06912 -0.214531)
(26.9397 -2.36057 -0.198136)
(27.5345 -2.54632 -0.174077)
(28.0649 -2.57905 -0.144118)
(28.4607 -2.45204 -0.111289)
(28.6812 -2.19237 -0.0768022)
(28.7237 -1.84562 -0.0385821)
(28.5914 -1.45933 0.008441)
(28.2906 -1.07575 0.0658389)
(27.8282 -0.727932 0.130461)
(27.2478 -0.446659 0.200197)
(26.4719 -0.226862 0.268868)
(25.8232 -0.114774 0.348771)
(24.2321 0.0220005 0.475677)
(20.0003 -0.0232143 -0.00240472)
(20.0074 -0.0722826 -0.00849636)
(20.0285 -0.123244 -0.0161587)
(20.0692 -0.175644 -0.0260228)
(20.1374 -0.22711 -0.0390649)
(20.2452 -0.271503 -0.0553702)
(20.4089 -0.295506 -0.0734065)
(20.6492 -0.277263 -0.0900848)
(20.9981 -0.184983 -0.0978404)
(21.4942 0.0123932 -0.0850956)
(22.2759 0.174747 -0.0900685)
(23.2816 0.0179928 -0.141038)
(24.1766 -0.400942 -0.20265)
(24.7679 -0.946758 -0.240178)
(25.1468 -1.36345 -0.267362)
(25.5667 -1.69448 -0.269119)
(26.1021 -2.05151 -0.260227)
(26.6908 -2.37536 -0.253238)
(27.2617 -2.56197 -0.242923)
(27.7361 -2.56128 -0.223398)
(28.0413 -2.3845 -0.192886)
(28.1471 -2.08055 -0.152154)
(28.062 -1.70793 -0.10209)
(27.8047 -1.31974 -0.0403164)
(27.3749 -0.957083 0.0319681)
(26.7806 -0.649665 0.108578)
(26.0736 -0.419606 0.186358)
(25.1575 -0.258229 0.260242)
(24.41 -0.188983 0.342014)
(22.5908 -0.114113 0.481956)
(20.0002 -0.0197396 -0.00254188)
(20.0069 -0.0613989 -0.00898836)
(20.0274 -0.104535 -0.0171318)
(20.0682 -0.148631 -0.0277451)
(20.1388 -0.191509 -0.0419444)
(20.2542 -0.228172 -0.0597264)
(20.4333 -0.248479 -0.0804387)
(20.7016 -0.239209 -0.101548)
(21.0862 -0.183612 -0.116638)
(21.5942 -0.0782682 -0.115312)
(22.3234 -0.00822684 -0.145764)
(23.2131 -0.127322 -0.202677)
(24.0144 -0.419927 -0.246857)
(24.578 -0.812154 -0.269584)
(24.9709 -1.18532 -0.28525)
(25.3775 -1.55574 -0.293164)
(25.8861 -1.94526 -0.302322)
(26.4565 -2.26876 -0.317077)
(26.9992 -2.42305 -0.324084)
(27.4139 -2.37192 -0.309139)
(27.6282 -2.14901 -0.270481)
(27.6256 -1.81939 -0.214556)
(27.4276 -1.44712 -0.145948)
(27.0577 -1.08349 -0.0663015)
(26.5165 -0.763496 0.0203549)
(25.8125 -0.510752 0.106404)
(25.0036 -0.339757 0.187776)
(23.9781 -0.23824 0.261164)
(23.1574 -0.211178 0.338349)
(21.1644 -0.191555 0.483804)
(20.0002 -0.0158029 -0.00265647)
(20.0065 -0.0491698 -0.00940412)
(20.0266 -0.0836656 -0.0179582)
(20.0677 -0.118794 -0.0292174)
(20.1404 -0.152763 -0.0443546)
(20.2615 -0.181543 -0.0633854)
(20.4519 -0.19803 -0.086174)
(20.7381 -0.193633 -0.110529)
(21.1422 -0.159822 -0.129903)
(21.6544 -0.0994351 -0.131905)
(22.3476 -0.0601866 -0.175045)
(23.1624 -0.136406 -0.23448)
(23.8875 -0.339573 -0.267482)
(24.416 -0.643296 -0.280776)
(24.7997 -0.988261 -0.293018)
(25.1948 -1.36051 -0.315149)
(25.6897 -1.73515 -0.351727)
(26.2463 -2.01933 -0.392671)
(26.7568 -2.12111 -0.412368)
(27.1081 -2.02401 -0.391857)
(27.2345 -1.7791 -0.334363)
(27.1341 -1.45696 -0.255947)
(26.8418 -1.11751 -0.16568)
(26.3761 -0.802859 -0.0676686)
(25.7449 -0.541757 0.0306462)
(24.9565 -0.351357 0.121102)
(24.073 -0.238774 0.200653)
(22.9689 -0.189283 0.268529)
(22.0986 -0.196585 0.33628)
(19.9842 -0.216138 0.480968)
(20.0001 -0.0115067 -0.0027395)
(20.0062 -0.0358055 -0.00970287)
(20.0261 -0.0609239 -0.0185657)
(20.0673 -0.0864638 -0.0302896)
(20.1417 -0.111043 -0.0462202)
(20.2673 -0.131686 -0.0664375)
(20.4655 -0.143376 -0.0906596)
(20.7638 -0.140619 -0.117026)
(21.1808 -0.118188 -0.138639)
(21.6951 -0.0778918 -0.140135)
(22.3604 -0.0478732 -0.181826)
(23.1218 -0.0904829 -0.239219)
(23.7929 -0.229028 -0.26672)
(24.2852 -0.456909 -0.275896)
(24.6519 -0.743332 -0.294569)
(25.0354 -1.06795 -0.340138)
(25.5199 -1.38959 -0.409133)
(26.0601 -1.61469 -0.474579)
(26.5315 -1.66517 -0.498609)
(26.8157 -1.54509 -0.462379)
(26.8589 -1.315 -0.379474)
(26.6744 -1.03887 -0.275319)
(26.307 -0.763948 -0.162998)
(25.7646 -0.520384 -0.0489252)
(25.0649 -0.329936 0.0571243)
(24.2155 -0.203141 0.147645)
(23.281 -0.14192 0.221211)
(22.1233 -0.131253 0.279576)
(21.2211 -0.161817 0.334907)
(19.017 -0.197396 0.473255)
(20.0001 -0.0071013 -0.00283172)
(20.006 -0.0219843 -0.00999992)
(20.0257 -0.0373143 -0.0191192)
(20.0672 -0.0528725 -0.0311843)
(20.1428 -0.0677857 -0.0477148)
(20.2714 -0.0800642 -0.0687523)
(20.475 -0.0867755 -0.0937479)
(20.7814 -0.0843951 -0.12116)
(21.2077 -0.0691202 -0.143679)
(21.723 -0.0403181 -0.142404)
(22.3673 -0.0114824 -0.174105)
(23.0966 -0.025431 -0.225654)
(23.7325 -0.10611 -0.247447)
(24.1965 -0.255964 -0.254947)
(24.5451 -0.458462 -0.284366)
(24.9156 -0.696225 -0.357669)
(25.3871 -0.927477 -0.463616)
(25.9007 -1.07458 -0.553529)
(26.3209 -1.08314 -0.574911)
(26.5334 -0.97174 -0.515628)
(26.4999 -0.796632 -0.40429)
(26.2484 -0.603444 -0.274492)
(25.8232 -0.420353 -0.141507)
(25.221 -0.264379 -0.0148985)
(24.4717 -0.149348 0.0947173)
(23.5792 -0.0801233 0.182075)
(22.6082 -0.0567891 0.247384)
(21.4084 -0.065535 0.294548)
(20.4789 -0.104908 0.336462)
(18.1913 -0.133385 0.465994)
(20.0001 -0.00246197 -0.00280595)
(20.006 -0.00755707 -0.0100106)
(20.0257 -0.0127734 -0.0192277)
(20.0674 -0.018056 -0.0314623)
(20.1439 -0.0231065 -0.0483194)
(20.2746 -0.0271872 -0.0698116)
(20.4817 -0.029309 -0.0952748)
(20.7935 -0.0282368 -0.123253)
(21.2272 -0.0225313 -0.145261)
(21.7448 -0.0107801 -0.138492)
(22.3862 0.00406141 -0.155329)
(23.1138 0.00445293 -0.197814)
(23.7357 -0.0217896 -0.212739)
(24.176 -0.0774302 -0.22148)
(24.5026 -0.15569 -0.265227)
(24.858 -0.249343 -0.369318)
(25.3121 -0.33867 -0.512169)
(25.7907 -0.390522 -0.622112)
(26.152 -0.385039 -0.633552)
(26.2972 -0.334201 -0.54499)
(26.2009 -0.263772 -0.404591)
(25.901 -0.190886 -0.251257)
(25.4247 -0.124039 -0.100036)
(24.7776 -0.0690729 0.0364279)
(23.9881 -0.0307087 0.148023)
(23.054 -0.00980106 0.232047)
(22.0404 -0.00647596 0.288808)
(20.7855 -0.0141945 0.326051)
(19.8103 -0.0350971 0.351484)
(17.4121 -0.0460919 0.476278)
(20.0023 -0.00261487 -0.00276463)
(20.025 -0.00806671 -0.00972359)
(20.0771 -0.013916 -0.0178393)
(20.1624 -0.0203706 -0.027405)
(20.2835 -0.0275851 -0.0390528)
(20.4451 -0.0354954 -0.0521612)
(20.6512 -0.0437483 -0.0655669)
(20.901 -0.0512982 -0.0772117)
(21.1972 -0.0567183 -0.087217)
(21.5458 -0.0570483 -0.092766)
(21.9794 -0.0459798 -0.106938)
(22.7317 -0.0197956 -0.253833)
(24.0654 0.0207609 -0.698518)
(25.7905 0.0720384 -1.32116)
(27.4705 0.112885 -1.73103)
(29.028 0.133669 -1.90791)
(30.4869 0.140506 -1.95612)
(31.8662 0.139548 -1.93931)
(33.178 0.134716 -1.89081)
(34.4374 0.129276 -1.83129)
(35.6555 0.12596 -1.774)
(36.8412 0.126821 -1.72834)
(38.0029 0.133249 -1.70086)
(39.1494 0.146062 -1.69583)
(40.2864 0.164725 -1.71701)
(41.4257 0.189349 -1.76251)
(42.5417 0.216629 -1.84133)
(43.7469 0.248319 -1.94644)
(44.7326 0.267895 -2.1585)
(46.5196 0.306652 -2.58667)
(20.0022 -0.00772044 -0.00284771)
(20.0247 -0.0239062 -0.00989687)
(20.0761 -0.0413107 -0.0180797)
(20.1602 -0.0605787 -0.0276866)
(20.2801 -0.0822182 -0.0394047)
(20.4403 -0.106239 -0.0526045)
(20.6455 -0.13156 -0.0658674)
(20.8962 -0.155668 -0.0770813)
(21.1994 -0.1741 -0.086778)
(21.5646 -0.173951 -0.0925285)
(22.0272 -0.139348 -0.118069)
(22.7702 -0.0649716 -0.282794)
(23.9946 0.0470003 -0.698446)
(25.5573 0.185527 -1.23407)
(27.1076 0.2977 -1.5766)
(28.589 0.357705 -1.7375)
(29.9959 0.379784 -1.78738)
(31.3336 0.378658 -1.77602)
(32.609 0.365054 -1.73286)
(33.8344 0.348402 -1.67657)
(35.0188 0.336811 -1.61962)
(36.1696 0.33645 -1.57095)
(37.2939 0.351535 -1.53695)
(38.4007 0.38397 -1.52233)
(39.4932 0.433742 -1.53014)
(40.5848 0.50085 -1.56047)
(41.6529 0.576753 -1.62355)
(42.806 0.663662 -1.7115)
(43.7503 0.722769 -1.907)
(45.4732 0.8252 -2.30326)
(20.0022 -0.0126092 -0.00295395)
(20.024 -0.039146 -0.0102415)
(20.0743 -0.0677168 -0.0187196)
(20.1569 -0.0994449 -0.0286595)
(20.2748 -0.13534 -0.040853)
(20.4335 -0.175615 -0.0546192)
(20.6383 -0.219247 -0.0681075)
(20.8923 -0.262741 -0.0792318)
(21.2072 -0.298789 -0.0886517)
(21.6016 -0.300533 -0.0933307)
(22.1309 -0.238589 -0.136344)
(22.9465 -0.110111 -0.343193)
(24.1452 0.0748198 -0.766144)
(25.5243 0.285383 -1.17738)
(26.911 0.444711 -1.42787)
(28.2714 0.527294 -1.54215)
(29.5882 0.556201 -1.571)
(30.8526 0.549738 -1.55127)
(32.0644 0.52345 -1.50547)
(33.2326 0.49236 -1.44854)
(34.3634 0.46947 -1.39126)
(35.4616 0.464587 -1.34134)
(36.5332 0.484042 -1.30456)
(37.5846 0.532059 -1.2845)
(38.6157 0.608946 -1.28337)
(39.6433 0.711898 -1.30292)
(40.6458 0.831016 -1.35313)
(41.7258 0.965909 -1.42625)
(42.6079 1.06503 -1.6004)
(44.2211 1.21994 -1.95521)
(20.0021 -0.0172134 -0.0031106)
(20.0231 -0.0534745 -0.0107694)
(20.0717 -0.0925557 -0.0196929)
(20.1517 -0.136038 -0.0301673)
(20.2666 -0.185774 -0.043057)
(20.4224 -0.242474 -0.057613)
(20.6255 -0.305465 -0.0714186)
(20.883 -0.371716 -0.0823697)
(21.2108 -0.432803 -0.0914772)
(21.6453 -0.447913 -0.0944943)
(22.2715 -0.360466 -0.153307)
(23.1942 -0.163862 -0.401955)
(24.3725 0.105006 -0.803647)
(25.5904 0.382628 -1.10394)
(26.8074 0.562079 -1.2682)
(28.025 0.642133 -1.32505)
(29.2259 0.660683 -1.31865)
(30.3915 0.637016 -1.2796)
(31.5166 0.589768 -1.22419)
(32.6079 0.53888 -1.16333)
(33.6679 0.501471 -1.10551)
(34.6981 0.490427 -1.05643)
(35.7031 0.51322 -1.02082)
(36.6833 0.575942 -0.999233)
(37.641 0.67697 -0.995039)
(38.5906 0.813921 -1.00893)
(39.512 0.973301 -1.04983)
(40.4996 1.15342 -1.11067)
(41.3025 1.28924 -1.26094)
(42.7639 1.49992 -1.56632)
(20.0019 -0.0213806 -0.00331791)
(20.0219 -0.0664395 -0.0114741)
(20.0683 -0.115062 -0.0209786)
(20.1448 -0.169386 -0.0321689)
(20.2551 -0.23144 -0.0456852)
(20.4059 -0.30377 -0.0608861)
(20.605 -0.387316 -0.0749886)
(20.8633 -0.480822 -0.0852317)
(21.2035 -0.578332 -0.0913721)
(21.6901 -0.62792 -0.0900538)
(22.4422 -0.521166 -0.158743)
(23.493 -0.239302 -0.429772)
(24.6385 0.127834 -0.770974)
(25.7218 0.469341 -0.997547)
(26.7604 0.639691 -1.0931)
(27.8178 0.688138 -1.09049)
(28.8823 0.67685 -1.0417)
(29.9273 0.622893 -0.976613)
(30.9466 0.545894 -0.906894)
(31.9447 0.470012 -0.84013)
(32.9201 0.416006 -0.782274)
(33.8708 0.397193 -0.736708)
(34.796 0.424353 -0.704833)
(35.694 0.502597 -0.686169)
(36.5665 0.629332 -0.683152)
(37.4246 0.800044 -0.695341)
(38.2508 0.998086 -0.729962)
(39.1289 1.22047 -0.780194)
(39.8381 1.39167 -0.905147)
(41.1173 1.65742 -1.15552)
(20.0018 -0.0250108 -0.00358137)
(20.0204 -0.0777195 -0.0123446)
(20.064 -0.134588 -0.022669)
(20.1362 -0.198191 -0.0348867)
(20.2404 -0.271615 -0.0490798)
(20.3836 -0.358708 -0.0650291)
(20.5743 -0.463399 -0.0788676)
(20.8269 -0.589048 -0.0863589)
(21.1735 -0.741311 -0.083186)
(21.7193 -0.859334 -0.0671566)
(22.6319 -0.749752 -0.131532)
(23.8583 -0.365826 -0.388336)
(25.0072 0.135238 -0.677387)
(25.9356 0.565066 -0.857102)
(26.7493 0.703586 -0.900669)
(27.6152 0.683837 -0.842966)
(28.5213 0.613725 -0.754684)
(29.4266 0.509127 -0.665602)
(30.325 0.389739 -0.582395)
(31.2195 0.282729 -0.51037)
(32.1031 0.208671 -0.453918)
(32.9682 0.184853 -0.413698)
(33.8048 0.22031 -0.386607)
(34.613 0.31715 -0.372699)
(35.3908 0.47263 -0.372679)
(36.1464 0.678947 -0.384488)
(36.8651 0.915593 -0.413498)
(37.6193 1.17739 -0.453075)
(38.2224 1.38212 -0.55098)
(39.2993 1.69777 -0.743461)
(20.0016 -0.0279405 -0.00387717)
(20.0187 -0.0869579 -0.013408)
(20.0592 -0.150619 -0.024604)
(20.1262 -0.221577 -0.0379658)
(20.2228 -0.303815 -0.0534217)
(20.3554 -0.402301 -0.0701244)
(20.5307 -0.526046 -0.0829803)
(20.7656 -0.685759 -0.0832464)
(21.0976 -0.928989 -0.0588623)
(21.6903 -1.15001 -0.00563728)
(22.831 -1.07267 -0.0228154)
(24.3946 -0.57178 -0.205291)
(25.6141 0.114986 -0.482529)
(26.3068 0.689517 -0.704978)
(26.7226 0.764478 -0.724785)
(27.3127 0.65637 -0.611407)
(28.0314 0.50428 -0.483999)
(28.7867 0.327924 -0.3749)
(29.5648 0.15009 -0.282667)
(30.3626 -0.00015288 -0.209089)
(31.1643 -0.0971074 -0.156423)
(31.948 -0.125983 -0.119973)
(32.7033 -0.0805904 -0.0972152)
(33.4234 0.0406058 -0.0870727)
(34.1035 0.229777 -0.0884228)
(34.7504 0.474078 -0.0980314)
(35.3531 0.748502 -0.119007)
(35.9735 1.04504 -0.145308)
(36.461 1.27867 -0.213402)
(37.3244 1.63399 -0.346973)
(20.0014 -0.0301607 -0.00422154)
(20.0169 -0.0937514 -0.0145324)
(20.054 -0.162513 -0.0268632)
(20.1156 -0.239252 -0.0417458)
(20.2036 -0.327353 -0.0585959)
(20.3222 -0.432692 -0.0759477)
(20.4749 -0.569712 -0.0870217)
(20.6667 -0.75858 -0.0748562)
(20.9245 -1.09477 0.00195185)
(21.3214 -1.48265 0.100338)
(22.4436 -1.74696 0.21439)
(24.4801 -1.32635 0.300176)
(26.0144 -0.220292 -0.0264502)
(26.5586 1.06263 -0.381546)
(26.168 1.02998 -0.597122)
(26.4611 0.660969 -0.446216)
(27.0296 0.357594 -0.296584)
(27.6878 0.0735555 -0.173701)
(28.4047 -0.181145 -0.0741479)
(29.1686 -0.378777 0.00171833)
(29.9451 -0.49902 0.0558938)
(30.7021 -0.529679 0.0940003)
(31.4164 -0.464027 0.11837)
(32.0743 -0.306955 0.131249)
(32.6701 -0.0743422 0.135359)
(33.2129 0.213295 0.134788)
(33.6992 0.525248 0.128483)
(34.1833 0.851055 0.121452)
(34.5501 1.10554 0.0873372)
(35.1922 1.48465 0.0145156)
(20.0012 -0.0315799 -0.00462516)
(20.0149 -0.0981754 -0.015834)
(20.0485 -0.169715 -0.0292145)
(20.1045 -0.249193 -0.0458679)
(20.1845 -0.340277 -0.0652229)
(20.2876 -0.447502 -0.0833459)
(20.414 -0.584956 -0.0933635)
(20.5327 -0.780887 -0.0580159)
(20.6431 -1.09282 0.0356492)
(20.9096 -1.96289 0.374486)
(22.3578 -2.65773 0.668779)
(24.9507 -2.65731 0.876701)
(26.033 -0.56382 -0.152119)
(25.716 1.90003 -0.681197)
(22.6097 1.70893 -0.31511)
(23.4176 0.888539 -0.142597)
(24.3852 0.301392 -0.0432406)
(25.3242 -0.160244 0.0279583)
(26.2825 -0.543755 0.0901944)
(27.2635 -0.832847 0.145407)
(28.2119 -0.998759 0.190977)
(29.0765 -1.02623 0.227603)
(29.8315 -0.921192 0.254742)
(30.4734 -0.706716 0.273637)
(31.0114 -0.415451 0.287279)
(31.4659 -0.0788701 0.30074)
(31.8468 0.267659 0.314921)
(32.2027 0.614541 0.332831)
(32.4584 0.879121 0.33886)
(32.9023 1.27088 0.326658)
(20.001 -0.0321907 -0.00505653)
(20.0131 -0.0999741 -0.0173355)
(20.0433 -0.17248 -0.0319362)
(20.0938 -0.252042 -0.0499084)
(20.1662 -0.340764 -0.0714306)
(20.2559 -0.441511 -0.0926879)
(20.3589 -0.561332 -0.10347)
(20.3885 -0.721135 -0.0529457)
(20.3217 -0.981638 0.0975687)
(19.8541 -2.10114 0.644834)
(22.1774 -3.18484 1.40736)
(23.8733 -4.48246 -4.49434)
(12.9769 -0.27075 -4.31565)
(17.4052 2.95266 0.903126)
(12.8944 1.53938 1.61827)
(16.6667 0.501073 0.814497)
(19.5892 -0.284748 0.431453)
(21.9058 -0.883195 0.243996)
(23.8141 -1.33493 0.180892)
(25.387 -1.62341 0.186831)
(26.6429 -1.72891 0.220257)
(27.6196 -1.65822 0.259521)
(28.3703 -1.44461 0.295536)
(28.9441 -1.13244 0.327587)
(29.3794 -0.765691 0.358949)
(29.7094 -0.379509 0.394342)
(29.9553 -0.00768981 0.435648)
(30.1567 0.347019 0.483059)
(30.2827 0.605334 0.532319)
(30.4963 0.995495 0.575598)
(20.0008 -0.031977 -0.00551694)
(20.0115 -0.0992774 -0.018903)
(20.0388 -0.170714 -0.0349029)
(20.0851 -0.248294 -0.0548793)
(20.1523 -0.333251 -0.0790617)
(20.236 -0.425212 -0.103824)
(20.3305 -0.51756 -0.119121)
(20.3466 -0.603971 -0.0751204)
(20.1883 -0.654886 0.09259)
(18.6358 -0.609965 0.880615)
(0.244948 -2.91077 -0.93559)
(13.4184 -2.32245 -0.29364)
(17.8126 -2.12058 -0.356791)
(20.8601 -2.1565 -0.348493)
(22.9798 -2.33109 -0.276493)
(24.5518 -2.503 -0.156135)
(25.7523 -2.56464 -0.0301946)
(26.6502 -2.46851 0.0767134)
(27.306 -2.22328 0.161861)
(27.7713 -1.87031 0.230248)
(28.0857 -1.4576 0.291152)
(28.2796 -1.02728 0.352832)
(28.3777 -0.610119 0.421123)
(28.4011 -0.234234 0.498099)
(28.3676 0.106144 0.579235)
(28.3026 0.339412 0.675116)
(28.1954 0.702207 0.764715)
(20.0006 -0.0309923 -0.00600268)
(20.0101 -0.0960868 -0.0205137)
(20.0351 -0.164995 -0.0381887)
(20.0785 -0.238948 -0.0606111)
(20.1431 -0.316794 -0.0880877)
(20.2286 -0.395462 -0.117908)
(20.3335 -0.459789 -0.141792)
(20.4162 -0.486844 -0.12294)
(20.3705 -0.383764 0.0052026)
(20.1131 0.504328 0.55155)
(21.0107 1.7876 1.19048)
(25.1404 5.42998 -3.13444)
(13.0195 -0.265244 -1.8417)
(16.4654 -2.1515 -4.09439)
(22.9397 -2.90454 -0.964888)
(23.5965 -2.733 -0.740082)
(24.4344 -2.8341 -0.557336)
(25.2102 -3.02024 -0.400817)
(25.8992 -3.12712 -0.253104)
(26.4701 -3.07137 -0.126981)
(26.8866 -2.84044 -0.0255974)
(27.1494 -2.47668 0.0581709)
(27.2886 -2.036 0.132077)
(27.3173 -1.57026 0.209074)
(27.2555 -1.1188 0.295279)
(27.1175 -0.707771 0.393883)
(26.9222 -0.358751 0.505827)
(26.6614 -0.059226 0.621129)
(26.4134 0.132776 0.762928)
(25.9739 0.439319 0.895421)
(20.0005 -0.0292524 -0.00648883)
(20.0089 -0.0907101 -0.0222456)
(20.0321 -0.155335 -0.0415907)
(20.0734 -0.223511 -0.0662712)
(20.1375 -0.293718 -0.096979)
(20.2296 -0.36105 -0.13287)
(20.3541 -0.406383 -0.16693)
(20.5073 -0.406006 -0.183053)
(20.7071 -0.221857 -0.134822)
(20.8427 0.236887 0.0588404)
(21.7412 1.03372 0.248388)
(24.1078 1.1727 0.372337)
(26.0502 0.21595 0.200648)
(26.3872 -1.44884 -0.0213175)
(25.4929 -2.25409 -0.416687)
(25.3733 -2.56347 -0.426412)
(25.5819 -2.94334 -0.369076)
(25.8826 -3.24063 -0.305941)
(26.187 -3.34428 -0.236691)
(26.4244 -3.22465 -0.17002)
(26.5481 -2.91608 -0.107594)
(26.5425 -2.48628 -0.0419722)
(26.4395 -2.00301 0.0345932)
(26.2464 -1.52431 0.128564)
(25.9824 -1.08855 0.239256)
(25.6571 -0.716538 0.365882)
(25.283 -0.420373 0.507292)
(24.8303 -0.179884 0.649432)
(24.4281 -0.0373827 0.825491)
(23.6924 0.204485 0.992182)
(20.0004 -0.0268703 -0.00698512)
(20.008 -0.0832038 -0.0239683)
(20.0297 -0.142046 -0.0448898)
(20.0698 -0.203599 -0.0716722)