/*--------------------------------*- C++ -*----------------------------------*\
| =========                 |                                                 |
| \\      /  F ield         | OpenFOAM: The Open Source CFD Toolbox           |
|  \\    /   O peration     | Version:  2512                                  |
|   \\  /    A nd           | Website:  www.openfoam.com                      |
|    \\/     M anipulation  |                                                 |
\*---------------------------------------------------------------------------*/
FoamFile
{
    version     2.0;
    format      ascii;
    arch        "LSB;label=32;scalar=64";
    class       volScalarField;
    location    "80";
    object      k;
}
// * * * * * * * * * * * * * * * * * * * * * * * * * * * * * * * * * * * * * //

dimensions      [0 2 -2 0 0 0 0];

internalField   nonuniform List<scalar> 
84826
(
0.231912
0.224178
0.216918
0.210088
0.203649
0.197564
0.19181
0.186361
0.181279
0.176579
0.172196
0.168234
0.164726
0.161436
0.158242
0.155081
0.152108
0.158303
0.434645
4.09609
21.2921
39.2728
46.1433
46.1321
42.6999
38.2503
33.9105
29.6203
25.4188
21.699
0.231911
0.224178
0.216919
0.210093
0.203663
0.197598
0.191876
0.186472
0.181447
0.176795
0.172455
0.168556
0.165131
0.161964
0.158913
0.155974
0.153489
0.162902
0.468865
3.7366
17.1242
34.7324
43.8719
45.8417
43.9573
39.6331
35.0973
30.5905
26.2024
22.404
0.231911
0.224178
0.216922
0.210101
0.203682
0.197637
0.191951
0.186604
0.181657
0.177045
0.172798
0.169056
0.166006
0.163399
0.161246
0.159662
0.159282
0.171309
0.432554
2.94312
12.7473
28.7893
40.2628
44.602
44.391
41.0221
36.2921
31.6395
27.1675
23.5038
0.231911
0.224178
0.216924
0.210108
0.203699
0.197676
0.192027
0.186738
0.181882
0.177324
0.173264
0.170273
0.169646
0.170572
0.174869
0.184676
0.200982
0.22673
0.423973
2.16979
9.05274
22.8823
36.0052
42.6645
44.0937
41.7154
37.0265
32.392
27.9846
24.6865
0.231911
0.224178
0.216925
0.210114
0.203715
0.197712
0.1921
0.186878
0.182058
0.17757
0.17451
0.178503
0.193047
0.217816
0.270656
0.373831
0.531087
0.697152
0.889484
1.91253
6.56282
17.8496
31.6097
40.2011
43.1079
41.5967
37.1379
32.6583
28.4469
25.811
0.231911
0.224178
0.216926
0.21012
0.203731
0.197748
0.192173
0.187012
0.182212
0.177877
0.180963
0.240835
0.349467
0.520669
0.868891
1.43925
2.1274
2.74058
3.17556
3.70284
6.41882
14.8549
28.2705
37.9612
41.8683
40.9361
36.7807
32.5298
28.6271
26.9602
0.231911
0.224179
0.21693
0.210128
0.203749
0.197785
0.192248
0.187101
0.18232
0.178231
0.215687
0.649785
1.23113
2.02415
3.51533
4.98609
6.14787
6.87857
7.30909
7.88066
9.87808
16.3414
28.2968
37.5168
41.3871
40.4847
36.4692
32.3957
28.8687
28.3695
0.231912
0.224182
0.216937
0.210141
0.203771
0.197825
0.192327
0.187177
0.182491
0.178565
0.175722
1.52686
4.25565
4.78447
12.9505
13.0176
12.8076
12.7878
13.0073
13.5125
15.8939
22.4067
32.0262
39.2987
42.1258
40.7576
36.6261
32.6179
29.4946
30.2004
0.231913
0.224186
0.216945
0.210156
0.203795
0.197867
0.19239
0.187264
0.182712
0.178991
0.181723
12.9297
16.7066
17.5486
31.8694
25.6846
21.6424
19.5935
18.9705
19.5764
22.7715
29.3981
36.7372
41.8737
43.4388
41.5203
37.2295
33.2066
30.5146
32.4554
0.231916
0.224194
0.21696
0.210177
0.203824
0.197909
0.192433
0.187339
0.182888
0.179338
0.179918
16.8809
12.4235
11.5445
29.591
23.6829
20.3946
18.7912
18.4071
20.0714
25.3443
33.1275
39.8141
43.7466
44.4575
42.1817
37.8676
33.8568
31.7094
35.1478
0.231919
0.224202
0.216974
0.210198
0.203852
0.197935
0.192465
0.187382
0.182921
0.179664
0.180802
5.7628
13.4964
23.3482
18.911
16.2921
14.7795
14.0706
15.7022
22.6618
32.723
40.2399
44.051
44.5294
42.2036
38.0082
34.2058
32.9582
38.6471
0.23192
0.224203
0.216978
0.210206
0.203865
0.197946
0.192492
0.187387
0.182868
0.179495
0.178562
10.9828
11.097
9.06412
17.6218
14.9551
12.8552
11.3917
10.4981
10.748
15.1581
25.9116
36.0379
41.4371
42.7303
40.9047
37.1312
33.9902
34.5238
43.7547
0.231919
0.224204
0.21698
0.210211
0.203869
0.197951
0.192482
0.187359
0.182748
0.179087
0.176939
2.41149
4.95101
5.12343
8.57731
8.79853
8.45547
7.73814
6.6607
6.24447
8.84749
16.7627
27.654
35.4052
38.4585
37.7677
34.8846
33.3448
37.5092
52.2172
0.231918
0.224205
0.216984
0.210215
0.203871
0.197945
0.19245
0.187315
0.182631
0.178666
0.187727
0.714037
1.09725
1.32543
1.76852
2.06854
2.16656
2.00371
1.89377
2.30342
4.5417
10.1575
19.2345
27.751
32.3476
33.0388
32.0399
33.6738
44.2353
65.2785
0.231918
0.224205
0.216984
0.210213
0.203865
0.197927
0.192403
0.187274
0.182531
0.178335
0.177061
0.264122
0.338649
0.365584
0.389826
0.40023
0.406458
0.41176
0.482158
1.02637
2.95173
7.13005
13.6647
20.9185
25.9133
27.8593
30.052
37.7571
57.6091
83.0634
0.231918
0.224204
0.21698
0.210205
0.20385
0.197898
0.192346
0.187197
0.182424
0.178075
0.174573
0.181515
0.191132
0.192375
0.191715
0.190758
0.189671
0.194026
0.284422
0.851554
2.48752
5.63954
10.277
15.6911
20.4785
24.7053
31.9402
48.6389
77.8145
104.126
0.231917
0.224201
0.216974
0.210193
0.203828
0.197859
0.192279
0.187082
0.182304
0.177877
0.173943
0.171149
0.169674
0.167336
0.164817
0.162283
0.160049
0.161992
0.231789
0.717701
2.11825
4.69752
8.40518
12.9234
17.9469
24.8848
39.5698
67.668
101.013
126.107
0.231917
0.224198
0.216965
0.210177
0.203801
0.197815
0.192209
0.186973
0.182174
0.177721
0.173665
0.170102
0.167082
0.164263
0.161475
0.158804
0.156335
0.15585
0.192286
0.540204
1.69435
3.95004
7.36079
11.7371
17.4369
28.2206
51.7883
89.3907
123.341
146.839
0.231916
0.224193
0.216954
0.210158
0.203771
0.197769
0.192142
0.186876
0.182032
0.177575
0.173491
0.169865
0.166696
0.163735
0.160885
0.158159
0.155568
0.15384
0.16794
0.368473
1.25605
3.25602
6.49468
10.907
17.9299
32.3321
66.1864
108.143
141.756
163.969
0.231922
0.224202
0.216963
0.210165
0.203774
0.197766
0.192129
0.186848
0.181981
0.177525
0.17344
0.169815
0.166582
0.163569
0.160688
0.157931
0.155278
0.153003
0.156512
0.248395
0.910861
2.62253
5.58378
9.70977
18.2856
38.2946
79.6863
121.381
152.426
174.014
0.238817
0.237448
0.235942
0.234324
0.232616
0.230847
0.229071
0.227396
0.226043
0.225259
0.224911
0.224607
0.223763
0.222179
0.220595
0.21997
0.226985
0.391194
2.70977
19.0064
58.1824
84.175
90.1491
88.6136
84.5442
77.9345
68.9307
59.9006
51.3386
45.2549
0.238816
0.237446
0.23594
0.234321
0.232616
0.230853
0.229096
0.227471
0.226212
0.225566
0.225381
0.225295
0.224891
0.224069
0.223599
0.225102
0.239165
0.461871
3.11704
16.7817
50.3749
79.3685
89.48
89.656
86.2385
80.2949
71.4218
61.7312
52.6203
47.2148
0.238816
0.237446
0.23594
0.234323
0.232623
0.230878
0.229164
0.227655
0.226606
0.226221
0.226434
0.226908
0.227969
0.230764
0.23702
0.249967
0.284073
0.540085
3.05577
14.4389
41.5711
71.5612
86.9938
89.955
87.496
82.0323
73.5749
63.7757
54.88
50.8392
0.238817
0.237446
0.23594
0.234327
0.232636
0.230919
0.229281
0.227959
0.22726
0.227284
0.228335
0.23089
0.23863
0.25926
0.30252
0.38007
0.499969
0.795787
2.81636
12.1559
33.7932
63.4756
83.3942
89.5944
88.447
83.4309
75.3302
65.6103
57.403
54.9838
0.238817
0.237447
0.235942
0.234332
0.232656
0.230981
0.22946
0.228423
0.228112
0.228807
0.232417
0.245425
0.280853
0.393928
0.645094
1.06653
1.59412
2.13056
3.48972
10.1156
27.7104
56.6113
79.5179
88.7071
88.8963
84.2982
76.442
66.9325
59.8319
59.485
0.238817
0.237449
0.235946
0.234341
0.232683
0.231065
0.22972
0.229083
0.229258
0.231045
0.245403
0.305123
0.453819
1.02713
2.33817
4.10222
5.72741
6.7968
7.66101
11.4183
25.7295
53.3208
77.3464
88.2303
89.2887
84.9612
77.2406
68.0237
62.4045
64.3126
0.238817
0.237449
0.23595
0.234354
0.232716
0.231168
0.230039
0.229725
0.23077
0.234281
0.292556
0.567027
1.08685
3.99127
9.59579
13.7319
15.507
15.762
15.938
18.294
30.9542
56.5703
78.9436
89.296
90.2797
85.8807
78.1791
69.4174
65.5096
69.587
0.238817
0.23745
0.235954
0.234367
0.232753
0.231288
0.230357
0.230431
0.232515
0.238526
0.247089
1.38557
3.03661
8.13494
35.0883
32.5455
28.4384
26.0287
26.2818
30.2682
43.0101
64.8287
83.2741
91.5703
91.7768
87.0847
79.505
71.423
69.172
75.3709
0.238817
0.237451
0.235957
0.234376
0.232784
0.231381
0.230642
0.231148
0.234001
0.243548
0.25909
11.2761
17.5737
54.4735
53.0375
39.2967
32.8179
30.9221
32.9527
39.6123
53.4083
72.4162
87.2974
93.6859
93.1366
88.2527
81.0193
73.8823
73.2655
81.7402
0.238818
0.237453
0.23596
0.234382
0.232802
0.231425
0.230822
0.231531
0.235293
0.247083
0.282181
94.5541
87.5925
114.967
46.0139
34.7
30.4382
30.2073
33.8406
43.5702
60.1554
78.1038
90.4919
95.3169
94.164
89.2406
82.5074
76.5357
77.7989
88.9999
0.238818
0.237454
0.235961
0.234385
0.232805
0.231429
0.230852
0.23158
0.235483
0.248799
0.280959
57.2782
33.5556
26.1274
23.4082
23.1454
26.7336
39.0538
60.1285
80.1439
91.9351
95.9948
94.5991
89.8788
83.8597
79.3163
83.1431
97.9084
0.238819
0.237455
0.23596
0.234384
0.232793
0.231389
0.230722
0.23126
0.234716
0.245544
0.270655
7.91171
85.0867
53.7415
29.075
20.7064
17.1508
16.0272
18.0124
27.0135
48.55
73.5034
88.4787
93.9316
93.4085
89.5472
84.8601
82.4359
90.3232
109.928
0.238818
0.237456
0.23596
0.23438
0.232771
0.231311
0.230428
0.230681
0.233096
0.240982
0.253084
6.95537
17.2197
23.4026
19.1995
17.3351
15.1154
13.2008
12.828
17.7707
33.4304
58.5641
78.2866
87.5033
89.5006
87.6375
85.5413
86.9404
101.414
126.363
0.238819
0.237456
0.235962
0.234373
0.232747
0.231218
0.230124
0.230024
0.231373
0.236198
0.263205
1.54504
2.32665
2.74038
3.22746
3.60481
3.81245
3.9533
4.91547
9.7952
22.502
43.4834
64.7158
77.6645
83.161
84.6555
86.9725
95.4852
119.468
148.334
0.23882
0.237456
0.23596
0.234367
0.232728
0.231143
0.229866
0.229386
0.229957
0.232316
0.242107
0.471859
0.670867
0.749947
0.793476
0.834795
0.877795
1.01867
2.0657
6.54069
16.9392
33.2903
52.3301
67.112
76.1528
82.5835
92.5199
112.262
145.72
175.722
0.23882
0.237455
0.235958
0.234364
0.232715
0.231088
0.229659
0.228807
0.228783
0.229875
0.233221
0.263983
0.299093
0.317773
0.325622
0.333496
0.348194
0.483622
1.58694
5.60168
14.0798
26.806
42.2993
57.5157
70.3935
83.8986
106.344
140.283
178.158
206.814
0.23882
0.237455
0.235959
0.234364
0.232708
0.231052
0.229525
0.228389
0.227961
0.228268
0.229493
0.233241
0.238538
0.240861
0.241099
0.241537
0.246423
0.340899
1.23472
4.61101
11.7367
22.3655
35.5602
50.1105
66.4921
89.81
130.11
174.153
213.065
238.942
0.23882
0.237455
0.23596
0.234365
0.232705
0.231032
0.229445
0.22814
0.22738
0.22721
0.227569
0.22819
0.228537
0.227858
0.22668
0.225714
0.227147
0.274893
0.857494
3.48906
9.5243
19.096
31.4923
46.375
66.0813
101.468
157.448
208.173
246.502
268.93
0.23882
0.237457
0.235963
0.234369
0.232708
0.231026
0.229408
0.228003
0.227013
0.226568
0.22646
0.226363
0.225636
0.224097
0.222464
0.221138
0.221102
0.240884
0.547415
2.41352
7.45741
16.2567
28.3324
43.8236
68.2923
118.38
184.629
237.282
273.741
292.275
0.238827
0.237471
0.235983
0.234395
0.232739
0.231059
0.229432
0.22799
0.226908
0.226337
0.22603
0.22566
0.224479
0.222582
0.220742
0.219293
0.218652
0.225467
0.362787
1.62126
5.89999
13.9527
25.4254
40.1339
70.6703
133.417
203.642
253.628
287.426
302.304
0.239029
0.238038
0.237036
0.236024
0.235008
0.234014
0.233111
0.232459
0.232338
0.232652
0.233424
0.234329
0.234799
0.234799
0.235537
0.242089
0.296775
0.947629
6.29521
33.7294
80.4887
102.454
105.298
103.893
101.563
96.8215
88.7198
79.0606
70.3328
64.1306
0.239028
0.238036
0.237033
0.236021
0.235009
0.234025
0.233153
0.232577
0.232542
0.23298
0.233955
0.235181
0.236507
0.238339
0.242271
0.258219
0.369037
1.36412
7.49216
29.9968
73.0392
100.16
105.777
104.498
101.851
97.3879
89.4244
79.6115
70.388
66.8088
0.239028
0.238036
0.237034
0.236025
0.235023
0.234068
0.23327
0.232878
0.233026
0.233745
0.235272
0.238044
0.244281
0.256282
0.275725
0.315793
0.495215
1.73247
8.25054
26.9124
63.3119
94.757
105.651
105.557
102.484
97.5943
90.1037
80.9593
73.033
72.32
0.239028
0.238036
0.237036
0.236032
0.235046
0.234139
0.233464
0.233339
0.233752
0.234943
0.238428
0.251218
0.282157
0.342023
0.425762
0.544525
0.782637
1.94158
7.82052
24.3587
55.4081
88.6632
104.735
106.814
103.794
98.5323
91.3499
82.8076
76.9391
78.6806
0.239029
0.238037
0.237038
0.236043
0.23508
0.234241
0.233755
0.233895
0.2347
0.236725
0.250782
0.317417
0.468972
0.718451
1.05151
1.48606
2.03447
3.07024
7.42991
21.7747
49.8674
83.5969
103.36
107.764
105.157
99.6978
92.6311
84.703
81.2261
85.7298
0.239029
0.238038
0.237043
0.236056
0.235125
0.234374
0.234163
0.23461
0.235947
0.239627
0.309324
0.661608
1.1842
2.21519
3.67414
5.28294
6.71488
7.95644
10.7343
22.0079
48.4519
81.5475
102.691
108.632
106.557
101.094
94.0746
86.9518
85.9039
93.4204
0.239029
0.23804
0.237049
0.236074
0.235174
0.234536
0.23454
0.235319
0.237575
0.243803
0.531737
1.95881
3.65709
9.21772
14.5639
17.4023
18.2128
18.1522
19.545
28.8608
53.6847
83.7931
103.528
109.829
108.175
102.855
96.065
89.9718
91.2362
101.682
0.23903
0.238043
0.237055
0.23609
0.235228
0.234699
0.234875
0.236022
0.239101
0.247641
0.268733
2.61426
5.5366
21.8937
42.1894
35.0032
30.0887
28.5696
31.3736
40.997
62.9394
88.4448
105.342
111.238
109.88
104.856
98.58
93.714
97.0846
110.334
0.23903
0.238044
0.237061
0.236105
0.235271
0.234838
0.23514
0.236588
0.24066
0.253279
0.286896
10.0893
19.4093
89.1558
48.8006
36.771
31.97
32.4485
38.5204
51.1558
71.5276
93.0653
107.335
112.619
111.474
106.891
101.393
97.9052
103.373
119.407
0.23903
0.238045
0.237064
0.236115
0.235295
0.234897
0.235279
0.236918
0.24193
0.256531
0.286529
69.6405
99.6973
146.807
44.4417
34.1613
30.9582
32.8774
41.0773
57.0045
78.1025
97.3698
109.509
114.034
112.988
108.918
104.384
102.444
110.339
129.332
0.239031
0.238047
0.237065
0.236114
0.235292
0.234889
0.235266
0.23696
0.242288
0.257771
0.289709
86.7205
37.4102
30.4036
27.7968
29.1376
37.4457
56.0398
80.2211
99.9272
111.117
115.158
114.291
110.881
107.567
107.601
118.677
140.915
0.239031
0.238046
0.237062
0.236107
0.235267
0.234813
0.235106
0.236662
0.241357
0.254822
0.280932
12.424
95.2941
125.421
34.8144
26.3378
22.8933
22.3972
27.8325
45.5191
72.7851
96.7881
109.839
114.728
114.726
112.516
111.037
114.125
129.566
155.356
0.23903
0.238047
0.237059
0.236099
0.235232
0.234693
0.234842
0.236079
0.239622
0.249526
0.265475
12.1241
22.3144
42.4414
24.1213
20.5039
17.4261
15.7821
18.6489
32.4102
58.4548
86.3836
103.708
111.376
113.562
113.739
115.485
123.562
144.627
173.375
0.239031
0.238047
0.237059
0.236087
0.235192
0.234551
0.234544
0.235391
0.237836
0.244162
0.288146
1.86584
2.61024
3.09055
3.85485
4.35847
4.66137
5.46207
9.67092
22.3739
45.1023
72.5349
93.6588
105.2
111.029
115.391
122.764
138.299
165.496
195.788
0.239032
0.238045
0.237055
0.236076
0.235156
0.234427
0.234241
0.234716
0.236316
0.2399
0.253463
0.515451
0.700236
0.757782
0.817944
0.886594
1.03493
1.98211
6.37495
17.6429
36.3939
59.961
82.2827
97.8176
108.702
119.735
135.941
160.674
191.943
222.462
0.239032
0.238044
0.237053
0.236069
0.235128
0.23433
0.233917
0.234113
0.235076
0.237244
0.242006
0.273274
0.310289
0.326585
0.336372
0.348962
0.438529
1.35849
5.38795
14.9424
30.5447
50.3068
71.5348
90.8513
108.675
129.399
157.44
189.628
222.74
252.388
0.239031
0.238044
0.237052
0.236064
0.235109
0.234261
0.233694
0.233674
0.234213
0.23552
0.23784
0.24286
0.248001
0.251063
0.252737
0.25615
0.309879
0.982832
4.2426
12.3466
25.8286
43.3348
63.3144
85.347
111.043
144.337
184.419
222.018
255.373
283.478
0.239031
0.238044
0.237052
0.236063
0.235099
0.234218
0.233552
0.233355
0.23362
0.234415
0.235763
0.237415
0.238678
0.239152
0.239273
0.240406
0.26644
0.669499
3.05658
9.75978
21.7215
38.1964
57.7457
82.0212
115.383
161.818
212.939
253.714
286.08
311.965
0.239031
0.238045
0.237054
0.236065
0.235096
0.234197
0.233474
0.233124
0.233225
0.233731
0.234586
0.235472
0.235833
0.235463
0.234999
0.235285
0.246293
0.44787
2.02759
7.42111
18.0984
33.7569
53.2648
79.9432
122.103
181.829
238.229
278.548
308.935
331.818
0.239038
0.238059
0.237074
0.23609
0.235125
0.234225
0.233484
0.233074
0.233105
0.233485
0.234135
0.234741
0.23475
0.233769
0.232931
0.232853
0.237005
0.322711
1.31598
5.7391
15.3251
30.0833
48.8238
77.3249
129.115
196.395
250.337
287.651
316.243
335.909
0.239038
0.238072
0.237115
0.236168
0.235243
0.234365
0.233605
0.23314
0.233217
0.233741
0.23476
0.236013
0.237005
0.238042
0.244545
0.293306
0.60624
2.57126
11.9319
49.0869
97.8918
112.876
110.779
108.401
107.459
104.512
98.031
89.5976
82.2496
78.5848
0.239037
0.23807
0.237112
0.236166
0.235244
0.234378
0.23365
0.233267
0.233435
0.234095
0.235403
0.237332
0.240336
0.245004
0.26038
0.357116
0.938961
3.8582
14.1985
44.519
91.9287
113.095
112.457
108.899
106.871
103.725
97.1087
88.7598
81.7613
82.7246
0.239037
0.23807
0.237113
0.23617
0.235258
0.234421
0.233773
0.233584
0.233948
0.23492
0.237473
0.245057
0.263489
0.289946
0.330513
0.466595
1.24072
4.80791
15.789
40.45
82.7977
110.726
114.561
110.676
106.933
102.878
96.6979
89.4184
85.6708
89.8928
0.239037
0.23807
0.237115
0.236177
0.235281
0.234493
0.233973
0.234046
0.234701
0.236271
0.247247
0.301875
0.406933
0.529975
0.654343
0.839988
1.49569
4.78487
15.3818
37.7797
75.4291
107.12
116.088
113.259
108.504
103.561
97.7337
91.6784
91.2446
97.8341
0.239038
0.238071
0.237117
0.236187
0.235315
0.234594
0.234279
0.234639
0.235686
0.238821
0.30894
0.627641
1.10025
1.46443
1.80817
2.2281
2.90692
5.18074
14.1593
35.819
70.941
103.936
116.727
115.664
110.704
105.181
99.492
94.7832
97.123
106.874
0.239038
0.238072
0.237121
0.2362
0.235358
0.234726
0.234703
0.235355
0.237094
0.244775
0.636156
2.11665
3.33657
4.23522
5.24271
6.33154
7.4685
9.30056
15.9996
36.0122
70.2002
102.436
117.026
117.726
113.183
107.477
101.993
98.5563
103.537
116.881
0.239038
0.238074
0.237125
0.236215
0.235405
0.234893
0.235056
0.236048
0.239024
0.257236
1.86323
6.9629
10.5208
14.1523
16.016
16.8434
16.9222
17.5872
23.0741
41.3974
73.5326
102.89
117.515
119.639
115.9
110.44
105.415
103.313
110.846
127.442
0.239039
0.238076
0.237131
0.23623
0.235452
0.235041
0.235367
0.236686
0.241038
0.252984
0.439186
14.3385
25.5236
36.4104
35.6719
29.2835
25.8606
26.598
33.5947
51.0726
78.9542
104.535
118.344
121.471
118.691
113.843
109.556
108.85
118.72
138.137
0.23904
0.238078
0.237136
0.236244
0.235493
0.235157
0.235615
0.237006
0.243152
0.257266
0.692879
36.6832
68.2904
80.7926
40.6561
31.7302
28.6468
31.3292
41.3726
59.6825
84.6943
106.886
119.623
123.308
121.439
117.407
114.069
114.877
127.05
148.934
0.239041
0.238081
0.237141
0.236255
0.235519
0.235201
0.235745
0.237242
0.242157
0.253915
0.443676
46.2211
68.5368
131.051
38.5275
30.1861
28.1287
32.1474
44.3827
65.4161
89.9655
109.93
121.47
125.313
124.162
121.013
118.815
121.446
136.186
160.276
0.23904
0.238081
0.237142
0.236254
0.235512
0.235194
0.23566
0.237346
0.241794
0.25469
0.287243
8.19647
79.9278
161.463
42.0691
32.524
29.1513
31.7026
43.812
67.0161
93.1192
112.597
123.451
127.331
126.803
124.663
123.956
129.053
146.812
173.008
0.23904
0.238079
0.237139
0.236245
0.235485
0.235112
0.235472
0.237013
0.241059
0.252309
0.272418
63.2807
106.768
140.622
39.5727
29.953
25.208
25.7241
36.4185
60.2583
89.9069
112.146
123.931
128.519
129.027
128.396
129.965
138.604
159.893
187.959
0.239039
0.238079
0.237136
0.236237
0.235454
0.235004
0.235236
0.236464
0.239645
0.248138
0.261705
11.0132
16.104
31.2249
17.8698
16.7094
15.2244
16.3938
26.2611
48.8438
79.559
106.219
121.159
127.86
130.469
132.502
137.822
151.422
176.626
205.841
0.23904
0.238079
0.237134
0.236228
0.235418
0.234875
0.23497
0.235832
0.238165
0.243556
0.269076
1.07192
1.39148
1.63372
2.19611
2.71877
3.61284
7.21697
18.1868
38.971
67.1416
95.779
114.919
125.215
131.508
138.107
149.256
169.012
197.716
227.185
0.239041
0.238078
0.237132
0.236219
0.235385
0.23476
0.234676
0.235232
0.236789
0.240086
0.249093
0.370639
0.443676
0.474849
0.512177
0.600518
1.31648
4.91889
14.8925
32.7814
56.9167
83.9881
106.564
121.71
133.707
147.325
166.431
192.336
223.142
252.117
0.23904
0.238078
0.237131
0.236212
0.235358
0.234668
0.234373
0.23468
0.235686
0.237768
0.241729
0.256352
0.272088
0.277885
0.284019
0.321141
0.861991
3.90065
12.4443
27.9118
49.0624
73.4764
97.9982
119.075
139.03
161.999
189.514
220.205
252.016
280.264
0.23904
0.238078
0.23713
0.236208
0.235341
0.234602
0.234161
0.234272
0.234906
0.23623
0.238432
0.241848
0.244843
0.246476
0.248214
0.267354
0.604425
2.84962
9.88026
23.4749
42.829
65.574
90.9375
118.15
148.019
181.855
217.061
250.596
282.361
310.089
0.23904
0.238078
0.23713
0.236206
0.23533
0.234559
0.234022
0.233964
0.234352
0.235226
0.236595
0.238157
0.239348
0.239899
0.240511
0.249616
0.431566
1.93565
7.45414
19.3783
37.4891
59.764
85.897
118.447
158.896
204.113
245.227
279.484
310.346
337.392
0.239041
0.23808
0.237133
0.236208
0.235328
0.234541
0.233947
0.233744
0.233983
0.234599
0.235532
0.236484
0.237005
0.236959
0.236992
0.240974
0.327316
1.25297
5.46375
15.8472
32.8637
54.778
81.8726
119.986
171.661
224.976
267.186
300.1
329.385
354.655
0.239047
0.238093
0.237152
0.236232
0.235356
0.234567
0.233955
0.233695
0.233868
0.234372
0.235121
0.235834
0.236045
0.235416
0.235067
0.236593
0.271172
0.790876
4.08063
13.2585
29.19
50.1077
77.5754
122.287
182.003
235.064
273.456
304.182
331.978
354.387
0.239039
0.238076
0.237122
0.236183
0.235267
0.234403
0.233653
0.233186
0.233252
0.233744
0.234727
0.236013
0.237272
0.241452
0.282034
0.566773
1.91491
6.56239
20.4381
64.4935
112.553
120.14
111.726
107.08
106.844
105.736
100.972
94.6596
89.2864
91.0176
0.239038
0.238074
0.23712
0.23618
0.235267
0.234413
0.233693
0.233304
0.233463
0.234093
0.235386
0.237527
0.240864
0.250487
0.319964
0.781657
2.78222
8.8801
23.467
59.8614
108.152
122.487
115.032
108.168
106.113
104.114
99.2092
93.0048
90.2997
96.2767
0.239038
0.238074
0.23712
0.236184
0.23528
0.234452
0.233807
0.23361
0.233969
0.234922
0.237631
0.247749
0.269539
0.303212
0.397209
0.935694
3.30171
10.3001
25.6112
55.676
100.284
122.748
119.277
110.977
106.219
103.035
98.6647
94.3326
96.3095
104.164
0.239038
0.238074
0.237122
0.23619
0.235301
0.234518
0.233997
0.234074
0.234721
0.23634
0.249948
0.333366
0.488227
0.64007
0.781622
1.21938
3.35407
10.3101
25.7238
53.2762
94.0197
121.257
122.689
114.92
108.463
104.183
100.327
98.1263
103.22
113.008
0.239038
0.238074
0.237124
0.236199
0.235331
0.234612
0.234283
0.234646
0.235708
0.239187
0.344603
0.897486
1.58606
2.0039
2.27284
2.69529
4.12695
9.70461
24.6652
52.321
90.5641
119.467
124.794
118.76
111.806
106.753
103.181
102.626
110.005
123.478
0.239038
0.238075
0.237127
0.23621
0.23537
0.234731
0.234692
0.235333
0.237246
0.24675
0.903377
3.20781
5.13116
5.84038
6.44609
7.09504
8.31293
12.3645
25.5264
53.0599
90.119
118.323
126.078
122.171
115.655
110.308
106.959
107.569
117.856
135.17
0.239038
0.238076
0.237131
0.236223
0.235412
0.234876
0.235032
0.23598
0.239533
0.268174
2.93932
10.0207
14.4362
14.958
15.2396
15.1886
15.3856
18.4192
30.546
57.0572
91.7358
117.835
127.091
125.341
119.898
114.773
111.824
113.714
126.864
147.351
0.239039
0.238077
0.237136
0.236236
0.23545
0.235039
0.235245
0.236944
0.240681
0.312777
8.43019
25.2968
31.5083
28.6801
24.3185
20.9558
20.1107
24.4994
38.318
63.6355
94.5655
118.161
128.254
128.419
124.335
119.86
117.572
120.853
136.492
159.448
0.23904
0.238079
0.237141
0.236248
0.235485
0.235116
0.235484
0.23708
0.243114
0.255004
1.32297
42.2403
53.8702
45.288
26.295
22.453
22.6133
29.1338
44.91
69.9331
98.0784
119.428
129.838
131.49
128.734
125.166
123.82
128.713
146.515
171.266
0.239041
0.238081
0.237145
0.236258
0.235505
0.23515
0.235572
0.237099
0.241596
0.254468
0.880497
34.7478
45.6286
34.9426
18.9714
17.6641
19.7117
28.3179
47.2115
74.4874
101.885
121.717
132.02
134.609
132.998
130.501
130.45
137.381
157.323
183.294
0.239041
0.238081
0.237145
0.236257
0.235503
0.235131
0.235495
0.236974
0.240597
0.250421
0.323299
4.31627
29.5808
20.7386
13.6533
14.3969
17.6963
27.3825
47.9328
77.0659
105.014
124.306
134.48
137.68
137.109
135.908
137.706
147.304
169.476
196.318
0.23904
0.238081
0.237142
0.236249
0.235479
0.235054
0.235325
0.236598
0.239804
0.247788
0.261634
5.09518
9.13967
12.209
11.0672
11.8719
14.4182
23.4386
43.8545
73.8646
104.557
125.348
136.177
140.25
140.955
141.609
146.158
159.218
183.725
211.075
0.23904
0.238081
0.237141
0.236243
0.235452
0.234956
0.235116
0.23611
0.238643
0.244908
0.279193
1.47629
1.96569
2.7123
3.67518
4.75173
7.74963
17.044
36.8384
65.7504
98.4091
122.723
135.737
141.631
144.474
148.125
156.712
174.064
200.946
228.125
0.239041
0.238081
0.237139
0.236235
0.235421
0.234847
0.23488
0.235576
0.237462
0.241486
0.254448
0.474249
0.583448
0.648358
0.744429
1.24877
4.10706
13.1867
31.1703
57.1393
88.5037
115.963
132.618
141.72
148.23
156.609
170.776
192.896
221.774
247.983
0.239041
0.238081
0.237138
0.236228
0.235393
0.234749
0.234574
0.235027
0.236307
0.238939
0.244469
0.277352
0.300273
0.31042
0.333768
0.683717
3.15255
11.0792
26.8902
49.9356
78.1798
106.788
127.759
141.58
153.724
168.723
189.442
216.008
246.237
271.095
0.239041
0.238081
0.237137
0.236222
0.235372
0.23467
0.234319
0.234554
0.235392
0.237094
0.240032
0.246088
0.251262
0.254091
0.264422
0.481362
2.2928
8.7795
22.6362
43.6496
69.3803
97.6544
122.973
143.228
162.937
185.836
212.817
242.935
273.841
297.859
0.239041
0.238081
0.237136
0.236219
0.235357
0.234615
0.234139
0.2342
0.234723
0.235825
0.237596
0.239886
0.241767
0.24304
0.248216
0.366073
1.54288
6.5355
18.4796
37.8774
62.4996
90.2782
119.634
147.883
176.709
207.628
239.605
271.962
302.987
327.594
0.239041
0.238081
0.237137
0.236218
0.235348
0.23458
0.234022
0.233889
0.234205
0.234939
0.236071
0.237352
0.238288
0.238818
0.24131
0.299618
1.0048
4.64996
14.7225
32.6997
56.8649
84.7849
117.626
154.39
193.339
231.456
266.123
299.061
329.929
355.936
0.239041
0.238082
0.237139
0.23622
0.235347
0.234563
0.233957
0.2337
0.233884
0.234396
0.235173
0.235972
0.236409
0.236438
0.237456
0.264284
0.66289
3.26256
11.6732
28.3194
51.8975
80.1591
116.231
161.579
209.588
251.215
285.503
317.26
347.326
373.204
0.239048
0.238096
0.237158
0.236244
0.235375
0.234591
0.233971
0.233665
0.233791
0.234206
0.23483
0.235417
0.235596
0.235096
0.235268
0.245555
0.441552
2.29764
9.54983
24.9856
47.486
75.3972
115.098
167.695
218.522
257.214
288.742
318.823
347.426
370.814
0.23904
0.238077
0.237125
0.236186
0.235271
0.234406
0.233647
0.233141
0.233137
0.233533
0.234378
0.23556
0.237653
0.258619
0.453051
1.52098
5.12679
13.2988
31.5757
79.4779
125.815
126.904
111.018
102.853
102.884
103.355
100.407
96.3706
94.7798
103.566
0.239039
0.238075
0.237122
0.236184
0.235272
0.234415
0.233683
0.233248
0.233342
0.23387
0.234977
0.236723
0.240597
0.274008
0.55247
1.98847
6.48642
16.3216
35.0503
75.4326
122.818
131.18
116.373
105.151
102.511
101.64
98.7206
95.1685
98.4805
107.922
0.239039
0.238075
0.237123
0.236187
0.235283
0.23445
0.233784
0.233524
0.233812
0.234652
0.236652
0.242337
0.25604
0.304525
0.626817
2.2533
7.31244
18.3053
37.822
71.7102
116.263
133.251
122.67
109.393
103.295
101.148
99.2487
98.8734
106.108
114.97
0.239039
0.238076
0.237124
0.236192
0.235301
0.234507
0.23395
0.23397
0.234539
0.235945
0.242631
0.28297
0.374126
0.496412
0.810477
2.36671
7.53882
18.9798
38.8588
70.0463
111.118
133.252
127.711
114.884
106.735
103.532
102.397
104.36
113.07
124.047
0.239039
0.238076
0.237126
0.2362
0.235326
0.234588
0.234195
0.234484
0.235475
0.238162
0.280117
0.560909
1.04159
1.40932
1.72326
2.85476
7.25193
18.4194
38.9143
70.1093
108.432
132.434
131.064
120.223
111.53
107.444
106.506
109.631
120.319
135.365
0.239039
0.238077
0.237129
0.23621
0.235359
0.234691
0.234535
0.235143
0.236765
0.242869
0.507936
1.82085
3.37814
4.2516
4.99414
6.13343
9.54804
19.356
39.8187
71.6882
108.1
131.621
133.365
125.1
116.967
112.372
111.264
115.228
129.428
148.107
0.239039
0.238077
0.237132
0.23622
0.235395
0.234804
0.234885
0.235762
0.238596
0.253822
1.43803
5.54316
9.51479
11.4734
12.5541
13.1186
15.3261
23.7266
43.4582
74.7678
108.929
131.088
135.307
129.828
122.938
118.33
117.315
122.533
139.94
161.349
0.23904
0.238079
0.237137
0.236231
0.235428
0.234922
0.235135
0.236315
0.240603
0.277775
4.08464
14.0523
20.6859
20.6425
18.287
16.9152
19.0086
28.6635
49.2296
79.1606
110.472
131.32
137.378
134.521
129.189
125.066
124.543
131.222
151.069
174.41
0.239041
0.238081
0.237143
0.236242
0.235453
0.235008
0.235245
0.236885
0.240621
0.324694
9.90897
22.0059
23.7463
19.5198
16.4719
15.8912
19.6545
31.5224
53.8743
83.6806
112.85
132.415
139.775
139.101
135.355
132.116
132.557
140.919
162.458
186.99
0.239042
0.238083
0.237147
0.236251
0.235468
0.235037
0.235296
0.23676
0.240233
0.273238
4.00401
10.404
12.6457
12.5562
11.9086
12.3779
16.9947
30.8657
56.2639
87.6287
115.771
134.347
142.556
143.517
141.249
139.218
141.187
151.611
174.599
199.609
0.239042
0.238083
0.237145
0.23625
0.235468
0.235007
0.235248
0.236423
0.239464
0.250472
1.01005
3.09501
4.65914
4.90621
5.22459
7.04875
13.7962
30.3809
57.8752
90.3833
118.417
136.745
145.539
147.706
146.817
146.422
150.603
163.536
187.895
212.733
0.239041
0.238083
0.237142
0.236243
0.23545
0.234944
0.2351
0.236062
0.238501
0.244594
0.358859
0.9368
1.29213
1.32866
1.86673
4.1911
11.8735
29.0437
56.044
89.1967
119.122
138.372
148.026
151.38
152.095
154.001
161.234
177.11
202.826
226.816
0.239042
0.238082
0.237141
0.236238
0.235428
0.234866
0.234916
0.235654
0.237558
0.241828
0.264983
0.479889
0.576168
0.62403
0.882839
2.86287
10.1918
26.2522
51.4079
83.5959
115.763
137.547
149.019
154.155
157.234
162.517
173.822
192.965
219.868
242.424
0.239042
0.238082
0.23714
0.236232
0.235404
0.234779
0.234662
0.235184
0.236592
0.239544
0.246996
0.290102
0.31738
0.330519
0.485043
2.11704
8.60112
23.169
46.1578
75.7804
108.539
133.638
148.074
156.131
162.898
172.963
189.37
212.011
239.754
260.186
0.239041
0.238082
0.237139
0.236227
0.235382
0.234701
0.234408
0.234719
0.235697
0.237674
0.241308
0.250065
0.257181
0.262782
0.361512
1.55866
6.82959
19.5921
40.6991
68.0033
99.5418
127.434
145.913
158.356
170.452
186.611
208.496
234.586
262.706
281.125
0.239041
0.238082
0.237138
0.236223
0.235365
0.234639
0.234208
0.234334
0.234968
0.236267
0.238421
0.24147
0.244101
0.247049
0.301097
1.06129
4.99211
15.7955
35.104
61.0745
91.0193
120.941
144.446
162.848
181.734
204.528
231.561
260.683
288.958
306.706
0.239041
0.238082
0.237138