/*--------------------------------*- C++ -*----------------------------------*\
| =========                 |                                                 |
| \\      /  F ield         | OpenFOAM: The Open Source CFD Toolbox           |
|  \\    /   O peration     | Version:  2512                                  |
|   \\  /    A nd           | Website:  www.openfoam.com                      |
|    \\/     M anipulation  |                                                 |
\*---------------------------------------------------------------------------*/
FoamFile
{
    version     2.0;
    format      ascii;
    arch        "LSB;label=32;scalar=64";
    class       volScalarField;
    location    "80";
    object      k;
}
// * * * * * * * * * * * * * * * * * * * * * * * * * * * * * * * * * * * * * //

dimensions      [0 2 -2 0 0 0 0];

internalField   nonuniform List<scalar> 
90398
(
0.232145
0.226819
0.326137
1.92009
8.90541
25.2276
51.1382
78.3135
96.61
105.893
107.731
103.783
98.8254
95.0355
99.468
135.796
253.594
408.751
523.04
584.067
605.653
600.432
576.968
541.494
499.492
455.963
415.227
375.692
336.809
279.613
0.232197
0.229712
0.459562
3.15308
13.0414
33.8453
62.5992
89.2858
107.242
116.326
118.127
114.281
107.287
101.154
101.367
126.654
215.947
367.684
492.953
564.603
593.8
593.761
573.622
539.934
498.455
454.45
412.656
372.682
335.346
283.55
0.232316
0.238498
0.774275
5.13891
18.568
44.592
77.6361
105.884
123.874
132.02
132.394
127.557
119.131
109.716
104.456
117.122
180.145
311.126
444.259
528.397
567.472
574.565
559.432
529.145
489.694
446.618
405.11
365.958
331.111
284.629
0.232577
0.262862
1.3864
7.96159
26.5175
59.1367
96.5019
126.28
143.527
148.98
145.952
139.214
130.277
118.523
108.773
110.595
150.607
249.212
381.014
477.357
527.982
543.876
535.207
509.623
473.414
432.497
392.435
354.974
323.074
281.828
0.233143
0.31808
2.29334
11.8733
36.7428
76.7029
117.601
147.675
162.437
161.822
152.051
142.774
135.344
124.844
112.762
107.003
127.39
198.567
308.135
412.573
476.047
502.601
501.972
482.27
450.353
412.566
374.867
339.811
311.212
275.255
0.234283
0.422762
3.50661
16.6009
47.9772
94.176
137.974
166.831
176.356
163.283
144.267
132.737
128.852
123.657
112.732
103.679
110.026
155.722
241.764
337.591
412.696
451.731
460.694
447.985
421.206
387.296
352.685
320.665
295.734
265.163
0.236039
0.567829
4.85849
21.316
58.0188
107.783
152.222
178.753
179.682
152.22
133.093
124.727
125.29
125.832
113.323
101.033
97.7858
121.336
184.3
266.725
340.928
392.281
412.292
407.614
386.638
357.104
326.145
297.769
276.93
251.873
0.238099
0.713646
5.99913
24.883
64.5499
115.216
158.646
181.421
165.773
115.756
85.2154
85.5652
77.4948
72.951
112.642
95.9014
87.0591
94.5257
134.847
203.693
274.599
327.731
357.302
361.284
346.628
322.975
297.176
272.257
255.166
235.766
0.239774
0.818474
6.6977
26.5083
66.2708
115.281
156.505
175.798
125.087
85.7754
129.789
100.965
66.5277
48.8423
100.746
82.6197
73.2751
72.577
93.7358
147.001
213.886
270.043
304.526
315.39
308.141
290.588
269.261
247.918
231.849
217.346
0.240363
0.849676
6.84367
26.0064
62.8336
107.945
146.095
163.629
114.334
98.615
81.0729
91.3822
48.8472
28.5477
89.3149
79.652
70.6703
63.1611
66.1932
98.588
158.021
216.257
255.683
272.391
270.84
258.198
240.91
223.101
209.757
197.315
0.239607
0.804709
6.4426
23.5881
55.3616
94.5753
129.024
146.709
107.372
114.808
68.2712
36.5291
44.2642
109.275
95.5089
85.4982
76.2961
67.965
71.634
109.54
166.006
209.695
231.328
234.348
225.793
212.146
197.702
187.545
178.283
0.237992
0.701264
5.47959
19.7969
45.1306
76.7139
106.207
124.14
98.1911
93.6483
48.6716
60.0554
64.1607
68.7882
109.981
95.2442
84.4295
76.7324
70.0536
65.4547
78.1364
121.676
167.031
192.616
199.181
193.921
183.467
172.134
165.143
159.417
0.236183
0.575551
4.30441
15.4378
34.7351
58.8441
82.8937
101.007
110.709
84.3391
60.8829
51.6858
46.3392
60.6146
85.7139
78.4109
71.9924
66.9048
62.7785
59.539
62.5847
88.3903
129.64
157.17
166.077
163.299
155.53
147.005
142.942
140.642
0.234739
0.462512
3.20646
11.2873
25.1633
42.7862
61.1083
76.7115
88.4103
95.0933
89.9346
80.7969
75.5017
77.2167
74.6064
67.7714
62.4847
58.3475
54.3036
52.548
53.6807
67.8973
100.123
126.483
136.084
134.747
129.098
123.082
121.563
122.251
0.233817
0.37978
2.29667
7.79345
17.0491
28.7693
40.7415
51.0736
60.9437
71.0875
73.1877
67.9189
72.1388
79.8384
67.8605
59.3245
57.428
57.7697
49.2627
46.6502
47.8954
57.2078
80.5489
102.195
110.087
109.115
105.099
101.384
101.82
104.687
0.233313
0.327163
1.59367
5.11008
10.8429
17.2603
22.5238
26.6818
32.262
40.272
46.2065
55.162
80.6656
77.3401
56.0125
55.7824
63.7775
75.4565
61.5233
43.8507
45.9424
54.0677
70.8264
84.4828
88.7044
87.4447
84.8477
83.1666
84.545
88.95
0.233036
0.298324
1.1353
3.28811
6.40457
9.47326
11.8561
15.588
24.0321
32.5645
43.6346
71.474
100.222
50.591
52.2941
62.3488
71.2081
72.9546
61.893
50.1592
52.6598
58.5116
66.1422
71.4375
72.2574
70.8329
69.4584
69.1014
70.277
72.8227
0.232913
0.284793
0.88083
2.19563
3.81889
5.33189
6.87937
13.42
28.4713
40.9206
66.546
86.9149
55.1898
42.9338
56.5835
65.8303
72.6083
72.0151
66.5305
60.9155
59.2475
60.2233
61.1248
61.1039
59.9296
58.4805
57.3345
56.3053
54.9139
52.1694
0.232777
0.279393
0.755377
1.63613
2.58063
3.44661
4.77366
16.2918
38.5366
49.8054
58.1825
62.2145
35.0991
44.5486
57.8401
65.1203
69.6318
68.7817
65.6558
62.2922
59.3498
56.7957
54.7345
53.5806
52.6023
51.9297
51.5194
51.236
51.1278
51.6878
0.232794
0.277617
0.690373
1.36869
2.05051
2.64952
4.05245
23.5881
47.4071
48.1612
41.5605
41.2548
29.2501
44.2522
58.1818
65.0198
68.9711
68.7701
66.9996
64.8876
62.7085
60.7732
59.3108
58.5535
58.6143
59.4222
60.7147
62.2355
63.8951
65.2157
0.240747
0.287476
1.64349
11.313
39.5068
92.6531
159.377
215.36
247.799
261.687
262.422
255.534
246.759
250.89
298.924
449.386
702.941
948.821
1128.42
1238.07
1291.36
1302.53
1282.26
1238.13
1176.25
1101.25
1017.71
925.431
828.97
725.833
0.241831
0.353701
2.81503
16.3315
50.967
110.402
179.276
233.573
265.445
278.693
278.477
269.943
259.483
257.749
291.169
408.827
641.234
891.206
1083.55
1204.86
1266.87
1284.15
1268
1226.54
1165.97
1091.85
1008.96
918.299
825.148
727.476
0.24506
0.527347
4.91947
23.9461
68.0823
137.022
210.233
263.607
294.204
305.52
302.908
292.039
278.571
269.083
282.198
358.664
541.356
788.248
994.743
1132.74
1208.86
1237.06
1229.15
1193.66
1137.5
1066.93
987.241
900.755
813.758
723.839
0.253725
0.901994
8.10766
34.5195
91.2677
171.423
247.98
301.361
329.833
337.423
330.519
316.735
301.063
285.003
279.685
317.278
443.375
660.828
874.354
1029.89
1123.66
1166.57
1170.33
1143.57
1094.43
1029.49
954.941
874.244
794.64
713.309
0.273733
1.53805
12.5904
48.2414
118.892
210.308
289.392
341.593
366.552
367.679
353.138
336.286
321.089
302.473
283.141
288.964
360.523
522.531
729.804
900.803
1014.84
1076.08
1094.39
1079.05
1038.77
981.086
913.081
839.294
767.762
695.479
0.313441
2.47944
18.19
63.7593
147.493
247.175
327.86
378.221
398.146
387.403
358.046
339.909
331.009
316.112
288.282
270.973
297.785
400.77
571.333
751.202
886.543
969.271
1004.62
1002.62
972.559
923.197
862.632
796.475
733.408
670.393
0.372417
3.60344
24.0052
78.5044
171.986
275.21
355.997
404.43
418.957
384.205
339.258
329.728
338.171
329.86
296.46
261.551
255.003
305.45
426.303
590.222
744.223
849.288
904.268
916.953
897.921
857.355
804.657
746.544
692.197
638.512
0.436877
4.65297
28.7213
89.6322
187.82
290.544
369.59
416.003
426.825
356.447
285.127
302.004
319.664
306.183
294.376
250.929
225.362
238.153
310.182
440.868
592.958
719.381
795.699
824.098
816.472
783.861
738.954
689.567
644.811
600.568
0.486696
5.40932
31.5444
95.0425
192.8
291.065
366.986
412.555
388.879
319.273
387.315
354.433
345.843
285.773
278.242
236.585
204.369
195.127
228.785
319.542
452.251
584.864
678.412
722.483
726.311
703.415
667.21
626.684
591.871
557.42
0.504905
5.71368
32.1142
94.0587
186.047
277.102
348.476
393.315
369.553
317.333
426.749
317.577
514.626
249.714
262.254
234.603
200.239
174.591
179.923
234.308
337.377
460.585
561.878
618.101
632.601
619.086
591.539
559.689
534.457
510.062
0.487191
5.51867
30.5401
87.4669
170.265
251.967
317.182
360.301
346.335
342.425
274.569
303.537
275.425
238.196
200.228
175.913
187.849
254.146
357.151
455.586
517.944
540.322
534.702
514.935
490.984
474.364
459.689
0.442841
4.87707
27.2118
76.7883
148.148
218.63
276.229
316.635
318.163
304.778
154.413
227.953
218.187
181.337
282.59
250.352
222.555
194.185
171.556
167.29
200.512
278.049
366.186
428.266
454.413
454.147
440.51
423.169
413.763
407.816
0.389351
4.01922
22.8846
63.4192
121.417
179.602
228.561
263.955
288.073
271.049
235.138
202.56
232.595
245.306
231.433
211.616
192.993
173.565
154.916
149.124
167.228
222.808
296.652
352.982
378.629
380.821
371.258
358.942
355.083
356.18
0.342759
3.16422
18.3878
49.5654
94.1381
141.532
181.488
210.67
232.882
240.248
224.827
204.505
204.926
221.533
218.444
199.567
184.339
171.999
152.405
139.737
147.9
186.759
246.099
294.058
315.662
317.257
309.762
301.091
301.125
307.15
0.309949
2.44479
14.2974
37.0801
69.2251
105.865
138.196
161.822
180.385
193.644
194.13
192.96
220.881
247.135
217.802
182.383
179.343
188.962
169.108
142.347
141.479
167.939
214.142
250.948
265.164
264.932
258.883
253.523
255.854
264.908
0.289927
1.90891
10.8628
27.0598
48.5935
73.0933
95.0636
112.667
130.073
148.004
163.439
197.508
252.824
235.403
161.585
154.212
191.044
214.539
185.02
150.603
148.596
167.973
199.684
221.683
228.217
225.953
221.477
219.393
223.701
236.427
0.279263
1.56789
8.37313
19.8759
33.365
46.6962
58.9359
76.6105
101.332
125.837
164.639
230.134
230.904
157.426
135.515
161.256
193.1
199.468
182.923
170.19
170.956
181.598
196.656
204.228
203.345
198.735
194.612
193.731
198.002
207.118
0.274235
1.3846
6.80414
15.0763
23.4208
30.9277
40.2772
70.4218
109.723
141.356
191.799
196.238
152.008
125.789
133.923
159.929
178.686
182.977
181.386
182.626
184.548
186.635
187.059
183.036
176.138
169.308
164.288
161.381
159.688
154.241
0.271848
1.30476
5.9523
12.283
18.0735
22.9135
33.6713
85.2436
131.553
143.76
150.275
142.7
127.385
117.078
127.465
144.958
153.702
156.278
159.841
163.607
164.622
162.069
157.236
150.909
145.152
140.971
138.181
135.9
132.707
125.539
0.270877
1.27631
5.54878
10.9583
15.5873
19.464
32.8399
103.801
131.182
130.988
133.567
129.422
122.783
113.365
120.386
131.741
135.923
136.526
138.675
140.885
141.246
139.825
137.459
134.956
132.948
131.583
130.805
130.569
129.871
127.568
0.244753
0.514948
4.90518
25.4425
74.9556
154.602
237.851
298.123
334.568
352.514
357.086
356.073
360.319
390.926
487.173
701.506
972.218
1215.99
1400.44
1524.84
1598.34
1630.93
1629.92
1600.18
1545.3
1469.36
1375.78
1266.77
1151.12
1033.91
0.251137
0.811344
7.59802
34.0203
91.6439
176.904
260.978
320.896
357.196
373.935
376.316
371.539
371.371
393.83
473.25
657.291
918.329
1163.94
1354.48
1485.58
1564.88
1602.08
1604.67
1577.62
1525.23
1451.27
1359.95
1253.68
1141.86
1029.83
0.269239
1.42739
11.9565
47.3119
117.581
211.82
297.385
357.331
393.012
407.694
407.067
398.451
391.476
400.286
451.461
589.049
819.044
1058.87
1256.79
1399.3
1490.01
1537.17
1547.92
1527.77
1481.3
1412.37
1326.22
1225.81
1121.36
1017.69
0.312373
2.48151
18.2888
65.6036
151.629
255.64
342.934
403.442
437.566
448.947
444.388
432.507
420.157
415.538
437.413
524.106
699.487
921.729
1122.27
1277.24
1383.2
1444.74
1467.7
1457.78
1419.67
1358.22
1279.14
1186.37
1090.75
996.705
0.399116
4.15805
27.1623
88.3697
190.724
303.279
392.581
452.784
484.401
491.151
481.686
467.559
453.048
438.268
434.503
472.999
586.25
765.326
960.37
1126.57
1250.5
1330.16
1369
1371.8
1343.88
1291.43
1220.67
1136.59
1050.47
966.559
0.5553
6.51267
37.8972
113.22
229.452
347.259
438.515
497.849
526.336
526.637
510.51
496.932
485.108
464.648
439.981
437.602
489.728
612.292
782.087
955.274
1098.36
1199.48
1256.71
1273.71
1257.33
1214.53
1152.63
1077.69
1001.23
927.527
0.77456
9.24286
48.8002
136.239
261.309
380.71
472.434
531.101
556.999
547.37
522.845
518.032
516.964
492.411
449.574
414.63
414.947
477.111
606.862
773.573
934.315
1057.86
1135.31
1167.73
1163.18
1130.05
1076.98
1011.16
944.249
880.509
1.01448
11.7202
57.7849
153.485
280.823
398.455
488.744
546.761
573.576
549.989
504.04
502.777
514.96
481.176
447.236
391.443
357.787
369.751
450.801
596.727
765.264
910.919
1008.45
1056.82
1063.9
1039.97
995.182
938.384
880.942
826.791
1.21646
13.5185
63.1895
161.579
286.064
398.512
485.425
543.349
551.696
516.031
553.315
559.056
561.615
473.602
415.118
357.03
312.61
295.471
331.394
441.094
603.185
762.295
878.709
942.173
960.044
944.656
908.224
860.367
812.712
767.792
1.32591
14.3853
64.5161
159.87
276.664
381.147
463.077
519.862
538.824
511.831
601.609
254.758
495.619
522.186
369.566
333.455
289.464
256.331
258.579
325.217
461.06
620.762
749.752
825.682
853.178
845.867
817.507
778.478
740.505
704.955
1.32134
14.2821
62.2568
150.673
256.673
350.916
425.854
480.192
510.162
540.458
495.704
301.81
417.221
374.851
323.812
272.642
241.894
260.015
353.09
496.305
627.679
711.048
745.79
745.479
724.698
694.223
665.763
639.501
1.21947
13.3994
57.3609
136.105
229.503
311.527
378.007
428.652
466.539
481.49
387.407
405.359
486.901
370.379
402.682
355.722
312.717
271.782
239.718
233.389
283.89
396.414
519.088
603.168
641.453
646.174
631.985
609.486
590.154
572.705
1.06457
12.0642
50.8431
117.341
196.956
267.01
324.402
368.696
404.193
410.15
378.01
368.971
390.396
396.981
343.595
309.388
279.991
251.683
226.366
216.532
243.001
325.506
430.912
507.92
544.351
551.519
542.332
526.824
515.856
506.34
0.907796
10.6176
43.8951
97.2216
161.825
221.794
270.451
307.465
335.831
347.088
340.339
324.286
322.698
331.436
316.794
290.437
270.754
250.96
224.979
208.11
220.647
279.616
364.182
429.355
459.753
465.85
459.48
449.817
445.993
443.04
0.778017
9.29103
37.6476
78.8377
128.026
178.102
219.156
248.898
271.361
285.872
290.829
296.783
328.733
349.724
310.949
278.705
278.743
270.077
240.073
212.107
213.525
255.396
321.119
369.251
389.413
392.921
388.42
383.669
385.317
387.577
0.684487
8.24584
32.3794
63.7965
98.1474
134.607
166.377
190.833
212.522
232.511
253.715
298.037
359.241
330.982
250.452
256.855
288.365
290.087
254.425
223.991
222.788
253.946
297.813
325.995
335.978
336.131
333.34
332.86
338.07
345.824
0.628469
7.54873
28.4119
52.4867
75.0851
96.1716
114.481
137.501
170.381
205.184
255.935
334.914
324.466
230.535
219.934
255.077
276.636
277.048
257.052
243.355
245.753
264.448
285.321
295.476
296.056
292.987
290.679
292.006
297.356
306.131
0.601292
7.17537
25.7512
44.6289
59.6439
70.8985
82.6844
117.183
171.182
217.918
280.768
269.551
207.502
187.303
207.986
235.299
248.42
252.292
250.806
251.637
255.046
261.391
264.476
261.853
256.485
251.364
248.379
247.6
247.866
246.7
0.592907
7.04137
24.2093
39.887
50.7761
57.4129
69.6507
128.842
192.577
205.002
198.491
175.568
160.633
167.426
188.192
204.814
211.31
216.674
224.29
231.042
233.686
232.817
229.052
223.771
218.853
215.227
212.842
210.81
207.954
202.087
0.592129
7.0247
23.4403
37.4101
46.3313
51.3208
66.4371
148.019
178.594
165.775
152.211
144.046
144.071
154.018
171.632
183.717
188.007
192.778
200.03
206.636
208.808
207.346
204.439
201.387
199.031
197.489
196.117
193.996
190.783
186.173
0.25851
1.12965
10.7295
46.4154
118.699
214.156
299.342
361.671
403.997
427.62
437.946
444.676
462.564
519.571
663.846
907.669
1166.99
1390.3
1560.83
1681.91
1761.71
1807.44
1823.29
1811.21
1772.53
1708.51
1622.61
1516.71
1401.04
1282.01
0.282655
1.88315
15.4399
58.7535
138.721
237.932
324.404
388.242
430.28
452.162
459.37
462.163
475.447
523.794
648.502
871.257
1122.43
1343.57
1514.81
1638.44
1721.23
1769.86
1788.39
1778.86
1742.55
1681.31
1598.37
1495.58
1384.38
1270.63
0.34219
3.24146
22.8494
77.9881
170.499
276.29
365.04
430.748
472.255
491.819
495.567
493.059
498.346
530.405
622.895
802.31
1030.93
1243.34
1415.18
1544.64
1635.28
1691.86
1717.75
1714.87
1684.54
1629.11
1551.91
1455.53
1351.93
1247.04
0.464016
5.40361
33.5623
104.124
212.311
325.443
417.503
484.427
524.72
541.369
541.81
535.669
533.004
547.791
604.751
731.216
917.523
1109.87
1277.76
1413.55
1515.52
1584.51
1621.87
1628.89
1607.42
1559.92
1490.21
1401.96
1307.3
1212.48
0.707204
8.78347
47.9865
135.876
259.726
379.09
474.296
541.665
580.249
593.732
591.383
583.672
576.33
575.347
598.443
669.7
796.338
955.356
1112.85
1254.1
1370.02
1455.27
1507.53
1527.28
1516.2
1477.82
1416.69
1337.36
1252.06
1167.64
1.12753
13.3845
64.837
169.402
305.229
429.05
526.498
593.587
630.377
640.74
636.232
628.911
620.025
607.15
600.821
620.973
684.442
792.658
930.454
1075.11
1206.79
1311.45
1381.56
1415.5
1415.77
1386.67
1334.27
1263.91
1187.88
1113.6
1.6836
18.6278
81.6929
199.305
341.109
466.609
564.798
631.649
667.241
674.449
670.21
668.991
663.792
639.391
605.783
582.151
586.987
639.758
745.896
886.722
1033.73
1159.79
1249.67
1298.51
1310.07
1289.99
1245.79
1183.96
1116.75
1051.99
2.28856
23.5123
95.7
220.418
361.983
485.819
582.603
648.919
685.186
688.543
663.323
676.94
686.015
644.69
598.816
540.471
500.786
503.287
571.108
701.181
859.556
1006.8
1116.06
1180.03
1201.92
1190.12
1153.33
1099.5
1040.65
984.669
2.80075
27.1472
104.449
229.599
365.976
484.516
577.585
642.662
683.52
691.01
712.154
773.64
787.986
674.702
547.298
478.95
422.318
394.089
423.222
531.544
693.644
857.285
984.521
1061.33
1092.45
1087.69
1057.7
1011.49
961.203
913.372
3.11588
29.1637
107.436
227.778
354.443
463.964
551.198
613.985
657.861
664.372
724.78
616.324
524.828
563.166
482.175
429.131
373.706
329.944
325.398
397.613
546.673
717.896
856.869
943.866
982.318
983.629
959.957
921.106
879.106
839.551
3.21678
29.728
105.715
217.581
331.57
429.335
508.364
567.536
614.359
644.279
619.754
1020.37
756.994
383.841
514.043
452.363
390.159
330.683
293.542
317.542
431.368
593.713
736.565
829.104
872.468
878.679
860.904
829.31
795.614
764.037
3.14636
29.2338
100.707
201.699
301.612
385.526
454.643
508.988
554.415
566.92
546.293
747.258
679.41
704.933
498.971
435.187
380.992
331.391
290.734
284.012
354.696
492.292
628.303
720.093
764.693
774.137
761.679
737.245
711.971
688.039
2.97442
28.1353
93.7054
181.908
267.321
337.63
396.459
444.781
481.57
496.284
498.84
504.623
508.029
514.353
433.296
388.918
351.89
316.79
284.265
269.629
309.573
417.255
537.356
620.641
661.886
672.456
664.372
646.797
629.93
613.17
2.78521
26.9406
86.2553
160.759
232.06
290.126
339.18
379.555
410.667
427.583
434.716
427.962
424.177
422.58
397.969
367.098
344.121
318.406
286.756
265.832
286.622
367.246
465.037
534.442
568.34
577.348
572.303
561.106
552.317
542.001
2.64673
26.0358
79.931
141.102
197.149
245.66
285.313
316.67
341.571
359.837
372.419
387.17
415.773
425.478
386.914
359.858
354.021
335.69
300.289
273.275
281.168
340.329
414.394
464.279
487.392
493.557
490.498
485.111
483.364
478.737
2.57748
25.5291
74.9771
124.46
165.489
202.146
232.334
256.298
278.602
301.267
330.458
379.694
433.018
401.249
335.504
343.091
358.865
348.958
312.976
287.847
293.279
334.712
381.27
410.088
422.554
425.081
423.849
423.355
426.232
427.284
2.57311
25.3966
71.2983
111.401
139.592
160.939
177.453
198.572
232.834
272.57
328.684
404.461
397.62
303.824
296.115
321.629
336.37
333.72
316.278
305.035
311.805
335.511
357.194
368.148
371.171
370.733
370.052
371.858
375.868
381.118
2.61923
25.5783
68.8284
102.033
120.945
130.345
137.548
166.439
225.734
279.392
347.932
337.532
268.661
247.584
267.548
286.565
297.094
301.73
303.163
305.297
312.217
321.367
326.288
326.133
323.709
321.434
320.339
321.042
322.625
324.723
2.69101
25.9307
67.2885
95.7227
109.079
112.402
117.988
168.159
244.583
257.354
244.687
218.35
204.999
215.958
236.027
248.43
255.287
262.949
272.919
281.039
286.298
287.926
286.472
283.581
280.845
279.022
278.161
277.676
276.844
274.48
2.73713
26.1552
66.1304
91.6155
102.583
103.705
111.373
185.145
224.612
200.891
179.035
170.337
176.762
194.815
213.721
224.73
231.1
238.886
248.754
255.908
259.137
259.004
257.349
255.579
254.464
254.08
254.085
253.696
252.079
247.519
0.295731
2.36411
19.6992
73.1296
162.751
263.132
351.069
421.941
471.906
501.811
518.789
533.269
566.785
658.422
847.757
1098.63
1338.35
1534.82
1681.79
1786.5
1858.33
1903.97
1926.25
1925.42
1901.04
1853.03
1782.86
1691.33
1587.88
1476.28
0.362282
3.81943
26.727
88.5565
184.712
289.13
380.181
452.118
501.419
529.354
542.918
555.286
585.513
666.701
834.045
1070.26
1300.65
1491.09
1635.33
1740.04
1813.11
1860.41
1884.55
1885.74
1863.54
1817.91
1750.32
1661.78
1562.78
1456.63
0.511428
6.29961
37.8351
113.328
221.169
332.137
427.413
500.833
549.402
575.06
585.397
593.125
616.006
679.38
812.873
1013.35
1219.55
1396.2
1535.44
1641.68
1719.86
1773.53
1804.09
1811.35
1794.85
1754.57
1692.39
1609.71
1517.57
1420.3
0.79464
10.1633
53.9634
147.305
269.739
388.295
487.766
562.32
609.85
633.241
641.261
645.781
660.286
703.72
798.141
947.913
1116.59
1269.76
1398.85
1505.95
1591.87
1656.08
1697.24
1714.03
1705.86
1673.02
1617.9
1542.73
1458.65
1371.17
1.35959
16.1233
75.2179
188.026
324.439
449.966
552.563
627.627
673.968
695.517
702.385
705.213
712.527
736.163
790.219
881.817
999.975
1120.98
1235.64
1342.98
1439
1517.5
1572.85
1601.82
1603.58
1579.34
1532.04
1464.88
1389.11
1311.5
2.26998
24.0008
99.3548
229.613
376.652
506.951
611.213
686.184
731.467
751.845
758.488
759.989
760.59
765.93
783.522
819.766
878.234
956.88
1054
1161.48
1270.17
1366.43
1438.9
1481.81
1494.33
1478.64
1439.04
1379.67
1311.86
1243.52
3.44391
32.7697
122.937
265.296
417.271
549.389
653.674
727.933
772.522
792.318
800.668
802.502
799.057
788.332
773.253
760.432
762.276
794.004
865.427
970.714
1093.65
1210.4
1301.97
1359.55
1382.84
1375.22
1342.46
1290.21
1229.69
1169.68
4.70721
40.8905
142.176
289.991
440.744
570.264
672.39
745.354
789.659
809.056
829.791
843.163
842.118
807.887
751.173
694.727
649.207
636.788
680.53
782.468
919.169
1056.33
1166.98
1239
1271.75
1271.26
1244.52
1198.64
1144.82
1092.2
5.82973
47.2795
154.467
301.026
445.03
567.584
664.863
735.201
779.118
798.699
818.269
869.122
872.403
802.339
682.737
606.143
538.046
497.009
513.379
607.064
755.629
910.988
1038.23
1121.54
1162.19
1167.11
1145.56
1105.54
1058.54
1012.68
6.64533
51.5886
160.143
299.771
431.794
543.433
633.415
699.78
742.046
766.684
807.881
862.654
842.779
746.461
609.635
532.478
462.491
406.744
394.867
465.657
612.822
779.402
917.159
1008.35
1053.77
1062.9
1045.9
1011.5
971.115
932.098
7.15272
54.0876
160.807
290.098
406.714
503.987
583.766
645.087
686.005
710.896
739.846
813.112
800.975
755.429
600.535
525.971
455.237
389.448
348.418
378.228
501.656
664.597
805.343
898.613
946.436
958.458
945.571
916.797
883.206
850.734
7.44584
55.4483
158.321
275.438
374.843
455.313
523.135
578.82
618.963
638.81
665.84
716.611
707.4
699.917
565.277
500.177
442.27
387.791
341.611
339.691
426.959
571.864
704.792
794.458
841.042
854.201
845.078
822.062
795.598
769.509
7.63677
56.4149
154
257.704
340.005
403.934
459.61
508.511
545.463
565.698
586.607
585.362
571.048
552.259
505.45
459.299
420.549
381.737
341.625
326.281
382.56
501.371
617.941
697.384
739.013
751.963
746.015
728.737
709.745
689.814
7.87324
57.519
149.268
239.574
306.165
355.139
399.009
438.637
471.12
492.903
508.716
512.598
510.127
500.529
470.903
440.573
418.036
388.435
349.512
325.983
359.766
451.606
545.824
610.059
643.589
654.51
651.034
639.667
628.21
613.984
8.22599
58.9275
145.374
222.843
274.717
311.79
343.714
372.185
397.911
420.296
441.127
465.173
491.514
491.367
454.491
433.895
425.908
401.287
361.418
335.086
354.021
421.759
489.925
535.043
558.306
566.425
564.791
559.03
554.474
545.449
8.69945
60.7368
142.674
208.232
246.993
273.107
293.332
312.366
334.109
360.234
396.936
449.125
493.533
460.586
407.687
410.419
416.782
400.298
368.451
348.875
362.488
406.033
447.335
473.621
487.013
491.723
491.814
490.745
490.864
486.732
9.26082
62.774
140.854
196.379
223.919
237.095
244.172
257.454
288.532
330.281
389.07
459.562
453.062
367.482
357.988
370.418
378.212
375.351
363.824
357.029
368.832
392.436
411.818
423.082
428.418
430.282
430.982
432.266
434.065
434.367
9.85584
64.823
139.704
187.204
205.619
207.158
203.38
220.32
275.239
330.932
397.109
389.865
323.191
299.659
312.015
322.766
329.708
335.142
340.018
346.261
356.512
366.587
372.519
375.009
375.748
375.922
376.33
377.55
378.769
379.838
10.3893
66.5882
138.977
180.7
192.88
187.353
179.747
213.656
288.667
303.824
288.382
261.9
247.97
257.717
273.634
282.43
288.955
297.73
308.213
317.823
324.788
328.241
329.136
329.05
328.965
329.246
329.9
330.792
331.143
330.419
10.683
67.416
137.946
176.337
185.519
176.951
170.209
224.127
267.988
236.539
212.002
204.379
212.441
231.935
249.72
259.587
266.661
275.326
284.588
291.889
295.814
297.002
297.142
297.397
298.229
299.608
301.214
302.554
302.825
300.848
0.383601
4.52227
31.9689
101.972
201.182
306.792
404.87
485.392
543.109
579.432
602.946
627.978
685.59
818.1
1039.31
1286.38
1504.49
1673.75
1794.27
1876.26
1930.28
1963.72
1979.86
1978.94
1960.07
1922.43
1866.28
1790.89
1704.5
1606.34
0.529913
6.87934
41.1928
119.685
226.123
337.08
437.804
518.931
575.912
610.634
632.739
658.171
713.038
833.066
1034.7
1265.73
1470.66
1630.49
1746.34
1827.42
1882.31
1917.15
1934.79
1935.44
1918.27
1882.39
1828.24
1755.28
1672.17
1579.18
0.833962
10.7976
56.3109
150.054
268.677
387.312
491.577
573.66
630.007
663.3
683.631
707.435
756.12
856.87
1024.16
1221.22
1398.38
1539.19
1645.69
1725.49
1784.18
1825
1848.87
1855.3
1843.31
1812.19
1762.59
1694.49
1616.86
1531.82
1.41451
17.078
78.8237
192.452
325.77
452.711
560.305
643.046
698.686
731.029
750.933
772.995
813.893
892.347
1017.63
1167.26
1305.4
1418.67
1510.28
1586.64
1650.45
1700.83
1735.23
1751.21
1747.29
1723.04
1679.54
1617.82
1546.84
1470.59
2.5422
26.5815
107.966
242.436
389.927
523.808
633.762
716.582
771.459
803.413
823.621
843.734
874.678
928.069
1007.69
1102.35
1194.57
1275.69
1349.53
1421.79
1492.47
1555.67
1604.19
1632.69
1638.84
1622.67
1586.02
1531.03
1466.91
1399.39
4.25499
38.7998
140.169
292.373
450.637
588.67
699.502
781.693
835.765
867.634
887.67
903.355
921.272
948.035
984.134
1022.92
1064.96
1112.74
1169.36
1239.27
1319.96
1399.52
1465.06
1507.94
1525.13
1517.29
1487.48
1438.99
1381.26
1321.68
6.41755
52.097
170.838
334.581
497.708
636.246
745.976
826.568
879.614
911.129
930.141
939.516
944.74
948.007
946.058
937.571
930.67
940.338
978.384
1047.89
1141.91
1241.04
1325.42
1383.24
1411.29
1411.35
1387.7
1345.14
1293.24
1240.51
8.73568
64.4606
195.809
363.858
524.748
659.237
765.27
842.913
894.193
924.371
944.352
950.571
948.053
930.664
893.616
843.253
793.455
767.276
787.849
860.051
969.289
1088.42
1191.21
1262.67
1300.06
1306.91
1288.64
1251.28
1204.78
1158
10.9113
74.7536
212.717
377.928
529.945
655.446
754.748
827.686
875.775
902.872
928.518
936.735
926.146
884.178
810.131
730.312
655.835
606.536
610.638
684.595
811.439
949.783
1066.91
1148.13
1192.43
1204
1190.14
1157.49
1116.43
1075.1
12.7536
82.798
222.502
378.419
515.792
627.762
717.472
784.224
827.564
850.981
875.366
880.885
857.815
802.77
719.81
636.869
558.47
496.397
479.307
543.226
677.773
827.93
953.764
1040.23
1087.52
1102.14
1091.61
1063.44
1027.77
991.95
14.2897
89.0794
227.37
370.363
488.904
583.133
660.244
720.118
759.972
781.881
803.263
807.211
782.031
737.802
667.976
596.661
526.41
460.862
420.896
455.482
576.333
725.264
851.586
937.114
984.522
1000.34
992.66
968.877
938.797
908.314
15.6891
94.5042
229.606
357.921
455.306
529.241
591.812
645.089
683.504
704.836
727.291
729.482
709.845
679.278
622.075
562.797
508.686
454.875
408.349
414.766
508.472
642.865
759.443
838.884
883.283
898.819
893.549
874.218
850.01
824.794
17.1591
99.9328
230.7
343.82
420.229
473.873
522.083
567.282
603.362
626.554
645.463
649.023
637.122
613.443
571.752
530.566
495.693
455.869
410.532
400.473
466.994
578.044
677.809
746.415
784.758
798.817
795.536
780.801
762.794
742.683
18.8973
105.808
231.434
330.15
387.407
423.39
457.359
491.605
522.941
547.902
568.729
582.228
583.869
570.914
541.75
516.269
496.676
463.751
418.824
398.64
442.75
528.255
606.722
660.654
691.085
702.774
701.159
691.147
679.518
664.159
20.9123
111.898
232.378
317.707
358.483
380.377
400.252
422.641
447.395
473.103
501.663
533.075
558.908
552.456
518.765
502.793
494.324
464.886
424.614
402.94
431.75
491.789
546.385
583.979
605.646
614.493
614.361
609.012
603.1
591.98
23.0713
117.993
233.511
306.663
334.301
344.653
352.027
363.575
383.691
413.085
456.459
510.771
547.623
513.127
467.359
463.33
461.522
443.872
419.121
406.758
426.368
463.33
495.906
518.391
531.746
537.84
538.774
537.301
535.314
527.966
25.2845
123.823
234.565
297.217
315.304
315.065
310.142
313.591
339.707
381.958
442.572
507.658
495.319
418.495
402.781
404.246
406.144
404.228
398.423
399.708
414.8
434.882
451.043
462.124
469.019
472.596
473.959
474.391
474.128
470.543
27.4088
129.04
235.468
289.454
299.926
290.292
273.892
277.091
322.798
376.13
437.23
429.345
367.099
342.03
346.171
349.97
353.457
359.852
367.474
377.259
388.683
398.383
405.036
409.581
412.714
414.73
415.971
416.903
417.096
415.582
29.1865
133.126
236.187
283.754
288.675
272.114
249.794
265.559
329.835
343.891
327.091
301.202
286.751
294.32
306.269
312.342
317.181
324.891
334.701
344.207
351.378
355.774
358.548
360.807
362.934
364.914
366.667
368.117
368.643
367.379
30.1199
134.95
235.903
279.798
281.937
261.587
238.702
269.911
309.453
271.574
245.348
239.015
247.764
267.497
283.898
292.255
297.811
304.354
311.526
317.462
321.102
323.123
324.833
326.933
329.523
332.408
335.273
337.678
338.784
337.327
0.56164
7.77091
46.238
128.912
237.202
353.796
463.139
553.046
617.97
661.607
693.114
735.56
827.161
998.683
1236.47
1473.67
1670.54
1815.6
1912.41
1971.94
2005.08
2019.77
2020.38
2008.5
1984.14
1946.67
1896.29
1831.34
1758.78
1673.48
0.834854
11.0997
57.3053
150.003
267.463
388.481
499.73
589.958
654.532
697.355
731.316
776.569
864.723
1022.33
1240.55
1458.07
1637.56
1770.74
1862.11
1921
1955.79
1972.7
1975.13
1964.65
1941.47
1905.19
1856.03
1792.78
1722.04
1641.48
1.36975
16.809
77.3586
187.864
318.289
446.202
559.805
650.495
715.069
758.299
793.541
840.779
923.056
1059.99
1242.62
1422.24
1568.85
1678.92
1758.52
1815.15
1853.85
1877.63