/*--------------------------------*- C++ -*----------------------------------*\
| =========                 |                                                 |
| \\      /  F ield         | OpenFOAM: The Open Source CFD Toolbox           |
|  \\    /   O peration     | Version:  2512                                  |
|   \\  /    A nd           | Website:  www.openfoam.com                      |
|    \\/     M anipulation  |                                                 |
\*---------------------------------------------------------------------------*/
FoamFile
{
    version     2.0;
    format      ascii;
    arch        "LSB;label=32;scalar=64";
    class       volScalarField;
    location    "80";
    object      nut;
}
// * * * * * * * * * * * * * * * * * * * * * * * * * * * * * * * * * * * * * //

dimensions      [0 2 -1 0 0 0 0];

internalField   nonuniform List<scalar> 
90398
(
0.0144254
0.0142206
0.0157458
0.0366969
0.0821162
0.141704
0.204857
0.257145
0.288197
0.303981
0.309071
0.278054
0.260594
0.268814
0.292939
0.323573
0.43257
0.567683
0.659303
0.707435
0.727144
0.728698
0.717846
0.698094
0.672236
0.643014
0.613619
0.584937
0.557435
0.513458
0.0144265
0.0142663
0.0183203
0.0479861
0.100878
0.165362
0.227911
0.275519
0.304523
0.319435
0.324071
0.311252
0.282453
0.275209
0.299207
0.31691
0.396593
0.533323
0.636232
0.692975
0.718168
0.723283
0.714764
0.696409
0.671151
0.641871
0.612025
0.582638
0.555489
0.515321
0.0144291
0.0144244
0.0236573
0.0627089
0.121454
0.190784
0.254898
0.300862
0.328075
0.341161
0.34386
0.340035
0.306368
0.285667
0.29033
0.310931
0.366466
0.484915
0.598687
0.666715
0.699465
0.709552
0.70438
0.688287
0.664414
0.635789
0.606063
0.576846
0.550825
0.514305
0.0144347
0.0149184
0.0319273
0.0785947
0.145878
0.220362
0.284602
0.328789
0.353579
0.363051
0.361608
0.355421
0.322353
0.29331
0.280358
0.309058
0.338809
0.42956
0.547947
0.628995
0.671447
0.688005
0.687204
0.674122
0.652247
0.624878
0.595855
0.567337
0.542788
0.50975
0.0144462
0.01606
0.0415261
0.0963116
0.171803
0.251277
0.314362
0.355574
0.376369
0.378958
0.369447
0.360229
0.32287
0.294393
0.274152
0.279461
0.317224
0.384617
0.485825
0.578884
0.633579
0.658663
0.663592
0.65435
0.63507
0.609444
0.581598
0.554205
0.531401
0.501809
0.0144705
0.0181381
0.0514681
0.113914
0.196076
0.278119
0.340507
0.377814
0.392327
0.381982
0.360063
0.334125
0.309658
0.293336
0.271398
0.260577
0.30199
0.342145
0.428946
0.517234
0.585048
0.621259
0.63363
0.629223
0.61312
0.589642
0.563346
0.537475
0.516739
0.49069
0.0145082
0.0207834
0.0607876
0.129011
0.215211
0.296902
0.356918
0.390364
0.396502
0.367265
0.34498
0.336547
0.337911
0.344732
0.304361
0.267968
0.273304
0.306031
0.372642
0.456904
0.526414
0.575199
0.597125
0.59878
0.586464
0.56542
0.540963
0.517053
0.498828
0.476563
0.0145492
0.0231438
0.0676113
0.139254
0.226559
0.306072
0.363349
0.392711
0.380728
0.159337
0.136969
0.138755
0.134532
0.129075
0.332897
0.299639
0.273315
0.276873
0.318174
0.395535
0.469261
0.522616
0.553474
0.562329
0.554441
0.536967
0.516005
0.49423
0.477727
0.459563
0.0145787
0.0246715
0.0714174
0.143536
0.229129
0.305231
0.3595
0.385293
0.163579
0.135232
0.16209
0.148089
0.123418
0.106313
0.312765
0.280609
0.261184
0.249554
0.267009
0.332307
0.410014
0.471029
0.508607
0.523687
0.521556
0.508628
0.490688
0.471259
0.455093
0.439922
0.0145867
0.0250805
0.0721285
0.141931
0.222524
0.294203
0.345597
0.369972
0.155859
0.0582689
0.0496869
0.0646298
0.0447058
0.0174646
0.287804
0.271938
0.255992
0.239439
0.231647
0.269951
0.347744
0.417775
0.46355
0.485113
0.487981
0.478832
0.463684
0.446643
0.432732
0.418013
0.0145736
0.0244205
0.069944
0.135084
0.208381
0.27408
0.322779
0.347983
0.150291
0.0636802
0.0589111
0.0293559
0.0352307
0.31318
0.291593
0.275752
0.240066
0.234491
0.238444
0.286147
0.36186
0.417129
0.44555
0.453083
0.447288
0.434768
0.420113
0.408852
0.397887
0.0145445
0.0228491
0.0642272
0.123768
0.187857
0.245432
0.29046
0.316956
0.142432
0.141985
0.049619
0.0319701
0.0430515
0.0619469
0.308518
0.261496
0.222415
0.202433
0.196147
0.225664
0.245158
0.30626
0.369476
0.405126
0.41704
0.414187
0.404099
0.391801
0.383363
0.376201
0.0145119
0.0208649
0.0570226
0.109413
0.164684
0.21469
0.256097
0.284875
0.302167
0.13333
0.115716
0.0873478
0.100342
0.112143
0.219183
0.199415
0.191291
0.188096
0.183898
0.196145
0.22582
0.260343
0.323008
0.36467
0.380339
0.379915
0.372
0.362001
0.35649
0.35323
0.0144847
0.01898
0.049462
0.0935754
0.139977
0.182623
0.218511
0.245684
0.266499
0.280544
0.271957
0.261825
0.231476
0.206891
0.198434
0.198626
0.210672
0.225569
0.217122
0.205304
0.212513
0.230403
0.282537
0.326299
0.344128
0.345156
0.338994
0.331224
0.328713
0.329338
0.0144668
0.017529
0.0421027
0.0780034
0.115333
0.149465
0.176564
0.195972
0.214934
0.237501
0.244556
0.22092
0.223536
0.243733
0.215614
0.181017
0.18478
0.218625
0.208701
0.20478
0.196962
0.213902
0.253684
0.293528
0.308261
0.304616
0.297326
0.293672
0.300436
0.304972
0.0144566
0.0165737
0.0354428
0.0635636
0.0923735
0.115546
0.130377
0.140682
0.154401
0.172308
0.18882
0.21331
0.263718
0.24733
0.143331
0.114244
0.135417
0.182065
0.160383
0.133562
0.136361
0.156988
0.202743
0.231638
0.239707
0.238206
0.234606
0.235132
0.252757
0.281131
0.0144504
0.0160501
0.0305424
0.0516862
0.0715938
0.0865826
0.0964805
0.112028
0.141852
0.165998
0.193885
0.253155
0.285091
0.146194
0.0917931
0.0978138
0.118033
0.1281
0.113882
0.0976061
0.106438
0.123918
0.146499
0.162504
0.167733
0.167084
0.165316
0.16654
0.178576
0.198317
0.0144472
0.0158116
0.0275707
0.0431879
0.056589
0.0664333
0.0703786
0.0881201
0.136523
0.160452
0.212164
0.233325
0.144435
0.0927816
0.0812459
0.0885638
0.0959471
0.0952101
0.0905039
0.0869663
0.0895494
0.0965201
0.103175
0.107359
0.108413
0.108184
0.108189
0.109157
0.112095
0.112149
0.0144435
0.0157255
0.0260129
0.0382196
0.0479117
0.0550842
0.0423401
0.0840692
0.139973
0.152107
0.154771
0.155167
0.0949689
0.0804162
0.075748
0.0781557
0.0793376
0.0767073
0.0740825
0.0729171
0.0729528
0.0734109
0.0741855
0.0758201
0.0774606
0.0795287
0.082124
0.0853871
0.0903586
0.0968448
0.0144447
0.0157
0.0250568
0.0354412
0.043519
0.0433109
0.0327449
0.105773
0.153906
0.140523
0.117172
0.108879
0.0900333
0.0774092
0.0725541
0.0735731
0.0735352
0.0711398
0.0695067
0.069315
0.0700079
0.0712782
0.0731828
0.0760611
0.0802348
0.0858227
0.0925882
0.100509
0.110677
0.121197
0.123212
0.0608977
0.185254
0.715719
1.29315
1.70474
2.14774
2.54212
2.54386
2.46802
2.34754
2.20499
2.00523
1.86614
1.97467
2.68593
3.70482
4.41038
4.81166
5.00193
5.05138
5.0069
4.89871
4.74758
4.57162
4.38212
4.19146
3.99407
3.79093
3.54242
0.121757
0.0733199
0.307836
0.990081
1.63428
2.0914
2.4139
2.56592
2.57914
2.51105
2.39611
2.26147
2.10991
1.9541
1.95282
2.39197
3.38143
4.16342
4.63629
4.87811
4.9626
4.94129
4.84746
4.70479
4.53022
4.34046
4.14883
3.95443
3.7619
3.53246
0.117685
0.104486
0.508854
1.2953
1.80244
2.23179
2.53702
2.66015
2.66677
2.59162
2.46888
2.3331
2.19769
2.03748
1.92074
2.09794
2.79919
3.72563
4.31621
4.63964
4.78055
4.79828
4.73173
4.60618
4.44203
4.25915
4.07248
3.88633
3.7102
3.50597
0.110406
0.168233
0.774869
1.45516
1.97575
2.40048
2.67359
2.78397
2.7774
2.67803
2.52796
2.38693
2.26342
2.11633
1.91758
1.87685
2.25726
3.13892
3.86221
4.29339
4.51192
4.58436
4.55712
4.457
4.31181
4.14162
3.96522
3.79118
3.63375
3.45644
0.103488
0.265912
1.00936
1.61818
2.14957
2.56935
2.81386
2.90927
2.8792
2.72399
2.50179
2.35809
2.27539
2.16494
1.9385
1.74037
1.83991
2.40151
3.25067
3.82551
4.15232
4.30159
4.32575
4.26239
4.14235
3.99018
3.8284
3.66969
3.53243
3.383
0.100978
0.387679
1.15719
1.76873
2.30482
2.71185
2.93128
3.00773
2.93986
2.63781
2.22833
2.12951
2.16272
2.1452
1.94781
1.66235
1.55099
1.80864
2.45331
3.20891
3.69121
3.94797
4.04164
4.02549
3.93684
3.8071
3.66332
3.5226
3.4069
3.28601
0.102938
0.501237
1.28371
1.88998
2.41949
2.79881
3.00303
3.05799
2.92997
2.20251
1.66125
1.70504
1.92157
2.04144
1.92575
1.60815
1.36525
1.39048
1.76196
2.42301
3.10788
3.51413
3.70579
3.74909
3.6981
3.59326
3.46934
3.34947
3.25789
3.16648
0.106903
0.57411
1.36907
1.96591
2.47818
2.8272
3.01405
3.04675
2.83131
1.62371
0.881208
1.0429
1.34998
1.5467
1.70021
1.4471
1.20892
1.11686
1.27468
1.72486
2.36952
2.96728
3.30462
3.42707
3.42068
3.32736
3.21714
3.13108
3.08223
3.02503
0.11006
0.602071
1.41415
1.99175
2.47621
2.78794
2.95814
2.98018
2.18339
1.03002
0.83805
0.754799
1.0354
1.0539
1.29113
1.20106
1.04986
0.947369
0.978927
1.23635
1.72476
2.30936
2.75936
2.97983
3.02265
2.9678
2.89265
2.84417
2.86517
2.86016
0.110968
0.589741
1.41844
1.96953
2.41263
2.68738
2.83823
2.84696
1.9243
0.844789
0.418655
0.192185
0.172012
0.456123
1.1738
1.13374
1.01311
0.89339
0.846719
0.955148
1.27437
1.74967
2.20317
2.48145
2.58021
2.57386
2.5392
2.52667
2.59565
2.66928
0.109131
0.547506
1.37553
1.89882
2.29635
2.53148
2.65847
2.66319
1.80214
0.993262
0.144255
1.31178
1.37418
1.26073
1.08445
0.922598
0.862865
1.00951
1.34773
1.73979
2.02556
2.15857
2.19107
2.19095
2.20735
2.30651
2.44175
0.105788
0.483164
1.23641
1.79039
2.14003
2.32665
2.4201
2.42233
1.77024
1.13716
0.227581
0.247282
0.259829
0.161629
1.40563
1.36278
1.28751
1.15521
1.0018
0.881332
0.886934
1.08921
1.39526
1.65325
1.79386
1.84781
1.8706
1.90637
2.02062
2.19848
0.102546
0.410386
1.09339
1.6522
1.90308
1.99588
2.03106
2.00193
1.80123
1.23747
0.66168
0.483351
0.857386
1.14065
1.29353
1.2246
1.16025
1.08439
0.977405
0.878306
0.837653
0.939648
1.15928
1.37153
1.49974
1.55888
1.59231
1.63777
1.75441
1.95569
0.102028
0.340997
0.962526
1.48998
1.64299
1.6599
1.61976
1.56554
1.4892
1.3151
1.11049
1.06974
1.12158
1.19656
1.15984
1.07806
1.03754
1.01883
0.939357
0.854263
0.808856
0.85683
1.00857
1.17424
1.27854
1.33018
1.36472
1.41248
1.52102
1.72687
0.10618
0.283827
0.836621
1.31703
1.40841
1.38058
1.30142
1.22325
1.17139
1.1144
1.04562
1.02701
1.11916
0.956627
0.83508
0.843767
1.0034
1.10927
0.958151
0.877206
0.804888
0.821254
0.928047
1.04955
1.12349
1.16411
1.19673
1.24316
1.3325
1.52784
0.114365
0.244103
0.720129
1.12266
1.20122
1.12888
0.967415
0.868342
0.868519
0.883702
0.855423
0.843445
0.79271
0.711905
0.62251
0.86393
1.19307
1.16132
0.939326
0.858298
0.831906
0.839861
0.914895
0.98941
1.03466
1.06359
1.09351
1.13795
1.21674
1.38702
0.123735
0.222378
0.635121
0.928894
0.92932
0.782493
0.653071
0.646696
0.736013
0.760757
0.777597
0.817098
0.737042
0.581164
0.715493
1.03173
1.24457
1.15085
1.06462
0.890057
0.89684
0.924397
0.959388
0.988602
1.00694
1.02403
1.05044
1.09666
1.18073
1.31118
0.132007
0.214837
0.583364
0.766771
0.671025
0.53004
0.466635
0.619472
0.884913
0.938053
1.04725
0.888859
0.697935
0.54579
0.850269
1.10165
1.1879
1.14445
1.083
1.04506
1.02313
1.01903
1.01528
1.00903
1.00718
1.01798
1.04665
1.09664
1.16991
1.22973
0.131084
0.215025
0.55407
0.652628
0.517727
0.3878
0.360026
0.673191
0.993555
0.959958
0.91094
0.808099
0.49794
0.504887
0.876802
1.11095
1.16315
1.1301
1.10234
1.09103
1.08721
1.08062
1.06985
1.05836
1.06387
1.09066
1.13717
1.19663
1.25617
1.25816
0.130738
0.214304
0.522421
0.575696
0.441944
0.315047
0.317598
0.775632
0.970734
0.862379
0.751955
0.594866
0.370912
0.425185
0.866712
1.13457
1.20411
1.18864
1.17615
1.17294
1.17676
1.18373
1.19182
1.20439
1.22437
1.25071
1.28164
1.31721
1.34652
1.35499
0.0855476
0.0873108
0.425379
1.08964
1.67048
2.37676
3.50811
5.02673
5.01409
4.8725
4.64712
4.38361
4.08109
3.93148
4.37001
5.77838
7.22906
8.21515
8.77639
9.04609
9.11882
9.05413
8.88838
8.64692
8.35081
8.02719
7.6883
7.34094
6.99031
6.63084
0.0856955
0.131875
0.620749
1.39845
2.07867
2.89947
4.11825
5.05429
5.05443
4.91848
4.69669
4.44435
4.1929
4.01833
4.26812
5.34045
6.794
7.85876
8.49948
8.83098
8.94865
8.91574
8.77165
8.5428
8.25613
7.93436
7.59849
7.25619
6.9191
6.57978
0.0871953
0.215001
0.870806
1.71931
2.48098
3.44782
4.84484
5.16452
5.16771
5.02465
4.79239
4.53962
4.30527
4.09993
4.12322
4.76949
6.0653
7.21421
7.98197
8.42141
8.62138
8.64914
8.54781
8.35039
8.08638
7.77738
7.45393
7.12615
6.81297
6.50452
0.0932462
0.340183
1.08521
2.03101
2.87835
4.00322
5.14286
5.33511
5.3265
5.15166
4.87997
4.61767
4.39432
4.17913
4.01864
4.25364
5.11985
6.31834
7.23459
7.82189
8.14207
8.26063
8.22457
8.07647
7.84426
7.56041
7.25706
6.95062
6.66629
6.3936
0.107539
0.469774
1.32414
2.32446
3.27515
4.5763
5.34179
5.52162
5.48457
5.23519
4.87311
4.60205
4.41592
4.22193
3.96404
3.85727
4.24518
5.1745
6.23332
7.01086
7.50015
7.74755
7.80723
7.72334
7.53566
7.28605
7.00973
6.73014
6.47792
6.24387
0.132767
0.5829
1.59346
2.59666
3.67618
5.11873
5.51824
5.67822
5.58884
5.17303
4.61985
4.36846
4.27938
4.16051
3.8958
3.56219
3.51917
4.01461
4.96729
5.95721
6.67524
7.10681
7.29616
7.29543
7.1663
6.95801
6.7143
6.46601
6.24868
6.05521
0.16388
0.694203
1.85945
2.83617
4.05816
5.25528
5.63229
5.7644
5.58545
4.80054
3.94774
3.79128
3.86394
3.88007
3.68443
3.27347
2.94238
3.02471
3.65385
4.66348
5.65088
6.32659
6.68803
6.79784
6.73927
6.57849
6.37145
6.15887
5.98012
5.82919
0.193995
0.78223
1.99658
3.01806
4.38084
5.29881
5.65175
5.75092
5.42868
4.08133
3.00919
2.52765
2.7885
3.01266
3.10887
2.7974
2.4228
2.26681
2.56076
3.36259
4.44061
5.39671
5.97361
6.22361
6.24829
6.13795
5.96638
5.79963
5.67079
5.56732
0.217192
0.839358
2.02447
3.1068
4.59671
5.23851
5.56459
5.63827
4.88371
3.13715
1.72393
1.25759
1.77242
2.15836
2.3412
2.18046
1.93289
1.74515
1.81679
2.33229
3.2769
4.32833
5.11678
5.52607
5.64024
5.58491
5.46666
5.35839
5.311
5.26914
0.224631
0.858997
1.98929
3.10107
4.54988
5.07418
5.37049
5.41378
4.56376
2.6698
1.00841
0.220371
0.289837
0.494813
1.86988
1.84061
1.68353
1.50658
1.44237
1.69127
2.37451
3.33429
4.20015
4.72877
4.9369
4.95264
4.89835
4.85537
4.88819
4.93388
0.221593
0.84085
1.89212
2.96448
4.34401
4.8164
5.07638
5.1071
4.30718
1.99942
0.55861
0.317962
1.97894
2.04641
1.92159
1.69164
1.46158
1.42791
1.80722
2.55536
3.36308
3.93224
4.20603
4.2873
4.29631
4.31705
4.42377
4.55654
0.209459
0.790268
1.75566
2.71827
4.06384
4.47535
4.68694
4.71095
4.1009
2.65103
1.22323
0.530462
0.722873
0.400289
2.12482
2.12668
2.03091
1.86335
1.62144
1.41888
1.52319
2.01912
2.68657
3.22024
3.51497
3.63948
3.69931
3.77365
3.94135
4.15071
0.191607
0.718193
1.60917
2.41221
3.51415
4.03079
4.14967
4.1078
3.73172
2.95014
1.94569
1.68316
1.95253
2.13675
2.16028
2.02773
1.93327
1.83395
1.66075
1.44942
1.40228
1.69313
2.19715
2.64326
2.91259
3.0539
3.14493
3.25679
3.46637
3.73476
0.172971
0.640737
1.47539
2.10211
2.82713
3.48926
3.48765
3.37974
3.15244
2.73446
2.39017
2.25009
2.17401
2.08061
1.92267
1.81272
1.79051
1.76941
1.64325
1.44978
1.34734
1.50642
1.8653
2.2126
2.43378
2.56402
2.66495
2.79773
3.02512
3.32757
0.156893
0.569569
1.25542
1.83272
2.22959
2.58624
2.80594
2.67626
2.49481
2.29324
2.11575
2.00116
1.87967
1.48311
1.36169
1.6193
1.8174
1.86648
1.70795
1.47656
1.33305
1.41489
1.67106
1.91826
2.07897
2.18903
2.28911
2.42518
2.64388
2.9523
0.144793
0.511444
1.07038
1.60084
1.78953
1.8222
1.72267
1.64644
1.6979
1.74165
1.59402
1.35327
1.13966
1.05138
1.13907
1.51028
1.82879
1.86014
1.54703
1.40503
1.35574
1.4154
1.58541
1.74039
1.84926
1.93844
2.03535
2.16739
2.36233
2.63365
0.13706
0.470692
0.930194
1.38724
1.43915
1.31941
1.11822
1.0159
1.08412
1.12617
1.09588
1.05271
0.982231
0.996744
1.33466
1.65007
1.63398
1.56151
1.45546
1.34097
1.38378
1.48583
1.57838
1.66366
1.73501
1.81035
1.90645
2.03644
2.20801
2.40086
0.132797
0.446771
0.837509
1.15002
1.16652
0.985303
0.797825
0.846472
1.08908
1.15282
1.17244
1.0488
1.08001
1.35294
1.52052
1.66349
1.6398
1.65334
1.61949
1.50517
1.46897
1.51896
1.61163
1.66593
1.72317
1.79891
1.89983
2.02389
2.16016
2.26865
0.130836
0.435757
0.78446
1.01292
0.991809
0.778074
0.615987
0.923632
1.38191
1.38116
1.30088
1.30015
1.24396
1.37867
1.65311
1.80101
1.77333
1.72146
1.68946
1.68102
1.68574
1.7085
1.7424
1.7897
1.8574
1.9458
2.04851
2.15316
2.2419
2.27917
0.130224
0.433128
0.760835
0.94951
0.891742
0.656688
0.547751
1.09412
1.49084
1.35458
1.20602
1.13206
1.16832
1.38094
1.70561
1.88622
1.89041
1.87531
1.8742
1.89616
1.9211
1.95104
1.99239
2.04764
2.1168
2.19505
2.26902
2.32085
2.34662
2.34196
0.0655828
0.15596
0.700882
1.41591
2.2029
3.55788
5.84745
6.43453
6.55706
6.48301
6.28487
6.01998
5.779
5.86673
6.76521
8.34001
9.68197
10.5805
11.1079
11.3814
11.4797
11.4478
11.3096
11.0807
10.7762
10.4128
10.0144
9.59148
9.15757
8.76908
0.0692978
0.244312
0.950765
1.78516
2.69842
4.14683
6.09244
6.47775
6.59736
6.51948
6.31882
6.08172
5.87354
5.90676
6.58366
7.97076
9.29459
10.2353
10.8138
11.1334
11.2688
11.2654
11.1484
10.9345
10.6399
10.2858
9.89451
9.47616
9.05702
8.67926
0.0790343
0.378832
1.18744
2.13755
3.18871
4.81398
6.21491
6.60144
6.72063
6.63584
6.42646
6.18867
6.00126
5.95517
6.34274
7.35706
8.6089
9.59604
10.2613
10.6693
10.8806
10.9378
10.867
10.6878
10.4181
10.0846
9.70902
9.30856
8.91438
8.56165
0.0988676
0.531083
1.41047
2.4824
3.68488
5.5124
6.42305
6.79904
6.9089
6.80115
6.56255
6.31275
6.12173
6.01679
6.13711
6.71392
7.71762
8.70019
9.45995
9.99029
10.3171
10.4697
10.4724
10.3464
10.1176
9.81407
9.46259
9.08781
8.72428
8.40418
0.136264
0.660102
1.68189
2.83222
4.21615
6.01341
6.66882
7.02837
7.11661
6.95594
6.64822
6.37908
6.19218
6.04929
5.97337
6.13093
6.68606
7.55494
8.38816
9.07205
9.5628
9.85571
9.96452
9.91635
9.74235
9.47772
9.15883
8.8153
8.48637
8.20338
0.19418
0.805434
1.97451
3.18821
4.78934
6.2725
6.89586
7.23541
7.28452
7.01382
6.55833
6.23561
6.07039
5.93107
5.7561
5.59217
5.6786
6.17984
7.01223
7.87581
8.59122
9.0843
9.34393
9.40021
9.29662
9.0801
8.80035
8.49294
8.20206
7.95912
0.24652
0.94739
2.24913
3.52927
5.36886
6.45257
7.05099
7.36761
7.35155
6.86712
6.12595
5.67911
5.54585
5.45817
5.28853
4.97897
4.71856
4.81418
5.42199
6.3888
7.37921
8.14234
8.60872
8.7999
8.78261
8.62435
8.38877
8.12225
7.87345
7.67324
0.283676
1.06274
2.45691
3.80032
5.64365
6.51847
7.09437
7.38393
7.26615
6.41169
5.23779
4.16488
4.11829
4.21987
4.33607
4.11589
3.75862
3.58563
3.90614
4.78631
5.9614
7.03663
7.75378
8.11297
8.19623
8.10387
7.91625
7.69898
7.50052
7.34762
0.310969
1.13778
2.51792
3.91964
5.62083
6.45556
7.00666
7.26607
7.0157
5.82288
4.22454
1.74225
1.64217
2.6966
3.18448
3.12219
2.86008
2.63051
2.72428
3.39049
4.55085
5.80966
6.77591
7.3139
7.50678
7.48301
7.35456
7.19979
7.07686
6.98235
0.324649
1.16784
2.48682
3.89093
5.47493
6.26308
6.78597
7.01556
6.63181
5.1352
2.35843
0.563885
0.541925
0.742032
2.41614
2.4762
2.33384
2.12489
2.05663
2.43924
3.39541
4.64876
5.73862
6.42014
6.71942
6.77381
6.71503
6.63266
6.59187
6.57714
0.325143
1.15728
2.38447
3.70154
5.22432
5.95919
6.447
6.65705
6.26254
4.67081
2.65902
1.14492
0.793695
0.298044
2.35898
2.5054
2.42071
2.18984
1.9446
1.99005
2.6147
3.68302
4.75585
5.50192
5.87797
6.0046
6.01809
6.01287
6.05865
6.12774
0.315021
1.1154
2.24162
3.40589
4.889
5.56077
6.00296
6.19551
5.87611
4.56777
3.01031
1.10926
0.833887
0.898206
2.7094
2.70894
2.60066
2.40513
2.10629
1.90246
2.18346
2.97741
3.91452
4.6347
5.03793
5.21644
5.29459
5.36354
5.49412
5.64547
0.29816
1.05549
2.08961
3.0357
4.47982
5.08149
5.44691
5.57913
5.31444
4.51503
3.5832
3.02402
2.96078
2.96068
2.89024
2.71464
2.5945
2.46112
2.20801
1.92819
1.97544
2.50995
3.26019
3.87919
4.25665
4.45836
4.58444
4.71622
4.92109
5.14589
0.279686
0.99237
1.95201
2.66555
3.67177
4.52601
4.77015
4.8091
4.61931
4.16588
3.76641
3.48554
3.20064
2.89974
2.63311
2.5057
2.48207
2.42848
2.23199
1.94834
1.87797
2.22041
2.77827
3.26891
3.58652
3.78067
3.93286
4.10982
4.36828
4.64811
0.264093
0.937835
1.79955
2.34944
2.9275
3.60155
4.06126
3.96698
3.77422
3.51654
3.2636
3.02163
2.73744
2.1503
2.07071
2.3648
2.48353
2.47078
2.26074
1.97425
1.84622
2.06433
2.46092
2.81242
3.05421
3.22742
3.38686
3.58657
3.86965
4.17527
0.253149
0.896049
1.6518
2.10198
2.3636
2.56405
2.62893
2.65975
2.78409
2.75937
2.47302
1.95469
1.57596
1.47508
1.69512
2.10255
2.30121
2.20704
1.93025
1.80809
1.87154
2.02151
2.27521
2.50232
2.67921
2.83035
2.99149
3.1947
3.45979
3.74463
0.247042
0.868678
1.54097
1.90108
1.97222
1.89307
1.71282
1.55477
1.56661
1.58129
1.47066
1.34257
1.29338
1.37913
1.78729
1.95122
1.94308
1.8893
1.80599
1.79928
1.88562
2.04472
2.1938
2.3357
2.46822
2.6075
2.76749
2.96155
3.18342
3.38748
0.245008
0.854451
1.46528
1.74707
1.69836
1.49248
1.24479
1.13524
1.25837
1.29389
1.33892
1.27648
1.37478
1.75622
1.94445
2.01135
2.06717
2.11518
2.08957
2.0123
1.96373
2.03167
2.17825
2.3091
2.42484
2.56093
2.71517
2.88181
3.0407
3.15006
0.24569
0.850075
1.41817
1.6283
1.51107
1.25432
0.978661
1.06916
1.42564
1.43867
1.44225
1.67027
1.86625
2.06084
2.26725
2.31132
2.26308
2.20885
2.18334
2.1797
2.21119
2.25897
2.35148
2.44918
2.56269
2.69043
2.82131
2.93965
3.02669
3.05378
0.246745
0.850629
1.39192
1.51717
1.38354
1.11034
0.852678
1.17626
1.53126
1.74181
1.68905
1.68624
1.83086
2.09886
2.33687
2.41373
2.40637
2.3973
2.41156
2.43701
2.48088
2.54056
2.61494
2.70289
2.80056
2.89998
2.98991
3.05486
3.08219
3.0506
0.0578582
0.25584
0.941777
1.80832
3.12938
5.59416
6.65997
7.23255
7.49108
7.51403
7.39497
7.21717
7.18156
7.65268
8.86761
10.2431
11.2861
11.967
12.3754
12.6013
12.7008
12.7016
12.613
12.4379
12.1805
11.8495
11.4577
11.0219
10.5547
10.1705
0.0674968
0.384734
1.24035
2.25823
3.67952
5.78788
6.72213
7.28128
7.53024
7.54725
7.42855
7.2854
7.26391
7.64549
8.65121
9.93683
10.9575
11.6509
12.0859
12.3426
12.4708
12.4955
12.4258
12.2651
12.0187
11.6968
11.3142
10.8858
10.4413
10.0537
0.0883976
0.557667
1.50298
2.66977
4.22708
5.95698
6.86501
7.41642
7.66497
7.68218
7.56579
7.43523
7.41353
7.66489
8.37796
9.43293
10.3723
11.0708
11.5522
11.871
12.0613
12.1404
12.1148
11.9883
11.7681
11.4663
11.1021
10.6919
10.2712
9.90403
0.124863
0.70623
1.74849
3.07522
4.8075
6.22872
7.09898
7.63681
7.88218
7.8932
7.76701
7.62996
7.58517
7.71127
8.12047
8.82672
9.60233
10.2628
10.7852
11.1875
11.4736
11.6416
11.6886
11.6173
11.4377
11.1664
10.828
10.4427
10.051
9.71239
0.190145
0.866732
2.05338
3.51563
5.37632
6.55576
7.38119
7.90041
8.13523
8.12286
7.95946
7.79271
7.7081
7.72334
7.86264
8.17361
8.66489
9.22062
9.76434
10.2684
10.6905
10.9908
11.1465
11.1557
11.0327
10.803
10.4971
10.1418
9.78267
9.47737
0.278218
1.04733
2.38039
3.98041
5.75547
6.86072
7.64559
8.1457
8.35985
8.29154
8.03527
7.79023
7.64185
7.55317
7.49375
7.46037
7.56685
7.89656
8.44255
9.0703
9.68205
10.1734
10.4844
10.6051
10.5573
10.3796
10.1126
9.79267
9.46917
9.20009
0.336415
1.22119
2.6791
4.42567
6.01806
7.07267
7.82857
8.31181
8.49102
8.3115
7.85822
7.42741
7.16152
6.98046
6.81735
6.57333
6.36246
6.3919
6.81206
7.56249
8.42425
9.17766
9.70008
9.96672
10.0145
9.89878
9.67634
9.39681
9.113
8.88286
0.388675
1.36252
2.90521
4.74728
6.1368
7.14992
7.88412
8.35063
8.4751
8.10426
7.27229
6.42881
5.92702
5.69641
5.61965
5.38564
5.05255
4.86256
5.10639
5.87314
6.95902
8.01884
8.79881
9.24406
9.40095
9.35504
9.18313
8.95105
8.71417
8.52737
0.428157
1.45844
3.03009
4.7925
6.10844
7.07739
7.78932
8.23626
8.2819
7.63977
6.42196
4.59239
3.90734
3.64883
4.05702
4.03682
3.79165
3.54738
3.63223
4.30937
5.48713
6.76956
7.80101
8.42736
8.69801
8.7224
8.60925
8.43616
8.26617
8.133
0.451343
1.50594
3.03795
4.71183
5.93919
6.85688
7.54375
7.96984
7.93686
7.06901
5.52525
3.36396
2.79133
2.3707
3.09271
3.14825
3.01312
2.78472
2.71792
3.17882
4.25456
5.59966
6.77213
7.53908
7.90831
8.00769
7.96089
7.8565
7.76156
7.69854
0.460245
1.51199
2.92547
4.53363
5.66101
6.51376
7.16456
7.57259
7.49351
6.54965
5.03165
3.51368
2.7673
2.35244
3.03359
3.09208
2.97381
2.71993
2.47009
2.59879
3.39376
4.61317
5.79598
6.62133
7.06159
7.22753
7.24961
7.22099
7.20911
7.22043
0.459028
1.48986
2.77741
4.25214
5.30246
6.07301
6.6765
7.06595
7.00165
6.18237
4.9904
3.71663
3.08187
2.94664
3.43896
3.33391
3.17206
2.92651
2.58396
2.43069
2.88724
3.86861
4.93302
5.73438
6.19619
6.40813
6.49604
6.54554
6.62135
6.7091
0.452408
1.45518
2.61614
3.81452
4.88812
5.56796
6.10077
6.43586
6.40523
5.86639
5.25764
4.74539
4.32973
3.96328
3.59464
3.36003
3.21364
3.03116
2.70153
2.41989
2.61608
3.33849
4.21743
4.92007
5.3548
5.59148
5.73303
5.85521
6.01719
6.17827
0.446407
1.42162
2.46973
3.41225
4.45563
5.0281
5.44831
5.68186
5.66012
5.34214
4.95049
4.56144
4.09295
3.61961
3.28372
3.15149
3.12386
3.02189
2.7443
2.43092
2.47298
2.97866
3.65224
4.21589
4.58901
4.82497
5.0036
5.18863
5.4236
5.64551
0.444342
1.3967
2.35594
3.07743
3.9219
4.49015
4.76335
4.8295
4.73521
4.52917
4.26504
3.93695
3.51847
2.77421
2.67355
2.98041
3.07122
2.96532
2.59455
2.42138
2.41265
2.7598
3.23688
3.64692
3.9421
4.16392
4.3616
4.59102
4.87302
5.13123
0.447027
1.38366
2.27053
2.81398
3.25292
3.55528
3.67904
3.74374
3.75496
3.57775
3.37361
2.59537
2.04278
1.89299
2.11927
2.38496
2.47769
2.36492
2.21525
2.28699
2.42037
2.6461
2.95358
3.23172
3.45967
3.66228
3.87004
4.11134
4.39257
4.64568
0.453738
1.38085
2.2008
2.60925
2.78273
2.68299
2.46091
2.23851
2.15231
2.11909
1.90994
1.68676
1.62526
1.73575
2.07289
2.21613
2.2826
2.28691
2.30803
2.38391
2.45712
2.60337
2.79601
2.98687
3.17047
3.35759
3.56304
3.79
4.02435
4.20488
0.462949
1.38528
2.14239
2.44638
2.45031
2.13319
1.7935
1.53549
1.50828
1.51851
1.57081
1.54432
1.69388
2.08563
2.27454
2.47336
2.65381
2.59528
2.52357
2.48808
2.5297
2.63602
2.77172
2.92107
3.08184
3.25488
3.4385
3.62197
3.77976
3.86837
0.472242
1.39322
2.08029
2.30868
2.21211
1.82598
1.43732
1.28708
1.49339
1.56379
1.64202
1.96887
2.42764
2.64422
2.7853
2.78312
2.7213
2.66569
2.63646
2.64642
2.7015
2.79199
2.90518
3.03473
3.17575
3.32157
3.46125
3.58106
3.65951
3.6708
0.477966
1.39861
1.9811
2.16445
2.03178
1.65324
1.24618
1.27298
1.56825
1.9365
2.15453
2.22984
2.44604
2.69471
2.85414
2.88639
2.86986
2.8604
2.86777
2.90045
2.95846
3.03709
3.13201
3.23865
3.35039
3.4583
3.55118
3.61685
3.64127
3.60722
0.0592915
0.376893
1.21046
2.41084
4.52905
6.05748
7.11972
7.8065
8.15948
8.26497
8.23102
8.20781
8.46302
9.27009
10.5138
11.6019
12.358
12.8338
13.1139
13.269
13.3389
13.342
13.2807
13.1505
12.9474
12.672
12.3272
11.8844
11.0208
11.1006
0.0772597
0.53838
1.55911
2.9004
4.70986
6.12739
7.17781
7.85367
8.20034
8.30616
8.29028
8.29682
8.53953
9.2354
10.3318
11.3386
12.0586
12.5292
12.8237
13.0028
13.0978
13.1227
13.0791
12.9624
12.7693
12.5009
12.1641
11.7673
11.3419
10.9645
0.111033
0.737433
1.80716
3.2573
4.91977
6.30241
7.32712
7.99657
8.35031
8.47011
8.47306
8.50229
8.70997
9.23648
10.0739
10.9116
11.5467
11.9947
12.3085
12.5317
12.6794
12.7548
12.7535
12.67
12.5021
12.2529
11.9326
11.5522
11.1477
10.7888
0.167958
0.890635
2.07547
3.63007
5.28544
6.60402
7.58271
8.23687
8.596
8.72791
8.74051
8.76481
8.91828
9.26646
9.80728
10.3941
10.8841
11.2683
11.585
11.8598
12.0856
12.2433
12.3139
12.2861
12.1587
11.9392
11.6419
11.284
10.9041
10.5705
0.26417
1.08459
2.41512
4.10645
5.72232
6.96774
7.89408
8.52706
8.88518
9.01713
9.01655
9.00536
9.07368
9.24436
9.49887
9.78685
10.0701
10.3412
10.6342
10.9648
11.298
11.5777
11.7573
11.8134
11.7451
11.5665
11.2994
10.9684
10.616
10.3117
0.366222
1.30083
2.77352
4.58752
6.13071
7.30441
8.18441
8.797
9.14706
9.25734
9.20207
9.10577
9.051
9.03654
9.03487
9.00984
9.0259
9.14661
9.40227
9.804
10.2879
10.7424
11.0777
11.2511
11.2632
11.1378
10.9088
10.6096
10.2877
10.0151
0.442231
1.50554
3.09094
4.94962
6.42019
7.53677
8.38249
8.97903
9.31284
9.36836
9.19017
8.92432
8.68122
8.46713
8.25057
7.98184
7.73445
7.64866
7.84515
8.34922
9.04099
9.734
10.277
10.6022
10.7148
10.6543
10.4703
10.208
9.92139
9.68295
0.50963
1.67193
3.32479
5.14402
6.54755
7.61737
8.43769
9.02146
9.32802
9.28304
8.87422
8.29893
7.7571
7.31049
6.98255
6.62122
6.24156
6.0005
6.12403
6.70195
7.6114
8.58705
9.37564
9.87582
10.1006
10.1123
9.97813
9.75928
9.51534
9.31564
0.562879
1.79028
3.45678
5.18866
6.51178
7.52969
8.3245
8.89459
9.16077
8.96306
8.18281
7.17769
6.31741
5.65463
5.35543
5.07695
4.75608
4.49012
4.53882
5.126
6.1909
7.39631
8.41079
9.07819
9.41195
9.49148
9.41168
9.24601
9.06064
8.91035
0.599971
1.86205
3.49749
5.10512
6.32619
7.28054
8.04455
8.59826
8.81717
8.44165
7.43459
6.24215
5.20506
4.50464
4.26716
4.07577
3.83088
3.56013
3.48017
3.94365
5.00372
6.30143
7.45035
8.23665
8.65387
8.79832
8.77599
8.67179
8.55285
8.46408
0.62368
1.89634
3.46803
4.93331
6.03077
6.90013
7.62002
8.15524
8.33776
7.88664
6.93503
5.81305
4.8491
4.27769
4.05636
3.88551
3.66743
3.3715
3.11859
3.30757
4.16293
5.38759
6.55245
7.37895
7.84662
8.04289
8.08017
8.04386
7.99942
7.97567
0.639399
1.90805
3.39526
4.70892
5.66347
6.42635
7.08579
7.59644
7.76877
7.37629
6.64258
5.76926
5.0633
4.59562
4.26692
4.01687
3.79494
3.50901
3.1501
3.07386
3.64396
4.67748
5.73964
6.53547
7.01246
7.24441
7.33899
7.37493
7.41145
7.45545
0.653017
1.91211
3.26579
4.45919
5.26324
5.90499
6.48115
6.93477
7.1072
6.85412
6.35651
5.80377
5.22563
4.6697
4.22874
3.97072
3.815
3.59152
3.22374
3.00768
3.3385
4.13791
5.0319
5.7367
6.18227
6.43252
6.578
6.68632
6.80599
6.91658
0.670121
1.92
3.13223
4.21597
4.86982
5.38188
5.83941
6.18171
6.31351
6.1719
5.85297
5.41798
4.82634
4.23193
3.86635
3.74573
3.71239
3.56073
3.17408
2.98089
3.15251
3.73727
4.43472
5.00641
5.39493
5.64804
5.83515
6.01061
6.20714
6.37538
0.691725
1.93395
3.03039
3.99729
4.50775
4.88987
5.19079
5.36088
5.37693
5.2635
5.04296
4.67125
4.10063
3.13155
2.92546
3.05032
3.09507
2.93488
2.79623
2.90258
3.05318
3.45598
3.9515
4.37861
4.69943
4.94435
5.16059
5.39106
5.64241
5.84787
0.716244
1.95416
2.95391
3.80864
4.19223
4.44369
4.57342
4.52858
4.36885
4.2254
4.08186
3.16373
2.41624
2.18301
2.34371
2.56539
2.6721
2.6753
2.75522
2.94531
3.00425
3.26604
3.59357
3.8973
4.15664
4.38936
4.61885
4.86811
5.13083
5.33876
0.742529
1.97842
2.88997
3.65193
3.9292
3.86381
3.42031
3.01772
2.79274
2.67978
2.35915
2.03222
1.90863
2.02691
2.35947
2.65325
2.86042
2.99466
3.0031
2.92273
2.98217
3.15572
3.37361
3.59524
3.81111
4.02667
4.25022
4.48228
4.70423
4.85125
0.768414
2.00346
2.83135
3.48688
3.61233
3.10154
2.50253
2.03424
1.82742
1.79877
1.84617
1.82494
2.01254
2.44853
2.78616
3.1964
3.14734
3.04092
2.965
2.95078
3.01743
3.14667
3.30808
3.48472
3.66984
3.86025
4.05147
4.23236
4.3791
4.44354
0.790381
2.0249
2.76126
3.30893
3.26948
2.64033
1.99997
1.57831
1.62087
1.74956
1.9068
2.32463
2.93216
3.19036
3.30633
3.2776