/*--------------------------------*- C++ -*----------------------------------*\
| =========                 |                                                 |
| \\      /  F ield         | OpenFOAM: The Open Source CFD Toolbox           |
|  \\    /   O peration     | Version:  2512                                  |
|   \\  /    A nd           | Website:  www.openfoam.com                      |
|    \\/     M anipulation  |                                                 |
\*---------------------------------------------------------------------------*/
FoamFile
{
    version     2.0;
    format      ascii;
    arch        "LSB;label=32;scalar=64";
    class       volScalarField;
    location    "80";
    object      nut;
}
// * * * * * * * * * * * * * * * * * * * * * * * * * * * * * * * * * * * * * //

dimensions      [0 2 -1 0 0 0 0];

internalField   nonuniform List<scalar> 
84826
(
0.0144189
0.0141759
0.013944
0.0137221
0.0135096
0.013306
0.0131111
0.0129247
0.0127485
0.0125828
0.0124267
0.0122788
0.0121502
0.0120335
0.0119147
0.0117962
0.0116623
0.0112676
0.0140807
0.0422084
0.115915
0.172853
0.19453
0.197838
0.192657
0.182906
0.173082
0.162743
0.151796
0.14044
0.0144189
0.0141759
0.0139439
0.0137222
0.01351
0.0133069
0.0131131
0.0129282
0.0127538
0.0125901
0.012435
0.0122887
0.0121624
0.0120485
0.0119324
0.0118168
0.0116877
0.0113374
0.0147739
0.0432417
0.102708
0.160297
0.188019
0.195945
0.194575
0.186274
0.176309
0.165696
0.154419
0.142868
0.0144189
0.0141758
0.013944
0.0137224
0.0135105
0.0133081
0.0131149
0.012932
0.0127605
0.0125979
0.0124455
0.0123028
0.012184
0.0120801
0.0119775
0.0118796
0.0117902
0.0116086
0.0146721
0.0388571
0.0874829
0.143269
0.177973
0.191865
0.194608
0.190053
0.179679
0.168823
0.157405
0.145558
0.0144189
0.0141758
0.013944
0.0137225
0.0135109
0.0133091
0.0131171
0.0129362
0.0127681
0.0126071
0.0124587
0.012332
0.0112942
0.0112285
0.0121584
0.0123512
0.0126861
0.0130456
0.0153935
0.0339048
0.0731805
0.125077
0.165951
0.186191
0.193104
0.191387
0.181481
0.170887
0.159712
0.147779
0.0144189
0.0141758
0.0139439
0.0137226
0.0135114
0.0133101
0.0131192
0.0129406
0.0127741
0.0126149
0.0122193
0.0106037
0.0111636
0.0129332
0.0142633
0.0163011
0.0193092
0.022324
0.024589
0.0333478
0.0618707
0.108092
0.153184
0.179341
0.190235
0.190844
0.181683
0.171591
0.160842
0.149191
0.0144188
0.0141758
0.0139439
0.0137227
0.0135118
0.0133111
0.0131214
0.0129457
0.0127796
0.0126251
0.00930962
0.0115936
0.0164633
0.0194192
0.0245456
0.0316484
0.0389845
0.0448759
0.0486376
0.0513412
0.0633322
0.096981
0.143088
0.173238
0.187051
0.189254
0.180835
0.171309
0.160983
0.150276
0.0144188
0.0141758
0.013944
0.013723
0.0135123
0.0133122
0.0131238
0.0129478
0.0127821
0.0103583
0.00799129
0.0219171
0.0306405
0.0384426
0.0507781
0.0610706
0.0685255
0.0729624
0.0752208
0.0770322
0.0836774
0.104419
0.143974
0.172581
0.18629
0.18853
0.180316
0.171095
0.161
0.152011
0.0144188
0.0141758
0.0139441
0.0137233
0.013513
0.0133135
0.0131264
0.0129491
0.0127866
0.00774619
0.00308519
0.0164625
0.0300206
0.0326465
0.101259
0.102001
0.100978
0.100356
0.100968
0.102287
0.108587
0.127916
0.156784
0.178553
0.189054
0.189795
0.181109
0.171804
0.16179
0.155026
0.0144189
0.0141759
0.0139444
0.0137238
0.0135137
0.0133148
0.013129
0.0129519
0.0111936
0.00591481
0.00229418
0.0482185
0.0603776
0.0618458
0.165187
0.147672
0.134208
0.126405
0.123503
0.124347
0.132171
0.15091
0.171447
0.186431
0.1932
0.192148
0.183111
0.173395
0.16346
0.159117
0.0144189
0.014176
0.0139445
0.0137239
0.013514
0.0133155
0.0131302
0.0129536
0.0101184
0.00469394
0.00162406
0.0218978
0.0259254
0.0252324
0.149112
0.133132
0.130153
0.12423
0.121652
0.124414
0.138668
0.161279
0.180156
0.191851
0.196247
0.193987
0.185133
0.174954
0.165272
0.164123
0.0144189
0.014176
0.0139446
0.0137242
0.0135144
0.0133161
0.0131311
0.0129554
0.0097849
0.00430976
0.00139883
0.0138898
0.0165899
0.105974
0.0948429
0.0918667
0.093912
0.0996078
0.108549
0.127652
0.158545
0.180854
0.192639
0.196507
0.193939
0.185468
0.175274
0.166502
0.170297
0.0144189
0.0141762
0.0139452
0.013725
0.0135155
0.0133173
0.0131325
0.0129567
0.0104373
0.00499899
0.00155487
0.0197388
0.0130991
0.00826142
0.0802662
0.0756765
0.0721543
0.0728112
0.079225
0.0914558
0.100991
0.135679
0.167945
0.185128
0.191515
0.190202
0.182567
0.17337
0.167455
0.17969
0.014419
0.0141764
0.0139456
0.0137257
0.0135163
0.0133179
0.0131321
0.0129557
0.0121885
0.00631379
0.00207774
0.0143611
0.0321107
0.0325805
0.0839095
0.0833813
0.0811602
0.0806296
0.0771757
0.0700456
0.0766912
0.104972
0.142152
0.167827
0.179683
0.181456
0.175302
0.169157
0.17087
0.196749
0.014419
0.0141765
0.0139457
0.0137258
0.0135164
0.0133178
0.0131311
0.0129555
0.0127936
0.00856809
0.00504852
0.0148432
0.0258746
0.0325019
0.0379915
0.0419462
0.0441893
0.0425441
0.0402001
0.0404235
0.0534134
0.0801783
0.115179
0.145539
0.162724
0.168413
0.166466
0.166276
0.182718
0.222621
0.014419
0.0141766
0.0139457
0.0137257
0.0135163
0.0133173
0.0131297
0.0129552
0.0127913
0.0115387
0.00719826
0.00865889
0.0115032
0.0143767
0.0177558
0.0183138
0.0185259
0.0185519
0.018886
0.0256735
0.0436494
0.0692668
0.0977517
0.125751
0.144948
0.153426
0.158976
0.171908
0.208192
0.255085
0.014419
0.0141765
0.0139456
0.0137256
0.0135159
0.0133165
0.013128
0.0129525
0.0127877
0.0126341
0.0100299
0.00809472
0.00836998
0.00897208
0.00994613
0.01064
0.0109684
0.0114095
0.0143663
0.02423
0.0421312
0.0644227
0.0877748
0.110814
0.129732
0.144175
0.160708
0.192999
0.246046
0.289892
0.014419
0.0141765
0.0139455
0.0137253
0.0135153
0.0133155
0.0131262
0.0129489
0.0127839
0.0126277
0.0124869
0.0100075
0.00907596
0.00895017
0.00940302
0.00993152
0.0102967
0.0108252
0.0132498
0.0226592
0.0400882
0.060823
0.0822953
0.103206
0.123028
0.143475
0.175438
0.227885
0.284414
0.322376
0.014419
0.0141764
0.0139453
0.0137248
0.0135145
0.0133143
0.0131241
0.0129454
0.0127796
0.0126225
0.0124777
0.012259
0.0104723
0.00986241
0.0100229
0.0104932
0.0109842
0.0116969
0.0123633
0.019746
0.0361643
0.0565777
0.0784963
0.10027
0.121614
0.149818
0.197167
0.264527
0.317477
0.350216
0.014419
0.0141763
0.013945
0.0137243
0.0135137
0.013313
0.0131226
0.0129427
0.0127749
0.0126177
0.0124719
0.0123362
0.0116432
0.01069
0.0106349
0.0110409
0.0116397
0.0117321
0.0118935
0.0163908
0.0310996
0.0517161
0.0741218
0.096835
0.121092
0.157271
0.222913
0.293225
0.342407
0.37161
0.0144192
0.0141766
0.0139454
0.0137247
0.013514
0.0133131
0.0131224
0.0129419
0.0127733
0.0126161
0.0124701
0.0123344
0.0122171
0.0111702
0.0109944
0.0113613
0.011809
0.0117176
0.011712
0.0137648
0.0265946
0.046536
0.0690093
0.0908788
0.12209
0.16642
0.245839
0.312662
0.356301
0.383739
0.123083
0.113927
0.106539
0.100361
0.0950318
0.0903121
0.0860522
0.0821368
0.0784519
0.0750017
0.0628524
0.0591542
0.0663246
0.0635165
0.0607847
0.0577804
0.0566831
0.0496625
0.159587
0.549199
0.821324
1.26009
1.40063
1.27699
1.14558
0.962877
0.764488
0.623339
0.516715
0.477801
0.123082
0.113924
0.106532
0.100349
0.095013
0.0902821
0.0860062
0.0820801
0.078364
0.07492
0.0593046
0.0555425
0.0656546
0.0636074
0.060981
0.0584129
0.0584964
0.0687518
0.190448
0.769758
1.0061
1.2606
1.3985
1.30049
1.18605
1.04586
0.845743
0.677181
0.554025
0.502252
0.123085
0.113915
0.106515
0.100318
0.0949599
0.0901941
0.0858629
0.0818963
0.078099
0.0690304
0.0521173
0.0500952
0.0590928
0.0641216
0.0622657
0.0612934
0.0638129
0.0909012
0.198255
0.691212
1.11132
1.24954
1.38992
1.32608
1.22734
1.10218
0.917092
0.727705
0.596588
0.537747
0.123088
0.113906
0.106492
0.100277
0.0948874
0.0900747
0.0856765
0.0816214
0.0777515
0.0579769
0.0435474
0.0440321
0.0574597
0.0668125
0.068594
0.0679752
0.073978
0.110129
0.191141
0.572776
0.937028
1.23829
1.3619
1.34022
1.26028
1.14506
0.973785
0.770183
0.635015
0.576854
0.123085
0.113902
0.106467
0.100227
0.0948011
0.0899303
0.0854536
0.0812551
0.0703005
0.0461098
0.0341977
0.0384067
0.0566755
0.0731533
0.085572
0.100393
0.114793
0.129721
0.185083
0.400835
0.729096
1.11634
1.30509
1.33294
1.27734
1.17284
1.01081
0.801242
0.666162
0.623095
0.123081
0.113897
0.106448
0.100174
0.0947071
0.0897731
0.0852082
0.0808988
0.0565813
0.0345454
0.0260901
0.0401293
0.0594848
0.0861733
0.122015
0.15942
0.178233
0.18249
0.190007
0.271257
0.537905
0.968184
1.22981
1.30652
1.27721
1.18571
1.03005
0.822049
0.69509
0.677954
0.123079
0.113887
0.106431
0.100134
0.0946144
0.0896177
0.0849176
0.0714852
0.0412732
0.0256603
0.0220058
0.0421008
0.0638737
0.118286
0.205046
0.247213
0.256937
0.257108
0.265238
0.311748
0.517947
0.91022
1.18444
1.28301
1.27083
1.19042
1.04104
0.841505
0.73083
0.74245
0.123076
0.113876
0.10641
0.100099
0.0945423
0.0894789
0.0846313
0.0586779
0.0310918
0.0177036
0.0126501
0.0380396
0.0609771
0.111164
0.342552
0.357844
0.357992
0.368985
0.4066
0.490316
0.684824
0.976483
1.19024
1.27755
1.26803
1.19364
1.05567
0.868701
0.777036
0.815777
0.123074
0.113869
0.106394
0.100071
0.0944825
0.0893743
0.0843779
0.0486757
0.0264986
0.0117946
0.00826408
0.0682227
0.0854212
0.227107
0.438738
0.400985
0.392848
0.417673
0.483093
0.601767
0.796537
1.03253
1.20433
1.27532
1.26512
1.1953
1.07187
0.902097
0.830187
0.894745
0.123067
0.113857
0.106375
0.100045
0.0944386
0.0892837
0.0842773
0.0442357
0.0222757
0.00959932
0.00372481
0.0546854
0.131164
0.249104
0.413576
0.380033
0.383405
0.420497
0.499181
0.646772
0.86019
1.07138
1.2148
1.27342
1.26135
1.19547
1.08447
0.934811
0.885164
0.9785
0.123061
0.113849
0.106369
0.100041
0.0944381
0.0892993
0.0842187
0.0438691
0.0208356
0.00876631
0.0037275
0.0577724
0.341738
0.328876
0.333714
0.354524
0.409231
0.57827
0.842681
1.03958
1.2118
1.26562
1.25379
1.19265
1.09372
0.96329
0.941887
1.07147
0.123061
0.113867
0.106393
0.100088
0.0945087
0.0893848
0.0842674
0.0467556
0.0222665
0.0104557
0.00427409
0.0177091
0.231833
0.227389
0.24843
0.214166
0.200924
0.202929
0.243498
0.388706
0.702754
0.983789
1.17896
1.24377
1.23862
1.18538
1.10172
0.990212
1.01077
1.19104
0.12306
0.113886
0.106429
0.100147
0.0946027
0.0895139
0.0845126
0.0527895
0.0272206
0.0131208
0.00654817
0.0721258
0.102776
0.123473
0.172183
0.172036
0.167425
0.165337
0.185469
0.292058
0.565846
0.91851
1.132
1.21549
1.22126
1.17935
1.11561
1.02971
1.11687
1.34103
0.123069
0.113898
0.106467
0.100198
0.0947058
0.0897004
0.0848786
0.062613
0.0353027
0.01872
0.0119139
0.0469544
0.0749326
0.0736469
0.0767829
0.0815221
0.0871802
0.0965252
0.130244
0.269989
0.568927
0.911288
1.12244
1.20588
1.2174
1.19044
1.14049
1.11017
1.2984
1.52951
0.123081
0.113914
0.106494
0.100258
0.0948332
0.0899246
0.0853041
0.0771965
0.0457477
0.0282414
0.0168894
0.0314378
0.0490563
0.0610251
0.0577083
0.0554911
0.0551889
0.0637298
0.130553
0.369692
0.713695
0.983197
1.14803
1.22027
1.23941
1.23424
1.21449
1.27996
1.55261
1.74826
0.123086
0.113922
0.10652
0.100328
0.0949625
0.0901504
0.0856943
0.0814354
0.0591404
0.038321
0.0261304
0.0255777
0.0348626
0.0558476
0.0600496
0.0592189
0.0598363
0.0758766
0.22316
0.557822
0.88044
1.0632
1.16805
1.24568
1.28824
1.29917
1.36881
1.583
1.82789
1.97519
0.123089
0.113928
0.106553
0.100394
0.0950801
0.0903555
0.08604
0.0820275
0.0728986
0.0501807
0.037038
0.0322644
0.0409903
0.0591983
0.0625352
0.0617411
0.0621794
0.0829245
0.247011
0.608104
0.932284
1.10969
1.19807
1.25839
1.31247
1.38443
1.6301
1.88975
2.08659
2.19287
0.123086
0.113939
0.106582
0.100449
0.0951782
0.0905232
0.0863199
0.0824932
0.0787867
0.0621036
0.048171
0.0448429
0.0562484
0.0661031
0.0649821
0.06402
0.0637542
0.0753896
0.18734
0.547726
0.9008
1.12566
1.24578
1.32118
1.36958
1.53466
1.81066
2.15663
2.31835
2.39308
0.123083
0.113949
0.106602
0.100488
0.0952476
0.0906431
0.0865257
0.082794
0.0792634
0.0716943
0.0585017
0.0568826
0.0687728
0.0672473
0.0660966
0.065078
0.0644477
0.0691751
0.138623
0.438455
0.824367
1.0995
1.26105
1.34487
1.41927
1.71943
1.67375
2.10792
2.45491
2.56458
0.123085
0.113955
0.106615
0.100508
0.0952809
0.0906977
0.0866152
0.0829247
0.079477
0.0763149
0.0643288
0.0643701
0.0691829
0.0676393
0.066444
0.0654096
0.0646233
0.0659307
0.0981996
0.263625
0.74695
1.05561
1.23097
1.27296
1.45092
1.40113
1.52378
1.95041
2.28334
2.68335
0.134463
0.133859
0.133059
0.132086
0.130951
0.129665
0.128259
0.126653
0.12365
0.0863558
0.0660361
0.0623063
0.0798376
0.113926
0.111136
0.106738
0.0845184
0.0920912
0.331502
0.702442
1.20311
2.02049
2.20841
2.03938
1.86169
1.60627
1.30643
1.05402
0.864096
0.790568
0.134462
0.133858
0.133058
0.132084
0.130947
0.129659
0.12825
0.126644
0.116306
0.0814544
0.0616515
0.0585715
0.0721007
0.100383
0.110994
0.0979168
0.106243
0.153442
0.461097
0.946458
1.24892
1.83461
2.22498
2.06469
1.90128
1.69852
1.41038
1.13292
0.924242
0.841342
0.134463
0.133857
0.133056
0.132079
0.130938
0.12964
0.128208
0.126627
0.102006
0.0713109
0.0536036
0.0532927
0.0681357
0.086194
0.0891166
0.088379
0.128915
0.21623
0.52801
1.32839
1.39336
1.66434
2.2646
2.11794
1.96085
1.77514
1.51191
1.21871
1.00421
0.923924
0.134463
0.133856
0.133053
0.132073
0.130927
0.129619
0.12817
0.126608
0.0858028
0.0590781
0.0441812
0.0497473
0.0756874
0.0889551
0.0876026
0.0910303
0.110558
0.220787
0.48402
1.36842
1.48896
1.56458
2.02046
2.17092
2.02391
1.84637
1.60233
1.30091
1.08502
1.02437
0.134463
0.133856
0.133051
0.132067
0.130914
0.129598
0.128144
0.104897
0.070552
0.0457821
0.0343877
0.049244
0.0750046
0.0920556
0.100168
0.111885
0.128693
0.174536
0.39102
0.956904
1.4887
1.50106
1.87556
2.19738
2.07421
1.90684
1.67579
1.37187
1.16474
1.14363
0.134463
0.133856
0.133049
0.13206
0.130901
0.129578
0.128137
0.0846406
0.0557235
0.0326106
0.0294432
0.0539946
0.0907078
0.111031
0.140458
0.172621
0.201003
0.230833
0.311051
0.640416
1.29964
1.48069
1.83815
2.19066
2.10474
1.95335
1.73029
1.43296
1.25051
1.28034
0.134462
0.133856
0.133048
0.132057
0.13089
0.129565
0.118125
0.0699373
0.0405529
0.0234643
0.0327644
0.0802794
0.104902
0.174901
0.242692
0.288934
0.311064
0.328825
0.385235
0.618178
1.18395
1.53793
1.90667
2.17409
2.12316
1.9898
1.77776
1.49615
1.35158
1.43208
0.134462
0.133855
0.133047
0.132056
0.130886
0.129558
0.102438
0.0592559
0.0325354
0.0151726
0.0116564
0.0552144
0.0980711
0.189964
0.391564
0.391852
0.398011
0.434359
0.534955
0.770427
1.24627
1.66982
2.04843
2.16546
2.13842
2.02129
1.82491
1.56866
1.4678
1.59387
0.134462
0.133855
0.133046
0.132054
0.130884
0.12956
0.0938702
0.0520189
0.0273235
0.0112207
0.00623867
0.0519472
0.111109
0.350271
0.403835
0.383588
0.399185
0.467363
0.621488
0.897258
1.32521
1.76499
2.05032
2.16337
2.15191
2.04925
1.8724
1.64875
1.59424
1.76123
0.134462
0.133854
0.133045
0.132053
0.130881
0.129551
0.0889731
0.0486217
0.023215
0.00999543
0.00368079
0.0379569
0.160532
0.283507
0.379922
0.363995
0.390789
0.475473
0.660214
0.981313
1.40088
1.79227
2.05561
2.16814
2.16515
2.07472
1.91934
1.73226
1.72852
1.9353
0.134462
0.133855
0.133047
0.132053
0.130882
0.12955
0.0891903
0.0477749
0.021782
0.00949729
0.00349843
0.137334
0.372485
0.353563
0.368161
0.430338
0.605673
0.964471
1.28855
1.70478
2.06314
2.17368
2.17646
2.098
1.96691
1.82128
1.87736
2.12384
0.134462
0.133856
0.133048
0.132059
0.13089
0.129558
0.0943138
0.0501505
0.0239449
0.0106435
0.004114
0.0280855
0.269993
0.222404
0.316585
0.289474
0.287017
0.314502
0.442015
0.801414
1.19321
1.594
2.05497
2.1741
2.18591
2.12353
2.02076
1.92978
2.05978
2.34187
0.134462
0.133857
0.133051
0.132067
0.130902
0.129574
0.104718
0.0567144
0.0296242
0.0138529
0.00613547
0.099411
0.119246
0.207957
0.226254
0.225902
0.222885
0.234894
0.326598
0.652184
1.22429
1.58935
2.05663
2.18668
2.20992
2.17106
2.10609
2.08946
2.30418
2.59483
0.134462
0.133858
0.133057
0.132073
0.130919
0.129602
0.118852
0.0675353
0.0383409
0.0201315
0.0130633
0.056723
0.0815742
0.0790157
0.0887881
0.0984235
0.109024
0.139581
0.277001
0.685417
1.31584
1.77086
2.0795
2.25391
2.28381
2.2756
2.26272
2.34322
2.62967
2.89028
0.134463
0.13386
0.133059
0.132081
0.130942
0.129644
0.128206
0.082887
0.0497087
0.0307891
0.0181865
0.0359958
0.05168
0.068276
0.0637443
0.0618787
0.0676383
0.126933
0.403893
0.992491
1.63633
2.06511
2.12306
2.38956
2.43465
2.46972
2.53394
2.72476
3.00556
3.21379
0.134463
0.13386
0.133061
0.132093
0.130966
0.12969
0.128282
0.0997887
0.0640398
0.0419721
0.0284307
0.0277899
0.0377251
0.0545415
0.0609736
0.057189
0.0639717
0.184477
0.619589
1.31463
1.93907
2.28782
2.29486
2.42896
2.65634
2.75416
2.93203
3.16178
3.3937
3.54268
0.134463
0.13386
0.133066
0.132103
0.130989
0.129735
0.128364
0.117967
0.0787414
0.0549228
0.0405478
0.0357521
0.0451281
0.0619871
0.0745609
0.0742993
0.0819822
0.213928
0.641018
1.35282
2.035
2.42577
2.61684
2.55882
2.64587
2.79946
3.15644
3.57409
3.75403
3.85427
0.134463
0.133862
0.133069
0.132113
0.131009
0.129774
0.128442
0.126999
0.0929008
0.067809
0.0531187
0.0496726
0.0619518
0.0848917
0.0992277
0.0924044
0.085867
0.16807
0.546663
1.17485
1.93924
2.45225
2.7169
2.81528
2.52362
2.42608
2.86152
3.93573
4.06863
4.13156
0.134463
0.133863
0.133073
0.13212
0.131025
0.129807
0.128511
0.127073
0.10428
0.0782182
0.0644199
0.0631866
0.0829037
0.117675
0.116563
0.111818
0.0944767
0.136091
0.414465
0.936057
1.72244
2.35268
2.71595
2.8373
2.19201
2.09132
2.64922
3.79996
4.32538
4.35645
0.134465
0.133866
0.133078
0.132129
0.131038
0.129827
0.128545
0.127124
0.109921
0.0837369
0.0707701
0.0714927
0.101446
0.118134
0.11696
0.116053
0.0981602
0.108517
0.251274
0.736434
1.49163
2.19474
2.62094
2.2047
1.69034
1.92441
2.73428
3.98538
4.50321
4.50088
0.134734
0.134622
0.134494
0.134346
0.134174
0.13398
0.13377
0.133569
0.127781
0.0894
0.0673746
0.0620128
0.078343
0.129666
0.130549
0.139289
0.124769
0.208752
0.491455
0.871773
1.58586
2.63903
2.45209
2.29489
2.0918
1.75782
1.54891
1.31188
1.01489
1.02116
0.134734
0.134622
0.134494
0.134346
0.134174
0.133982
0.13378
0.133597
0.119245
0.0833623
0.0614651
0.0569468
0.0706217
0.106046
0.128528
0.145738
0.233823
0.363087
0.83277
1.07283
1.46616
2.3518
2.47546
2.31013
2.1662
1.9578
1.68889
1.39475
1.17333
1.10983
0.134734
0.134622
0.134494
0.134346
0.134177
0.13399
0.133806
0.133658
0.102694
0.0715088
0.0511535
0.0508752
0.0699313
0.100095
0.110572
0.127577
0.238473
0.492297
1.09911
1.54616
1.57258
2.05708
2.55304
2.37589
2.22518
2.05254
1.79412
1.49654
1.28321
1.24564
0.134734
0.134622
0.134494
0.134347
0.134181
0.134003
0.133845
0.130504
0.0848742
0.0571357
0.0397932
0.0482785
0.070202
0.0965816
0.101605
0.108954
0.165234
0.434169
1.07085
1.90323
1.69892
1.92388
2.56934
2.46288
2.30743
2.14021
1.90295
1.60851
1.41209
1.41153
0.134734
0.134622
0.134494
0.134349
0.134188
0.134024
0.133907
0.103121
0.0691548
0.0400757
0.0317898
0.0530007
0.0957058
0.112707
0.117868
0.127849
0.152661
0.263917
0.691147
1.5052
1.7641
1.90423
2.4561
2.54156
2.39548
2.23226
2.00864
1.72137
1.55344
1.60335
0.134734
0.134622
0.134495
0.134352
0.134196
0.134051
0.133988
0.0837495
0.0509273
0.0253033
0.0375027
0.0975266
0.125856
0.136624
0.154811
0.179233
0.209527
0.26852
0.488997
1.12135
1.81296
2.00197
2.51103
2.59667
2.47692
2.32227
2.1085
1.83515
1.70807
1.81304
0.134734
0.134622
0.134496
0.134355
0.134206
0.134087
0.119925
0.0681547
0.0354883
0.0162072
0.0620255
0.129807
0.156732
0.200353
0.239313
0.272851
0.300394
0.345718
0.507947
1.00127
1.80907
2.23116
2.63028
2.63509
2.54934
2.40839
2.20613
1.95714
1.8798
2.03188
0.134734
0.134623
0.134497
0.134358
0.134216
0.134118
0.103818
0.0590786
0.0259962
0.0122487
0.0124247
0.126805
0.182069
0.285145
0.346057
0.348998
0.366578
0.431797
0.615314
1.05307
1.74809
2.3328
2.60786
2.66703
2.61427
2.49024
2.30414
2.08895
2.06293
2.25167
0.134734
0.134623
0.134498
0.134361
0.134224
0.134142
0.0948697
0.0565976
0.0199697
0.0129269
0.0109746
0.100853
0.184416
0.407529
0.317421
0.322499
0.357011
0.457724
0.689952
1.12312
1.74952
2.3007
2.60217
2.69871
2.67382
2.56786
2.40279
2.22842
2.25318
2.46895
0.134734
0.134623
0.134499
0.134363
0.13423
0.134151
0.0892244
0.055897
0.0238893
0.0126874
0.00466927
0.0324689
0.0679767
0.470745
0.29175
0.300785
0.345209
0.466592
0.74205
1.21762
1.81344
2.32331
2.62228
2.73748
2.73161
2.64296
2.50303
2.3758
2.4525
2.68716
0.134734
0.134623
0.134499
0.134363
0.134229
0.13415
0.094535
0.0518664
0.0266285
0.0118405
0.00543685
0.00905871
0.0774096
0.372491
0.322051
0.331747
0.364647
0.469556
0.755053
1.28092
1.80272
2.37482
2.66287
2.78384
2.78975
2.71912
2.61028
2.53892
2.66966
2.91635
0.134734
0.134623
0.134499
0.134361
0.134224
0.134133
0.102243
0.0547867
0.028639
0.0132304
0.00482868
0.0555886
0.166684
0.450412
0.321946
0.315849
0.325396
0.397743
0.666434
1.22949
1.67295
2.31362
2.70926
2.83446
2.85274
2.8064
2.73916
2.73604
2.9205
3.16332
0.134734
0.134624
0.134499
0.13436
0.134218
0.134112
0.112872
0.0622907
0.0344374
0.0166372
0.00701447
0.0917802
0.11217
0.183533
0.192461
0.209874
0.227869
0.297601
0.573605
1.18774
1.73934
2.22681
2.78019
2.90724
2.94105
2.92927
2.91884
2.99502
3.22254
3.43945
0.134735
0.134624
0.134499
0.134359
0.134212
0.134087
0.127007
0.0745543
0.042705
0.024299
0.0143535
0.0418653
0.068969
0.0632095
0.0699634
0.0813391
0.11188
0.249581
0.675272
1.40481
2.09282
2.27797
2.81819
3.04258
3.09322
3.12689
3.18678
3.3387
3.56885
3.74386
0.134735
0.134624
0.134498
0.134358
0.134206
0.134067
0.133999
0.0896598
0.055228
0.0347112
0.0216503
0.0287884
0.0379999
0.0527422
0.0618739
0.0648517
0.129195
0.431543
1.05973
1.84042
2.49621
2.44477
2.74124
3.25662
3.33606
3.42631
3.56331
3.75255
3.94505
4.06707
0.134735
0.134624
0.134498
0.134357
0.134203
0.134051
0.133947
0.106798
0.0698346
0.046625
0.0327372
0.0293425
0.0371339
0.0481441
0.0523193
0.0563678
0.14232
0.556122
1.16829
2.00972
2.72037
2.76933
2.77012
3.18352
3.65669
3.80793
3.98902
4.17208
4.31775
4.38913
0.134735
0.134624
0.134498
0.134357
0.134201
0.134042
0.133913
0.125299
0.0848161
0.0602459
0.0453075
0.0404325
0.0491383
0.0620862
0.0706863
0.0771988
0.156208
0.518726
1.07651
1.89012
2.73463
3.25435
2.94235
3.08779
3.47873
3.96315
4.40627
4.55699
4.65494
4.68647
0.134735
0.134624
0.134499
0.134357
0.1342
0.134037
0.133894
0.133801
0.0993633
0.07351
0.0586968
0.0552998
0.0671535
0.0877185
0.0978268
0.0934317
0.134947
0.424814
0.913336
1.64857
2.56149
3.22529
3.15713
2.95094
2.96884
3.29392
4.31663
4.8719
4.93336
4.94049
0.134735
0.134624
0.1345
0.134359
0.134202
0.134037
0.133882
0.133769
0.111033
0.0843714
0.0704507
0.0697634
0.0903487
0.131977
0.131808
0.11055
0.123641
0.327633
0.746753
1.39383
2.26146
3.04268
3.11387
2.60689
2.42538
2.84848
4.10721
5.09301
5.1396
5.13843
0.134736
0.134627
0.134504
0.134364
0.134209
0.134044
0.133887
0.133764
0.116818
0.0901996
0.0771401
0.0787969
0.110934
0.132287
0.132047
0.118896
0.11426
0.206485
0.54834
1.21094
1.99933
2.78561
2.50055
1.97678
2.08238
3.00895
4.99446
5.21163
5.26207
5.25834
0.134741
0.134647
0.134553
0.134461
0.13437
0.134288
0.13423
0.134234
0.134336
0.0949192
0.0709501
0.0635343
0.0778222
0.134017
0.144952
0.210296
0.272235
0.49493
0.691918
1.063
1.97105
2.73959
2.4872
2.32706
2.03379
1.7225
1.5791
1.2805
1.1876
1.12246
0.13474
0.134646
0.134553
0.13446
0.13437
0.134291
0.134241
0.134265
0.125193
0.0876649
0.0635888
0.0570541
0.0692966
0.109007
0.148767
0.247862
0.4935
0.753864
1.24528
1.23606
1.68689
2.77848
2.51846
2.33715
2.21388
1.90163
1.75599
1.51944
1.33533
1.25772
0.13474
0.134646
0.134553
0.134461
0.134374
0.134301
0.13427
0.13434
0.106403
0.0738995
0.0506404
0.0484918
0.0632845
0.0905536
0.126571
0.224647
0.498143
0.952514
1.56522
1.74109
1.79528
2.44554
2.62519
2.414
2.27598
2.13095
1.90175
1.6408
1.31503
1.51003
0.13474
0.134646
0.134553
0.134462
0.134379
0.134318
0.134318
0.134191
0.0868751
0.0570718
0.0374893
0.04281
0.0605352
0.0987659
0.106837
0.147475
0.349026
0.820608
1.52689
2.22216
1.97378
2.32925
2.74744
2.52987
2.37662
2.23828
2.03372
1.78856
1.52335
1.72989
0.13474
0.134646
0.134554
0.134465
0.134387
0.134342
0.134389
0.10504
0.0696927
0.0380086
0.0294115
0.0555911
0.120119
0.122935
0.125118
0.138463
0.20708
0.486963
1.16355
2.08756
2.15152
2.39674
2.84766
2.65562
2.49979
2.36188
2.17397
1.94876
1.86371
1.97453
0.13474
0.134647
0.134555
0.134468
0.134397
0.134372
0.134483
0.085858
0.0484243
0.0234687
0.0392315
0.133205
0.149503
0.15672
0.167933
0.186444
0.227413
0.363687
0.81758
1.70721
2.33368
2.63249
2.91208
2.77048
2.62926
2.4937
2.31719
2.11446
2.07558
2.22941
0.13474
0.134647
0.134556
0.134471
0.134407
0.134409
0.122291
0.0714421
0.0309973
0.0165417
0.0756257
0.150478
0.183561
0.20334
0.229456
0.25581
0.291562
0.394606
0.740752
1.50839
2.39893
2.87563
2.9503
2.87119
2.75668
2.62856
2.46398
2.29122
2.29885
2.48182
0.13474
0.134647
0.134557
0.134474
0.134417
0.134449
0.1184
0.0498175
0.0315282
0.0111637
0.0889422
0.163581
0.205745
0.249753
0.275441
0.291662
0.329655
0.455707
0.795979
1.47087
2.29172
2.81632
2.97937
2.96148
2.87835
2.76272
2.61412
2.47687
2.52472
2.72364
0.134741
0.134648
0.134558
0.134477
0.134426
0.134469
0.102643
0.0530043
0.0204539
0.0137398
0.010598
0.126173
0.195289
0.242443
0.22947
0.254616
0.314463
0.474504
0.836178
1.47988
2.25038
2.79004
3.01422
3.04727
2.99355
2.89419
2.76671
2.66936
2.7499
2.95292
0.134741
0.134648
0.134558
0.134479
0.13443
0.134476
0.0990407
0.0554356
0.0260419
0.0117217
0.0125662
0.0883403
0.143242
0.164344
0.168035
0.197176
0.270562
0.466016
0.898294
1.57597
2.30745
2.82592
3.0727
3.1362
3.10553
3.02452
2.92382
2.87098
2.98
3.1772
0.134741
0.134648
0.134559
0.134479
0.13443
0.134471
0.103701
0.0567065
0.0315924
0.0152971
0.0116386
0.0425136
0.123021
0.113674
0.145799
0.185984
0.273547
0.500868
1.00667
1.736
2.4392
2.9177
3.15732
3.23279
3.21887
3.15885
3.09272
3.08982
3.22316
3.37668
0.134741
0.134648
0.134558
0.134478
0.134424
0.134453
0.111602
0.0620508
0.0347446
0.0181182
0.00908247
0.0519447
0.0694532
0.0848335
0.140724
0.175168
0.253757
0.495921
1.06129
1.76306
2.31647
3.03585
3.26008
3.33873
3.33982
3.30845
3.28811
3.33962
3.48985
3.49672
0.134741
0.134648
0.134558
0.134476
0.134417
0.134428
0.122604
0.0707324
0.0412205
0.0216745
0.0133741
0.0450401
0.0669366
0.0702625
0.086171
0.11236
0.202927
0.51283
1.18087
1.97388
2.28199
2.96909
3.389
3.46703
3.48682
3.49529
3.53177
3.63556
3.78651
3.67936
0.134741
0.134648
0.134558
0.134474
0.13441
0.134401
0.134529
0.0833378
0.0498739
0.030639
0.0178584
0.0329266
0.0415889
0.0565758
0.0581223
0.0880812
0.281228
0.80407
1.58155
2.37482
2.46223
2.86872
3.56892
3.64527
3.69084
3.74846
3.84502
3.98251
4.10671
3.94842
0.134741
0.134648
0.134557
0.134472
0.134402
0.134376
0.134461
0.0983668
0.0628446
0.0409068
0.0274719
0.0260698
0.0326859
0.0409711
0.0459058
0.0916954
0.461264
1.0391
1.83805
2.66537
2.81491
2.8799
3.46714
3.88856
3.97108
4.07874
4.21572
4.35164
4.44215
4.30612
0.134741
0.134648
0.134557
0.134471
0.134397
0.134357
0.134399
0.116151
0.0774587
0.0535902
0.039159
0.0338144
0.0402016
0.0493092
0.0580693
0.106699
0.462922
1.00089
1.75978
2.66849
3.33289
3.03471
3.40953
4.18158
4.31183
4.45873
4.60494
4.71776
4.77008
4.68643
0.134741
0.134648
0.134557
0.13447
0.134393
0.134343
0.134355
0.134482
0.093015
0.0676389
0.0523613
0.0474153
0.0547999
0.0663466
0.077616
0.115561
0.38584
0.868433
1.57279
2.47773
3.32793
3.31412
3.38054
3.95992
4.65558
4.82828
4.96304
5.0447
5.06118
5.00251
0.134741
0.134648
0.134557
0.13447
0.134391
0.134334
0.134325
0.134415
0.107944
0.081284
0.0663738
0.0629435
0.0741546
0.0942249
0.105228
0.120344
0.303393
0.715866
1.35593
2.20813
3.13513
3.56922
3.28576
3.44732
3.86723
4.66484
5.24054
5.29876
5.2955
5.24577
0.134741
0.134649
0.134558
0.13447
0.134391
0.13433
0.13431
0.13437
0.12
0.092663
0.0786614
0.0781424
0.098416
0.134503
0.134934
0.125181
0.23635
0.578815
1.157
1.9406
2.85134
3.50296
2.95777
2.79545
3.12375
4.19029
5.40457
5.46385
5.46559
5.42566
0.134743
0.134652
0.134562
0.134476
0.134397
0.134336
0.134312
0.13436
0.126095
0.098849
0.0856794
0.088027
0.11988
0.134681
0.134885
0.127925
0.172837
0.400921
1.01809
1.75046
2.59476
2.82707
2.26463
2.26927
3.05519
5.12129
5.47089
5.54639
5.56413
5.53744
0.134741
0.134648
0.134556
0.134466
0.134381
0.134307
0.13426
0.134276
0.134409
0.103306
0.0775897
0.0687079
0.0826384
0.14115
0.198507
0.400943
0.56595
0.994878
0.94184
1.26985
2.26627
2.79822
2.45398
2.27173
2.07553
1.75283
1.59912
1.31968
1.34608
1.0154
0.134741
0.134647
0.134555
0.134466
0.134381
0.13431
0.13427
0.134305
0.134438
0.0947945
0.0693066
0.0614736
0.0731774
0.131635
0.220489
0.46553
0.855751
1.31277
1.62401
1.43522
1.87309
2.85587
2.50067
2.28521
2.17249
1.906
1.76194
1.57409
1.28857
1.34004
0.134741
0.134647
0.134556
0.134467
0.134384
0.134319
0.134296
0.134374
0.11373
0.0789621
0.0545331
0.0498182
0.0621774
0.100045
0.208719
0.463005
0.88454
1.41298
2.02224
1.96709
2.00948
2.68799
2.63389
2.37734
2.24511
2.12454
1.9332
1.66506
1.33566
1.72398
0.134741
0.134648
0.134556
0.134468
0.134389
0.134334
0.13434
0.134474
0.0917718
0.061106
0.0395071
0.0399357
0.0532332
0.087422
0.148307
0.348803
0.773596
1.365
2.0743
2.52288
2.25548
2.64524
2.79055
2.51938
2.36685
2.26048
2.0979
1.73879
1.76577
1.97748
0.134741
0.134648
0.134556
0.13447
0.134396
0.134355
0.134402
0.112231
0.0722958
0.0428264
0.0282311
0.0403278
0.0778869
0.114049
0.122411
0.190946
0.458975
1.04431
1.86914
2.72087
2.56803
2.81983
2.93845
2.68259
2.5212
2.4158
2.27432
2.12242
2.11179
2.25053
0.134741
0.134648
0.134557
0.134473
0.134404
0.134382
0.134486
0.0884841
0.0549611
0.0265969
0.0271573
0.0755731
0.137656
0.14475
0.155392
0.187235
0.304868
0.663884
1.42371
2.42506
2.95092
3.18514
3.06317
2.84512
2.69079
2.58379
2.45529
2.32884
2.36065
2.52376
0.134741
0.134648
0.134558
0.134475
0.134414
0.134411
0.131575
0.0751003
0.0373103
0.0175388
0.0426271
0.129221
0.17168
0.192202
0.214553
0.243832
0.322692
0.573796
1.19752
2.17946
2.99091
3.25641
3.16595
3.00115
2.86515
2.75938
2.64275
2.54642
2.61147
2.78406
0.134741
0.134648
0.134559
0.134478
0.134422
0.134441
0.116903
0.064255
0.0271585
0.014881
0.0654211
0.160182
0.194945
0.220228
0.238722
0.264225
0.347522
0.601727
1.17948
2.07504
2.89422
3.254
3.2568
3.1493
3.03765
2.93824
2.83579
2.77046
2.85436
3.02518
0.134741
0.134649
0.13456
0.134481
0.134429
0.134463
0.115498
0.0523884
0.0319335
0.010175
0.113375
0.129764
0.156435
0.173637
0.193336
0.229659
0.337101
0.624275