/*--------------------------------*- C++ -*----------------------------------*\
| =========                 |                                                 |
| \\      /  F ield         | OpenFOAM: The Open Source CFD Toolbox           |
|  \\    /   O peration     | Version:  2512                                  |
|   \\  /    A nd           | Website:  www.openfoam.com                      |
|    \\/     M anipulation  |                                                 |
\*---------------------------------------------------------------------------*/
FoamFile
{
    version     2.0;
    format      ascii;
    arch        "LSB;label=32;scalar=64";
    class       volScalarField;
    location    "80";
    object      omega;
}
// * * * * * * * * * * * * * * * * * * * * * * * * * * * * * * * * * * * * * //

dimensions      [0 0 -1 0 0 0 0];

internalField   nonuniform List<scalar> 
84826
(
16.0839
15.814
15.5565
15.3102
15.0744
14.8478
14.6296
14.419
14.2196
14.0333
13.8569
13.7011
13.5575
13.4156
13.2812
13.1467
13.0426
14.0494
30.868
97.0444
183.688
227.203
237.204
233.182
221.637
209.125
195.922
182.006
167.454
154.507
16.0839
15.814
15.5566
15.3105
15.075
14.8492
14.6323
14.4236
14.2269
14.0424
13.8685
13.7163
13.5771
13.4426
13.3178
13.1993
13.1326
14.3685
31.7361
86.412
166.727
216.676
233.337
233.952
225.915
212.768
199.067
184.618
169.683
156.816
16.0839
15.8141
15.5567
15.3109
15.0758
14.851
14.6361
14.4296
14.2359
14.0536
13.8843
13.7413
13.6249
13.5263
13.4624
13.44
13.5097
14.7571
29.4814
75.742
145.713
200.946
226.23
232.465
228.105
215.845
201.983
187.413
172.597
161.474
16.0839
15.8141
15.5569
15.3112
15.0766
14.8526
14.6394
14.4354
14.245
14.0654
13.9071
13.8074
13.8338
13.9581
14.3028
14.952
15.8428
17.3798
27.5423
63.9966
123.704
182.946
216.963
229.144
228.341
217.963
204.024
189.553
175.22
167.049
16.0839
15.8141
15.5569
15.3115
15.0773
14.8543
14.6427
14.4412
14.2521
14.0762
13.98
14.2431
15.0466
16.4285
18.9757
22.9329
27.5044
31.2288
36.1741
57.351
106.073
165.134
206.351
224.159
226.604
217.962
204.411
190.326
176.862
173.006
16.0839
15.8142
15.557
15.3118
15.078
14.8559
14.6458
14.4459
14.258
14.0892
14.3825
17.2336
21.227
26.8121
35.3991
45.4763
54.5704
61.0701
65.2903
72.1222
101.352
153.173
197.574
219.128
223.834
216.302
203.394
189.89
177.826
179.405
16.0839
15.8142
15.5573
15.3122
15.0788
14.8574
14.6488
14.4504
14.2637
14.1054
16.378
29.6474
40.1799
52.6539
69.2292
81.6447
89.7166
94.2756
97.1685
102.303
118.05
156.498
196.541
217.387
222.165
214.739
202.252
189.343
179.308
186.627
16.0839
15.8144
15.5576
15.3127
15.0797
14.859
14.6519
14.4548
14.272
14.1185
28.057
92.7478
141.758
146.554
127.894
127.621
126.836
127.424
128.826
132.104
146.37
175.167
204.27
220.096
222.825
214.745
202.232
189.856
182.302
194.809
16.084
15.8146
15.5579
15.3133
15.0807
14.8606
14.6539
14.4584
14.2814
14.1443
28.9145
258.119
276.703
283.748
192.93
173.931
161.26
155.006
153.603
157.433
172.288
194.805
214.277
224.607
224.839
216.085
203.317
191.508
186.68
203.972
16.0842
15.8151
15.5588
15.3146
15.0825
14.8631
14.6558
14.4623
14.2909
14.1794
28.6549
592.334
479.2
457.528
186.542
167.686
156.697
151.261
151.31
161.328
182.77
205.404
220.998
228.023
226.538
217.447
204.543
193.518
191.862
214.155
16.0844
15.8156
15.5597
15.3159
15.0841
14.8643
14.6572
14.4636
14.2923
14.1924
28.6998
373.838
495.477
165.678
149.471
139.28
132.524
131.721
144.656
177.528
206.396
222.499
228.671
226.605
217.613
204.931
195.156
197.945
226.939
16.0844
15.8155
15.5594
15.3155
15.0838
14.8638
14.6577
14.4626
14.2873
14.1635
28.3005
475.388
454.831
408.979
144.316
132.745
123.192
115.879
111.905
117.522
150.094
190.977
214.581
223.829
223.117
215.059
203.384
196.056
206.167
243.501
16.0843
15.8153
15.5591
15.3151
15.0832
14.8636
14.6574
14.4615
14.2814
14.1379
28.1268
110.047
154.186
157.254
101.714
102.394
99.576
93.5724
86.3058
89.1487
115.365
159.688
194.539
210.963
214.036
208.137
198.997
197.123
219.519
265.401
16.0842
15.8153
15.5592
15.3153
15.0832
14.8632
14.656
14.4583
14.2753
14.1202
14.6235
29.9608
37.1972
40.7802
46.5504
49.3141
49.0289
47.0972
47.1085
56.9823
85.0292
126.686
166.997
190.678
198.788
196.177
192.471
202.518
242.095
293.227
16.0842
15.8152
15.5592
15.3153
15.0829
14.8624
14.6541
14.4555
14.27
14.1058
14.0846
17.6987
20.2571
21.0955
21.6425
21.854
21.94
22.195
25.5299
39.978
67.6236
102.936
139.79
166.349
178.776
181.582
189.035
219.635
276.711
325.631
16.0841
15.8151
15.559
15.3149
15.0823
14.861
14.6515
14.4526
14.2655
14.0948
13.9596
14.2877
14.7364
14.8186
14.7935
14.7541
14.7209
15.1191
19.7979
35.1447
59.0424
87.5397
117.084
141.599
157.853
171.356
198.747
252.016
316.26
359.19
16.0841
15.815
15.5587
15.3143
15.0813
14.8593
14.6485
14.4478
14.2604
14.0863
13.9301
13.8282
13.7786
13.6773
13.5728
13.4667
13.3816
13.6098
17.4938
31.6737
52.8398
77.2326
102.134
125.22
145.877
173.443
225.549
296.939
355.162
391.179
16.0841
15.8149
15.5583
15.3136
15.0801
14.8574
14.6455
14.4432
14.2551
14.0797
13.918
13.7804
13.6577
13.5351
13.4178
13.3041
13.2019
13.2494
15.553
27.3576
46.8515
69.8162
93.7725
117.056
143.379
188.366
262.662
337.926
388.503
419.282
16.084
15.8146
15.5579
15.3128
15.0789
14.8554
14.642
14.4387
14.2492
14.0735
13.9106
13.7697
13.6399
13.5115
13.3912
13.2743
13.1632
13.1128
14.1203
22.4804
40.3879
62.9596
87.6218
112.635
148.068
205.582
296.916
368.804
413.999
441.24
16.0842
15.8149
15.558
15.3129
15.0788
14.8549
14.6413
14.4375
14.247
14.0714
13.9084
13.7676
13.6351
13.5046
13.3828
13.2642
13.1491
13.0575
13.3634
18.0457
34.2498
56.3548
80.9135
106.843
149.771
230.108
324.14
388.218
427.802
453.47
1.94029
2.08421
2.2146
2.33481
2.44777
2.55611
2.662
2.7685
2.8813
3.00338
3.124
3.24583
3.37375
3.49797
3.62912
3.80699
4.00446
4.5021
8.572
20.287
40.9387
56.4808
64.3633
69.3925
73.8006
80.9392
90.1658
96.0963
99.3557
94.7149
1.9403
2.08426
2.21473
2.33506
2.44825
2.55702
2.66371
2.77133
2.88668
3.01076
3.13244
3.25634
3.38765
3.52269
3.66669
3.85363
4.08855
4.63906
8.76407
21.3248
39.4886
55.294
63.9828
68.94
72.7105
76.7741
84.4486
91.159
94.9782
94.0062
1.94026
2.08441
2.21508
2.33579
2.4497
2.55979
2.66895
2.77979
2.90152
3.02745
3.1543
3.28482
3.42878
3.59885
3.8066
4.0782
4.45166
5.11376
8.6559
20.8893
37.407
52.8449
62.5889
67.8351
71.2894
74.4271
80.2262
87.6394
91.9897
94.5411
1.94021
2.08458
2.21556
2.3368
2.45171
2.56364
2.67612
2.79289
2.9229
3.05402
3.19217
3.33913
3.547
3.88041
4.4103
5.17344
6.14173
7.22597
10.1404
20.4603
36.0642
50.7261
61.2338
66.8505
70.1803
72.8618
77.3582
85.1878
90.3962
95.3168
1.94026
2.08466
2.21609
2.33802
2.45415
2.56844
2.6852
2.81118
2.94351
3.09188
3.26591
3.53281
4.05649
5.24575
7.53861
10.6235
13.8869
16.4241
18.8549
25.2364
38.0066
50.7115
60.9293
66.5497
69.5946
71.8751
75.6244
83.5359
89.8159
95.467
1.94032
2.08476
2.21653
2.33933
2.45687
2.57387
2.69599
2.83173
2.96861
3.15423
3.50223
4.46039
6.49489
11.9194
19.163
25.7322
32.1344
37.2447
40.3195
42.0939
47.8329
55.073
62.893
67.5306
69.9094
71.6541
74.9875
82.749
89.7791
94.8628
1.94036
2.08496
2.21694
2.34041
2.45962
2.57949
2.70897
2.84757
3.00241
3.25627
4.46498
9.15772
17.0156
33.7426
46.7982
55.5467
60.3534
61.3051
60.0896
58.6821
59.7634
62.1501
66.6508
69.5987
71.0402
72.1432
75.0969
82.492
89.6373
93.7262
1.9404
2.08516
2.2174
2.34135
2.46189
2.58484
2.72189
2.86853
3.06092
3.47656
4.14399
24.6442
49.7992
73.1793
102.432
90.9487
79.4386
70.5415
64.6379
61.7319
62.8046
66.39
69.8331
71.6766
72.3777
72.9576
75.312
82.2182
89.0204
92.3916
1.94043
2.0853
2.21776
2.3421
2.46378
2.5889
2.73345
2.8951
3.12631
3.95673
6.14952
156.904
205.73
191.183
120.886
98.0005
83.5383
74.0341
68.2119
65.8266
67.0506
70.1346
72.4865
73.4605
73.619
73.8328
75.5872
81.9006
88.2519
91.3559
1.94055
2.08554
2.21818
2.34277
2.46512
2.59202
2.73884
2.91998
3.20756
4.42974
9.0507
1729.06
632.928
461.524
111.259
91.3079
79.3892
71.8371
67.7922
67.3656
69.9326
72.9005
74.4911
74.8509
74.6531
74.6488
76.0807
81.8729
87.8921
90.9554
1.94065
2.0857
2.21833
2.3429
2.46516
2.59161
2.74109
2.92074
3.27074
4.6859
9.15477
991.447
98.1908
79.4444
70.1447
65.2858
65.3265
67.5356
71.3539
74.6449
75.8668
75.8483
75.4503
75.3604
76.6736
82.3389
88.273
91.3778
1.94065
2.08538
2.21781
2.34177
2.46319
2.58869
2.73797
2.91362
3.24887
4.33625
7.8773
331.907
367.017
236.342
117.035
96.6837
85.3593
78.9793
73.9736
69.496
69.0854
72.8722
75.0481
75.5215
75.413
75.5431
77.0252
83.2507
89.3605
92.2958
1.94066
2.08503
2.21706
2.34036
2.46051
2.58407
2.72656
2.8918
3.1652
3.92616
5.66195
88.9997
156.98
163.328
111.506
100.487
90.2813
79.8419
69.1651
60.8464
59.0804
63.7599
69.1577
71.9904
73.2857
74.31
76.6766
84.4319
90.8019
94.2281
1.94053
2.08482
2.2163
2.3391
2.45758
2.57767
2.71121
2.86204
3.07784
3.53549
5.37656
21.2586
31.0499
37.2098
42.0336
44.2188
43.7307
40.9561
37.7405
36.28
39.5517
47.7164
57.6562
64.405
68.3106
71.1129
76.2587
86.0097
92.0112
96.9817
1.94035
2.08453
2.21572
2.33764
2.45408
2.5704
2.69467
2.83578
3.00748
3.2811
3.98729
7.45568
10.5403
12.2891
13.7498
15.0438
15.9053
15.9842
15.8227
17.6923
23.7346
33.8593
45.5824
54.9976
61.4429
66.9106
76.18
87.7074
93.855
100.513
1.94027
2.08437
2.21515
2.33597
2.4506
2.56336
2.67998
2.80967
2.9545
3.14245
3.44109
4.13769
4.81675
5.20258
5.42254
5.63159
5.81912
6.08902
7.11118
10.0421
15.9918
25.2125
36.2135
46.1722
54.6431
64.5784
77.6908
88.6185
97.4664
104.706
1.94022
2.08425
2.21448
2.33443
2.44749
2.55715
2.66765
2.7843
2.91533
3.05929
3.23455
3.44888
3.65739
3.78122
3.85542
3.91209
3.96309
4.11096
4.99866
7.5826
12.5892
20.1547
29.6812
39.821
50.6617
64.8715
79.8173
92.1566
102.112
108.963
1.94027
2.08405
2.21389
2.33317
2.44494
2.55219
2.65808
2.76556
2.88603
3.00909
3.13868
3.26676
3.37556
3.447
3.48835
3.52567
3.56285
3.6463
4.2499
6.37009
10.5732
16.9643
25.2793
35.1012
48.2494
66.1176
82.5818
96.5274
106.327
112.378
1.94031
2.08389
2.21349
2.33231
2.44319
2.54875
2.65132
2.75386
2.86403
2.9779
3.08916
3.19355
3.2809
3.33243
3.36574
3.39804
3.43072
3.48223
3.84627
5.47004
9.04622
14.7855
22.4672
32.5859
48.1177
66.116
84.681
98.422
108.387
113.966
1.94034
2.08389
2.21342
2.33209
2.44266
2.54757
2.64887
2.74936
2.85502
2.96584
3.0711
3.16875
3.24471
3.29072
3.32222
3.35261
3.38349
3.41976
3.61503
4.73933
7.89878
13.2176
20.6547
31.528
48.7073
67.552
85.4342
97.4609
106.562
112.659
1.77766
1.77828
1.78144
1.7869
1.79463
1.80476
1.8175
1.8354
1.85853
1.88784
1.9253
1.96844
2.01309
2.06098
2.11936
2.21167
2.52344
4.58615
10.516
19.9517
34.5421
43.3627
47.6805
50.9432
54.5543
60.2774
67.9102
75.0088
81.3946
81.1197
1.77765
1.77827
1.78143
1.78691
1.79468
1.80493
1.81796
1.83646
1.86011
1.89085
1.93114
1.97803
2.03192
2.09686
2.18274
2.32823
2.86425
5.08928
10.0468
17.9391
32.161
42.4898
47.5407
50.6119
53.5696
57.3368
63.4044
70.2712
76.1576
79.4074
1.77765
1.77828
1.78146
1.787
1.79491
1.80552
1.81946
1.83909
1.86449
1.89901
1.94896
2.016
2.12851
2.31062
2.57309
2.98183
3.84141
6.01695
9.85102
16.9566
29.2394
40.4558
46.6533
49.8394
52.2651
54.9782
59.5961
66.4305
72.7266
78.2748
1.77765
1.77829
1.78151
1.78713
1.79525
1.80636
1.82151
1.843
1.87173
1.91484
1.99921
2.20597
2.67091
3.48992
4.50625
5.70135
7.07895
8.7939
11.4847
17.7875
27.9945
38.9807
45.8559
49.2023
51.2837
53.3654
57.0108
63.6536
70.9101
76.8085
1.77766
1.7783
1.78157
1.7873
1.79568
1.80744
1.82417
1.84783
1.88182
1.94728
2.2161
3.266
5.22305
7.76437
10.4975
13.2819
15.8087
17.5909
19.0014
22.7553
30.251
39.5066
45.931
49.0422
50.6972
52.2843
55.2761
61.7429
69.7376
74.9632
1.77766
1.77831
1.78162
1.78749
1.79619
1.80875
1.82744
1.8549
1.899
2.02718
3.30197
7.73296
13.0551
19.9511
26.1582
30.6044
33.4068
34.4684
34.5097
34.365
37.281
42.7912
47.3307
49.5886
50.6269
51.7542
54.3694
60.6799
68.6949
72.9651
1.77767
1.77833
1.78167
1.78766
1.79673
1.81019
1.83045
1.86275
1.93026
2.21183
6.82603
21.577
34.8618
52.7025
59.7774
60.2294
58.55
55.2031
50.7354
46.6869
45.3439
47.1085
49.3615
50.5173
50.95
51.6911
54.0371
60.1357
67.5034
71.0029
1.77767
1.77836
1.78173
1.7878
1.7972
1.81154
1.83369
1.87291
1.96945
2.4338
3.70187
33.0547
56.4549
98.2504
107.746
89.3276
75.5978
65.7741
58.6472
53.2134
50.5024
50.3554
51.0614
51.3692
51.3839
51.8759
54.0192
59.7414
66.143
69.2239
1.77767
1.77837
1.78179
1.78794
1.79755
1.81258
1.83659
1.88416
2.01814
2.82623
5.42768
153.476
174.688
213.203
120.843
95.8608
80.0881
69.429
61.9809
57.0136
53.9746
52.7286
52.3507
52.0573
51.8022
52.1613
54.1512
59.3816
64.8413
67.7974
1.77768
1.77839
1.78183
1.78803
1.79777
1.81317
1.8382
1.89151
2.07367
3.11042
7.57348
1834.72
503.866
517.825
116.976
93.851
79.2196
69.1468
62.2181
58.09
55.7525
54.2346
53.2734
52.5956
52.1847
52.4976
54.3852
59.1391
63.8347
66.8276
1.77768
1.7784
1.78182
1.78802
1.79774
1.81311
1.8384
1.89291
2.10255
3.26144
8.93839
631.455
100.434
85.992
75.5018
67.7085
61.825
58.1041
56.4412
55.0561
53.8579
52.9784
52.5124
52.8508
54.6885
59.0796
63.2146
66.3493
1.77768
1.77838
1.78178
1.78789
1.79744
1.81242
1.83701
1.8881
2.06946
3.00504
7.17542
342.82
352.95
563.934
109.969
90.985
79.7627
71.2148
62.9673
56.7986
54.8794
54.2238
53.4503
52.7702
52.4842
52.9854
54.9482
59.1391
62.903
66.3385
1.77768
1.77837
1.78171
1.78772
1.797
1.81126
1.834
1.87721
2.00454
2.5799
4.45518
121.959
163.164
176.579
106.612
90.7646
78.1842
67.1882
57.1003
49.6949
47.7457
49.2608
50.426
50.934
51.3877
52.3886
54.8335
59.136
62.7672
66.8155
1.77768
1.77835
1.78163
1.78755
1.79647
1.80978
1.83045
1.86512
1.94779
2.23754
4.47222
22.6143
31.9983
39.1131
43.4163
44.2828
42.7554
39.132
34.9129
32.6427
34.2765
39.3185
43.8458
46.6742
48.6158
50.7081
54.2552
59.0212
62.9344
67.74
1.77768
1.77832
1.78158
1.78735
1.79588
1.80824
1.82708
1.85531
1.90939
2.04276
2.66223
6.47158
9.42197
11.0988
12.8316
14.3279
15.301
15.6155
15.7838
17.7763
22.2411
29.0352
35.9063
40.9355
44.648
48.4811
53.6479
58.968
63.8626
69.2212
1.77767
1.77831
1.78153
1.78714
1.79533
1.80684
1.82346
1.84737
1.88501
1.9576
2.13835
2.72686
3.44911
3.8797
4.23493
4.60304
5.06591
6.35011
8.69601
11.3662
15.7522
21.989
29.0187
35.3397
40.9117
46.9833
53.6967
59.9751
65.6334
71.2423
1.77767
1.7783
1.78147
1.78697
1.79488
1.80569
1.82056
1.84148
1.87068
1.91612
1.99254
2.12233
2.24668
2.32475
2.37262
2.42049
2.5955
3.90429
6.61854
9.12657
12.6922
17.8643
24.195
30.9769
38.3216
46.662
55.1206
62.1187
68.0265
73.5489
1.77767
1.77829
1.78142
1.78683
1.79452
1.80481
1.81835
1.83746
1.86203
1.89515
1.94039
1.99241
2.03854
2.06817
2.08785
2.1092
2.18842
3.09439
5.59133
8.30725
11.201
15.5761
21.2542
28.1859
37.0136
47.6313
57.0795
64.4642
70.3137
75.5078
1.77767
1.77828
1.78139
1.78674
1.79429
1.8042
1.81677
1.83456
1.85645
1.88407
1.91749
1.95176
1.98106
2.00097
2.01607
2.03229
2.07415
2.62658
4.811
7.92805
10.5075
14.3483
19.6119
26.8233
37.4019
49.6909
58.9354
65.7653
71.4239
76.167
1.7777
1.77833
1.78146
1.78682
1.79433
1.80412
1.81636
1.83343
1.85433
1.87999
1.90954
1.93908
1.96327
1.97885
1.99155
2.00644
2.03166
2.30344
4.11184
7.515
10.2741
13.707
18.6283
26.2132
38.9239
51.1924
58.9923
64.9723
70.2261
74.6317
1.77415
1.76845
1.76301
1.75791
1.75326
1.74926
1.74632
1.74547
1.74811
1.75624
1.77301
1.79538
1.81463
1.83336
1.87321
2.10574
3.20387
6.61045
13.7973
23.9764
36.5239
42.7718
45.1775
47.2357
50.2306
55.0453
61.257
68.161
74.8125
76.9563
1.77414
1.76844
1.763
1.7579
1.75327
1.74932
1.74653
1.74605
1.74944
1.75931
1.78101
1.8128
1.85689
1.91511
2.02585
2.45041
3.92297
7.49326
13.6707
21.7113
34.6786
42.4847
45.4287
47.1397
49.336
52.632
57.4986
63.6385
69.683
74.5382
1.77414
1.76844
1.763
1.75792
1.75334
1.74955
1.7471
1.74762
1.75301
1.76789
1.8109
1.91667
2.17087
2.53749
2.98911
3.65736
5.20279
8.52443
13.5596
19.7812
31.4254
40.773
44.8722
46.5829
48.0558
50.1222
53.8971
59.7502
66.7628
72.1657
1.77414
1.76844
1.76301
1.75796
1.75346
1.7499
1.74809
1.75021
1.75938
1.78765
1.95973
2.67786
3.89596
5.20458
6.44007
7.70959
9.05195
11.0208
14.3641
19.8503
29.6227
39.1972
44.1211
45.9864
47.024
48.3881
51.3591
56.996
64.6167
69.3108
1.77415
1.76844
1.76303
1.75801
1.75363
1.7504
1.74957
1.75434
1.77032
1.8513
2.86721
6.15395
10.1218
12.9932
15.3407
17.4276
19.0417
19.6302
20.4867
23.7968
30.8552
38.9897
43.7429
45.509
46.2138
47.1183
49.5321
55.0627
62.521
66.6563
1.77415
1.76845
1.76304
1.75808
1.75384
1.75102
1.75168
1.7603
1.79375
2.13329
6.71966
18.4726
26.511
30.999
33.8652
35.3258
35.6445
34.6363
32.7193
32.115
35.2695
40.4735
44.0156
45.3373
45.695
46.2809
48.3722
53.7048
60.6163
64.467
1.77415
1.76846
1.76306
1.75815
1.75406
1.7518
1.75387
1.7687
1.83897
3.03256
18.9451
53.6403
67.126
70.637
66.925
61.7312
56.3333
50.8715
45.4262
41.3448
40.6467
42.7132
44.6778
45.4022
45.4629
45.8565
47.7827
52.7881
58.967
62.7212
1.77415
1.76847
1.76309
1.75822
1.75428
1.75249
1.75632
1.77719
1.90733
3.01877
10.5739
113.075
140.186
127.691
103.081
83.9072
70.5461
61.5985
54.5976
48.4989
45.1661
44.811
45.3798
45.5456
45.401
45.7159
47.5474
52.1077
57.549
61.3488
1.77416
1.76848
1.76312
1.75828
1.75447
1.75304
1.7582
1.78247
1.99056
3.90348
22.6465
363.731
325.061
198.25
128.083
98.3887
80.2407
68.4455
59.9645
53.1397
48.4101
46.4578
45.9705
45.6914
45.4176
45.7216
47.4737
51.5507
56.3867
60.3226
1.77416
1.76849
1.76314
1.75833
1.75459
1.75326
1.75949
1.78347
1.93844
2.81676
16.8894
1423.55
1008.24
278.392
132.057
100.358
81.4832
68.8984
59.8109
53.7244
49.6103
47.3163
46.3222
45.7768
45.4538
45.7868
47.4683
51.1179
55.5294
59.6452
1.77416
1.76849
1.76315
1.75833
1.75456
1.75322
1.75853
1.78593
1.91016
2.66297
5.81925
574.099
965.616
323.651
129.472
98.0385
79.944
67.5161
58.025
52.3188
49.2843
47.4129
46.3601
45.7393
45.4533
45.8467
47.4875
50.8301
54.9928
59.3235
1.77415
1.76848
1.76313
1.75828
1.75442
1.75283
1.75691
1.78116
1.8858
2.47634
5.06833
886.455
525.584
312.208
122.917
94.8334
77.4686
64.6751
54.6469
49.0106
47.2162
46.3352
45.7433
45.3418
45.2294
45.7512
47.4471
50.6585
54.7486
59.4181
1.77415
1.76848
1.76311
1.75823
1.75426
1.7523
1.75506
1.77296
1.8448
2.20797
3.577
114.611
143.568
161.618
92.849
79.6162
66.8119
55.0867
45.7825
41.1231
41.3567
42.7521
43.5795
43.98
44.3615
45.2339
47.2183
50.558
54.8094
59.8472
1.77416
1.76848
1.7631
1.75818
1.75408
1.75166
1.75311
1.76462
1.80947
1.98066
3.20962
14.3481
20.1754
25.8461
31.3894
33.4252
32.2921
28.9164
26.9326
27.7412
31.394
36.0719
39.2809
41.1542
42.515
44.1676
46.8358
50.622
55.4004
60.6822
1.77416
1.76847
1.76309
1.75813
1.7539
1.75107
1.75132
1.75823
1.78331
1.86072
2.1983
4.28142
5.78879
6.83936
8.10465
9.25988
10.1899
11.3984
14.0532
17.8119
22.8013
28.8144
33.9004
37.373
40.0792
42.9983
46.7068
51.2547
56.5625
61.99
1.77416
1.76847
1.76308
1.75809
1.75375
1.75058
1.74975
1.75359
1.76761
1.80579
1.90904
2.19921
2.52765
2.68727
2.86667
3.1303
4.22988
7.01402
10.6517
13.8884
18.0352
23.4083
28.995
33.7403
38.0207
42.5424
47.5088
52.7805
58.3676
63.8541
1.77415
1.76847
1.76307
1.75806
1.75364
1.75021
1.7486
1.75053
1.75864
1.77883
1.82071
1.88885
1.94589
1.9732
1.99532
2.07754
2.93197
5.49349
9.17801
12.4198
15.6617
20.1496
25.4836
31.1149
37.0047
43.1805
49.2618
54.9915
60.6584
66.1669
1.77415
1.76847
1.76307
1.75804
1.75357
1.74996
1.74782
1.7486
1.75347
1.76528
1.78638
1.81138
1.83111
1.84004
1.84695
1.88195
2.43337
4.55646
8.16144
11.7546
14.6357
18.5298
23.5496
29.8536
37.3235
44.9362
51.5508
57.3666
62.9076
68.2912
1.77416
1.76848
1.76307
1.75804
1.75354
1.74982
1.74741
1.74738
1.75056
1.75842
1.77123
1.78443
1.79259
1.79546
1.79801
1.81423
2.13342
3.82431
7.31668
11.3695
14.532
18.0032
22.8837
30.0497
39.3008
47.5316
53.6101
58.924
64.0877
69.0201
1.77418
1.76853
1.76315
1.75815
1.75365
1.74992
1.74741
1.74707
1.7496
1.75594
1.76578
1.77528
1.77964
1.77958
1.78017
1.78792
1.94407
3.21292
6.56323
10.949
14.5999
17.988
22.9168
31.3567
41.4941
48.5726
53.6583
58.366
63.0888
67.3953
1.77407
1.76815
1.76229
1.75652
1.75089
1.74552
1.7407
1.73716
1.73634
1.74029
1.75194
1.7693
1.78354
1.80165
1.94571
2.69513
4.8324
9.183
16.737
27.2888
38.7679
43.8535
44.9204
46.0149
48.814
53.3219
58.921
65.8575
71.6636
76.3976
1.77407
1.76814
1.76228
1.75651
1.75089
1.74555
1.74085
1.73764
1.73762
1.74338
1.76044
1.79035
1.83015
1.89391
2.15077
3.1536
5.63774
10.0453
16.5848
25.3031
37.5238
44.0841
45.6756
46.2821
47.9307
50.9933
55.4323
61.2099
67.6234
72.6445
1.77407
1.76814
1.76228
1.75652
1.75094
1.74572
1.74132
1.73895
1.74104
1.75201
1.79392
1.9286
2.22842
2.63496
3.11788
4.16518
6.62804
10.8136
16.3627
23.1573
34.4156
42.6532
45.4356
45.9724
46.6697
48.3514
51.8811
57.492
64.999
68.9815
1.77406
1.76814
1.76229
1.75655
1.75102
1.74599
1.74211
1.74133
1.74734
1.77306
1.98395
2.99991
4.64868
6.17581
7.31601
8.26838
9.60979
12.564
16.8472
22.4982
32.2318
40.9313
44.6557
45.4252
45.6376
46.5461
49.3316
54.8633
61.9297
65.3267
1.77407
1.76814
1.7623
1.75659
1.75115
1.74638
1.74332
1.74537
1.7587
1.84558
3.27981
8.11835
13.2041
16.3005
18.1655
19.4658
19.9292
19.9289
21.1982
25.0632
32.3766
39.9794
43.8233
44.7202
44.7261
45.1982
47.462
52.6619
59.0249
62.5354
1.77407
1.76815
1.76231
1.75663
1.75131
1.74687
1.74514
1.75092
1.78575
2.23572
8.93019
24.0818
34.3215
37.2664
38.3848
38.0546
36.5543
33.9977
31.222
31.0799
34.8932
40.1531
43.2947
44.0973
43.9875
44.2347
46.159
50.8731
56.7823
60.6303
1.77407
1.76815
1.76233
1.75669
1.75148
1.74747
1.74727
1.75852
1.84507
3.75314
25.7495
64.2056
78.6452
73.5614
66.4165
59.3746
52.7697
46.6773
41.2364
37.8266
38.2404
40.9771
43.0772
43.6546
43.4937
43.6638
45.3837
49.6304
55.186
59.3721
1.77407
1.76815
1.76235
1.75674
1.75164
1.74816
1.74849
1.77551
1.87097
7.40173
67.6558
154.643
153.143
114.834
88.2892
71.8496
61.0052
53.7613
48.1395
43.264
41.264
41.9557
43.0472
43.363
43.1967
43.3848
44.9758
48.7928
54.0623
58.5422
1.77408
1.76817
1.76237
1.75679
1.75179
1.74848
1.75052
1.77444
1.9725
4.08497
40.356
334.78
275.849
186.799
114.59
88.1838
71.9109
61.3986
53.7087
47.2559
43.5831
42.8052
43.0753
43.1502
43.0039
43.2473
44.7534
48.2188
53.2803
57.9989
1.77408
1.76818
1.7624
1.75684
1.75188
1.74863
1.75118
1.77222
1.89675
2.98112
29.9178
393.341
318.542
212.619
112.901
89.5856
72.8548
60.7659
52.5569
47.2644
44.1547
43.0716
42.9654
42.9209
42.8262
43.1477
44.6164
47.8516
52.7931
57.6906
1.77408
1.76817
1.76239
1.75684
1.75187
1.74855
1.75039
1.76997
1.85237
2.33767
5.90394
62.9391
240.453
174.402
93.6445
77.4093
64.6919
54.6701
47.6153
44.3927
43.0526
42.6041
42.5929
42.5885
42.5953
43.0246
44.5258
47.6739
52.5808
57.6375
1.77407
1.76817
1.76237
1.75679
1.75176
1.74822
1.74903
1.76448
1.82997
2.14488
3.02907
77.0151
131.595
133.568
78.645
67.7744
56.819
47.2629
41.322
39.9131
40.562
41.2894
41.7711
42.0071
42.2044
42.8021
44.4504
47.6755
52.6454
57.8971
1.77407
1.76817
1.76237
1.75677
1.75165
1.74781
1.74751
1.75807
1.80283
2.00445
3.75167
20.8966
29.3665
38.6024
42.6498
42.2901
38.1893
33.2351
31.1961
32.6321
35.9265
38.5469
40.0522
40.8509
41.4344
42.3783
44.372
47.8781
53.0689
58.4274
1.77408
1.76817
1.76236
1.75674
1.75152
1.74736
1.74594
1.75199
1.78012
1.87669
2.40234
6.16282
8.57013
10.7031
12.808
14.1775
14.604
16.4
19.7088
24.0605
29.4657
34.1967
37.1593
38.8779
40.1617
41.7795
44.4149
48.4358
53.9973
59.2902
1.77408
1.76817
1.76236
1.75671
1.75141
1.74695
1.74455
1.74728
1.76263
1.81042
1.96919
2.62323
3.14836
3.48588
3.84915
4.56237
6.8346
10.6623
14.6298
18.7349
23.9685
29.4814
33.6368
36.4093
38.7109
41.3666
44.937
49.6383
55.4319
60.5901
1.77408
1.76817
1.76235
1.75668
1.75132
1.74662
1.74346
1.74382
1.75175
1.77567
1.83352
1.95806
2.05932
2.10487
2.16959
2.74201
4.9529
8.77169
12.8631
16.3574
20.5576
25.6831
30.4436
34.2522
37.7883
41.6792
46.215
51.4936
57.408
62.5451
1.77408
1.76817
1.76235
1.75667
1.75126
1.74639
1.7427
1.7415
1.74513
1.75732
1.78294
1.82019
1.84852
1.8632
1.8865
2.25053
3.99876
7.52562
11.7496
15.2871
18.7803
23.2765
28.2763
33.1172
37.9563
43.0024
48.2779
53.9104
59.8649
65.213
1.77408
1.76817
1.76235
1.75667
1.75122
1.74624
1.7422
1.74005
1.74123
1.74757
1.76016
1.77546
1.78539
1.78927
1.79796
2.00382
3.31186
6.49557
10.8579
14.8088
18.1379
22.2001
27.3605
33.2538
39.3645
45.221
50.7816
56.4398
62.3037
67.8521
1.77408
1.76818
1.76236
1.75667
1.75121
1.74617
1.74193
1.73923
1.73909
1.7425
1.74936
1.75646
1.75906
1.75786
1.7598
1.86517
2.8047
5.63662
10.0892
14.5931
18.2011
22.1616
27.6202
34.7352
41.8316
47.6714
52.8262
58.0653
63.5479
68.785
1.77411
1.76823
1.76244
1.75678
1.75134
1.74629
1.742
1.7391
1.73843
1.74068
1.74538
1.74945
1.74916
1.74558
1.74422
1.78239
2.40125
4.90155
9.38013
14.2737
18.3008
22.6061
28.6573
36.7083
43.368
48.2775
52.7779
57.4829
62.4403
66.965
1.77407
1.76815
1.76227
1.75647
1.75078
1.7453
1.74026
1.73628
1.73454
1.73673
1.74525
1.75884
1.77195
1.83222
2.28229
3.79351
6.84989
11.7094
19.2468
29.6703
40.6603
45.3517
45.24
45.2753
47.9492
52.5163
58.053
64.7484
70.4118
77.5703
1.77407
1.76814
1.76226
1.75646
1.75078
1.74533
1.7404
1.73671
1.73568
1.73952
1.75243
1.77451
1.80407
1.91553
2.50565
4.27142
7.57979
12.4329
19.0452
27.9909
39.7881
45.9336
46.5365
46.0136
47.1862
50.2679
54.7703
60.4593
67.573
71.5912
1.77407
1.76814
1.76227
1.75647
1.75082
1.74547
1.74081
1.73786
1.73873
1.7472
1.77664
1.85486
2.02393
2.3076
3.00316
4.86669
8.26694
12.9551
18.703
25.8411
36.837
44.6198
46.5736
46.0149
46.009
47.6093
51.339
57.3387
64.3252
66.689
1.77407
1.76814
1.76227
1.75649
1.75089
1.7457
1.74148
1.7399
1.7444
1.76417
1.87503
2.41625
3.49639
4.62533
5.46487
6.78525
9.74516
13.9046
18.7334
24.7132
34.4123
42.7332
45.7654
45.6
45.0958
45.8006
48.8096
54.4879
60.2644
62.73
1.77407
1.76814
1.76228
1.75653
1.751
1.74603
1.7425
1.74341
1.75452
1.81014
2.4785
5.37802
9.38465
12.3572
14.0777
14.9506
15.8003
17.6378
20.8193
25.7672
33.6023
41.196
44.603
44.8158
44.2367
44.4755
46.8296
51.6537
56.9751
60.1483
1.77407
1.76814
1.76229
1.75656
1.75113
1.74645
1.74394
1.74871
1.77353
1.9872
5.3488
15.1674
24.5405
29.372
32.1389
32.758
31.3186
29.1556
27.9683
29.5613
34.5985
40.4327
43.5383
43.9698
43.4694
43.491
45.3161
49.4788
54.8274
58.6851
1.77407
1.76815
1.7623
1.75661
1.75127
1.74691
1.74584
1.75482
1.81459
2.71894
14.3203
38.6224
55.4217
59.6945
58.5127
53.8021
47.4944
41.3502
36.2901
34.3056
36.4201
40.2554
42.7381
43.2595
42.9082
42.8829
44.3912
48.1196
53.5868
57.9544
1.77407
1.76816
1.76233
1.75665
1.75141
1.7474
1.74749
1.7623
1.8733
4.67031
36.2818
86.7572
106.112
93.7326
76.6038
64.018
54.6977
47.6354
41.7386
38.149
38.1699
40.3566
42.182
42.7146
42.5291
42.5649
43.9183
47.3648
52.9255
57.6526
1.77408
1.76817
1.76236
1.7567
1.75151
1.74776
1.74812
1.7713
1.86886
8.51953
87.4002
169.583
151.797
112.417
85.1982
69.1949
58.3045
50.4944
44.5289
40.4739
39.3861
40.4617
41.7526
42.2613
42.2302
42.3824
43.702
46.9932
52.6061
57.5813
1.77408
1.76817
1.76238
1.75675
1.75158
1.74788
1.74836
1.76787
1.84608
4.59735
42.2525
96.6033
105.849
94.8566
80.8064
67.8979
55.8198
47.0567
42.1412
39.8128
39.3532
40.2161
41.2816
41.8052
41.9246
42.2326
43.6217
46.8915
52.5584
57.6616
1.77408
1.76818
1.76236
1.75674
1.75158
1.74776
1.74803
1.76157
1.82209
2.42338
12.4871
34.3478
48.2043
49.2951
47.586
43.6964
38.9749
35.7753
35.181
36.479
37.9758
39.4445
40.6377
41.2663
41.5583
42.0657
43.6295
47.0034
52.7412
57.876
1.77408
1.76817
1.76234
1.7567
1.7515
1.74749
1.74695
1.75661
1.79825
1.98929
4.15669
12.8976
18.1373
20.2568
24.4159
25.5027
25.1678
26.0166
28.6022
32.3477
35.7452
38.163
39.7219
40.5636
41.0791
41.8587
43.7155
47.3077
53.1415
58.2458
1.77408
1.76817
1.76234
1.75668
1.75141
1.74717
1.74568
1.75198
1.77961
1.88311
2.52084
6.25331
8.48471
10.2999
11.9947
12.6471
14.7927
18.1998
22.5268
27.6024
32.6012
36.1668
38.3324
39.5445
40.4007
41.6038
43.9149
47.8438
53.8048
58.7627
1.77408
1.76817
1.76234
1.75666
1.75132
1.74682
1.74446
1.74772
1.76482
1.8206
2.02937
2.88795
3.53408
3.89163
4.21725
5.51492
8.73898
13.2721
17.8831
23.0709
28.8213
33.4247
36.3564
38.1183
39.5223
41.3857
44.3758
48.7913
54.8905
59.502
1.77408
1.76817
1.76233
1.75664
1.75123
1.74651
1.7434
1.74423
1.75386
1.78308
1.86054
2.04741
2.19412
2.26037
2.52642
4.05887
7.45698
11.8938
16.087
20.21
25.4671
30.479
34.0716
36.5169
38.7083
41.4672
45.2889
50.268
56.3659
60.6693
1.77408
1.76816
1.76233
1.75662
1.75116
1.74626
1.74258
1.74164
1.74632
1.76144
1.79518
1.84992
1.89376
1.91976
2.10078
3.33215
6.38928
10.7513
15.0382
18.7118
23.1081
28.0015
32.0983
35.3195
38.4747
42.2158
46.8316
52.2943
58.3641
62.7057
1.77408
1.76817
1.76233
1.75661
1.75112
1.74608
1.74199
1.73987
1.74148
1.74911
1.76507
1.78679
1.80359
1.81439
1.91187
2.78408
5.41017
9.65384
14.1952
17.9442
21.7811
26.4268
30.9861
35.1014
39.2685
43.8552
49.0398
54.8452
61.0148
65.8051
1.77408
1.76817
1.76233
1.75661
1.75109
1.74597
1.7416
1.73876
1.73853
1.7421
1.74986
1.75925
1.76513
1.76771
1.81068
2.38133
4.55885
8.63059
13.4675
17.6339
21.3541
25.842
30.9592
36.0671
41.116
46.208
51.5942
57.4871
63.691
69.1099
1.77408
1.76817
1.76234
1.75662
1.7511
1.74592
1.74141
1.73814
1.73689
1.7383
1.7421
1.74594
1.74657
1.74485
1.76142
2.11505
3.87711
7.72888
12.8199
17.5402
21.4871
26.0458
31.8655
37.9655
43.4369
48.4458
53.5507
59.1035
64.9782
70.3749
1.77411
1.76823
1.76242
1.75672
1.75122
1.74605
1.74149
1.73807
1.73641
1.73695
1.73918
1.74079
1.73921
1.73537
1.73947
1.93478
3.31932
6.9588
12.1637
17.294
21.6263
26.6049
33.1452
39.4029
44.3435
48.7991
53.4231
58.439
63.7229
68.386
1.77407
1.76815
1.76229
1.75649
1.7508
1.74531
1.74023
1.73607
1.73372
1.73452
1.74016
1.74994
1.77029
1.96959
2.90789
5.17477
8.86531
13.967
21.2992
31.341
42.2432
47.1247
45.9615
44.7018
47.2546
52.0243
57.6168
63.5923
71.2803
79.1938
1.77407
1.76815
1.76227
1.75647
1.75079
1.74533
1.74033
1.7364
1.73464
1.73676
1.74553
1.76077
1.79504
2.06503
3.17953
5.67407
9.54463
14.5968
21.1025
29.9499
41.5332
47.8451
47.7263
45.9586
46.6821
50.0049
54.8514
60.6376
68.122
70.5913
1.77407
1.76815
1.76228
1.75648
1.75083
1.74545
1.74067
1.73736
1.73716
1.74297
1.76201
1.80142
1.88267
2.23613
3.49039
6.15432
10.0959
14.956
20.669
27.9131
38.7347
46.5125
47.9461
46.2954
45.6455
47.4871
51.7793
58.1236
63.5064
64.6606
1.77407
1.76815
1.76228
1.7565
1.75089
1.74564