/*--------------------------------*- C++ -*----------------------------------*\
| =========                 |                                                 |
| \\      /  F ield         | OpenFOAM: The Open Source CFD Toolbox           |
|  \\    /   O peration     | Version:  2512                                  |
|   \\  /    A nd           | Website:  www.openfoam.com                      |
|    \\/     M anipulation  |                                                 |
\*---------------------------------------------------------------------------*/
FoamFile
{
    version     2.0;
    format      ascii;
    arch        "LSB;label=32;scalar=64";
    class       volScalarField;
    location    "80";
    object      omega;
}
// * * * * * * * * * * * * * * * * * * * * * * * * * * * * * * * * * * * * * //

dimensions      [0 0 -1 0 0 0 0];

internalField   nonuniform List<scalar> 
90398
(
16.0928
15.95
20.7127
52.323
108.449
178.03
249.629
304.55
335.222
348.354
348.565
340.588
330.896
324.763
339.552
419.677
586.25
720.033
793.323
825.612
832.921
823.979
803.749
775.675
743.03
709.102
676.686
642.277
604.213
544.569
16.0951
16.1017
25.0849
65.7082
129.279
204.674
274.665
324.064
352.165
364.161
364.509
355.707
343.271
333.027
338.785
399.653
544.505
689.422
774.801
814.753
826.826
820.925
802.533
775.312
742.687
708.009
674.247
639.646
603.695
550.24
16.1005
16.5343
32.7288
81.9487
152.881
233.73
304.577
351.935
377.578
386.973
385.022
375.128
359.356
344.105
338.998
376.682
491.574
641.61
742.056
792.538
811.294
809.757
794.219
768.785
737.031
702.463
668.429
634.412
601.118
553.424
16.1124
17.62
43.4237
101.299
181.778
268.361
339.077
384.076
405.926
410.357
403.619
391.688
375.457
356.295
342.219
357.844
444.519
580.156
695.348
758.92
786.334
790.512
778.818
755.981
725.82
692.131
658.608
625.685
595.213
552.875
16.1387
19.8057
55.2263
123.28
213.865
305.252
374.096
415.314
431.59
427.017
411.563
396.342
383.074
364.556
345.968
344.84
401.578
516.274
634.25
712.703
751.362
763.063
756.446
737.021
709.139
676.955
644.547
613.151
585.644
548.526
16.1904
23.308
68.1317
145.732
244.687
338.618
405.203
441.57
449.514
427.462
400.673
383.318
375.827
363.242
345.2
334.835
364.338
455.134
563.624
652.685
705.405
727.122
727.072
711.965
686.987
656.832
626.054
596.615
572.308
540.389
16.2693
27.3213
79.9257
165.227
269.591
363.026
426.49
457.913
453.168
414.469
385.798
370.608
370.778
365.014
343.727
326.72
334.339
396.484
494.577
583.767
647.642
681.992
690.462
680.741
659.27
631.573
602.897
575.897
555.161
528.52
16.3651
30.8353
88.7297
178.687
284.915
376.435
436.622
461.971
435.411
726.482
622.151
616.665
576.034
565.182
338.369
315.066
308.12
341.404
423.815
514.982
585.174
627.097
645.562
642.478
625.184
601.48
575.917
550.87
534.127
513.023
16.4469
33.1749
93.7824
184.68
289.229
377.684
435.339
456.271
764.686
634.283
765.506
681.785
539.043
459.422
322.115
294.43
280.549
290.827
351.059
442.367
521.656
573.304
598.746
602.248
590.812
571.318
548.741
526.076
509.455
494.056
16.4782
33.878
94.8817
183.232
282.367
366.907
422.732
442.274
733.572
1363.07
1241.01
1323.97
962.162
723.192
310.333
292.905
276.065
263.788
285.751
365.207
454.416
517.64
551.575
561.5
555.021
539.225
519.557
499.507
484.727
472.031
16.4412
32.9522
92.1108
174.618
265.675
345.065
399.729
421.599
714.424
1473.55
1158.88
891.351
878.59
348.92
327.541
309.174
290.909
275.873
300.423
382.811
458.758
502.71
519.198
517.23
504.805
487.954
470.593
458.711
448.073
16.363
30.6911
85.3158
159.951
240.239
312.567
365.65
391.663
689.387
659.565
940.807
1057.85
1081.84
1110.44
356.483
332.193
312.094
296.061
281.437
275.811
318.719
397.297
452.075
475.448
477.606
468.197
454.014
439.342
430.776
423.754
16.2751
27.5846
75.4861
141.097
210.92
274.089
323.681
354.567
366.382
632.559
526.143
481.62
461.813
533.202
318.146
305.202
291.283
279.307
269.117
261.917
277.145
339.514
401.351
430.993
436.656
429.83
418.091
406.091
400.971
398.16
16.206
24.3683
64.8267
120.623
179.767
234.287
279.658
312.236
331.747
338.961
325.761
308.592
298.03
300.92
299.193
284.867
270.678
258.669
250.106
245.82
252.6
294.689
354.372
387.629
395.448
390.395
380.826
371.599
369.815
371.202
16.1623
21.6658
54.5493
99.9116
147.825
192.482
230.746
260.616
283.546
299.314
299.267
287.158
292.019
308.794
290.558
265.509
250.507
239.691
226.507
227.807
236.597
267.448
317.516
348.162
355.18
350.925
343.396
337.355
338.349
343.267
16.1389
19.7399
44.9645
80.3931
117.381
149.38
172.759
189.66
208.95
233.721
244.713
258.601
305.879
312.701
260.776
242.969
246.084
253.838
216.967
221.011
233.146
259.564
294.384
314.346
317.691
313.717
308.551
305.688
308.141
316.401
16.1266
18.5871
37.1712
63.6168
89.457
109.413
122.886
139.145
169.416
196.175
225.054
282.333
351.545
257.65
234.749
251.347
265.262
271.535
255.381
239.809
249.357
263.832
278.604
286.036
285.366
281.801
278.932
277.883
278.544
278.575
16.1217
18.0117
31.9481
50.839
67.4846
80.2593
91.1996
123.85
180.461
219.699
278.12
334.403
284.575
213.238
243.349
263.953
278.261
281.129
272.872
262.469
259.339
261.292
262.427
261.183
257.811
254.132
250.768
246.885
241.163
231.265
16.1164
17.7668
29.0386
42.8086
53.8623
62.5699
73.7209
132.722
210.455
252.432
272.012
276.03
211.73
215.268
248.104
264.75
274.696
274.586
268.483
261.198
254.663
249.195
245.505
242.875
240.658
239.106
238.091
237.447
237.576
239.866
16.1163
17.6826
27.5523
38.6187
47.1176
53.6348
66.5496
155.405
235.326
242.998
229.879
222.854
185.907
215.262
250.289
266.054
274.825
275.422
271.895
267.375
262.733
258.813
256.104
255.031
255.721
257.891
260.929
264.244
267.682
270.42
1.94097
2.13802
3.78396
10.8106
24.8336
44.8259
66.5537
84.7168
97.4108
106.031
111.786
115.889
123.057
134.443
151.38
167.311
189.737
215.133
234.517
247.518
255.646
260.148
261.755
260.791
257.294
251.305
242.806
231.701
218.672
204.898
1.94258
2.24985
4.88888
14.126
30.8001
52.7886
74.2682
91.029
102.92
110.987
116.221
119.366
122.983
131.901
149.101
170.916
189.634
214.056
233.709
246.994
255.284
259.882
261.58
260.7
257.376
251.551
243.192
232.221
219.344
205.94
1.94702
2.49702
6.76992
18.4869
37.7724
61.3953
82.8662
99.0947
110.322
117.888
122.691
125.172
126.756
132.067
146.922
170.96
193.397
211.574
230.467
244.143
252.871
257.814
259.768
259.143
256.077
250.503
242.418
231.775
219.33
206.459
1.95792
2.96675
9.41701
23.7221
46.194
71.4118
92.7517
108.249
118.756
125.997
130.745
132.696
133.013
134.669
145.853
169.048
196.422
210.527
226.387
239.879
249.042
254.467
256.814
256.579
253.821
248.571
240.829
230.599
218.683
206.371
1.98709
3.68004
12.4736
29.8121
55.3095
81.8527
102.845
117.415
127.31
134.978
141.154
142.609
141.114
139.714
146.062
166.036
195.946
217.584
224.509
235.473
244.404
250.158
252.994
253.155
250.768
245.875
238.502
228.71
217.347
205.581
2.04704
4.63813
15.7191
36.0481
63.9934
91.1463
111.849
125.75
135.43
146.865
160.679
159.618
153.052
147.358
148.003
163.006
191.996
221.586
232.883
234.099
240.177
245.512
248.567
249.067
247.04
242.494
235.478
226.104
215.271
204.014
2.1349
5.69307
18.6998
41.5372
71.0836
98.3313
118.546
132.254
142.99
174.439
204.218
193.384
175.987
161.582
153.945
162.64
186.781
219.672
241.948
243.59
239.463
241.678
244.015
244.58
242.806
238.601
231.934
222.884
212.468
201.647
2.24086
6.61422
20.9787
45.5932
75.7894
102.768
122.622
136.54
150.751
219.526
323.563
289.581
236.793
197.959
173.141
173.401
186.416
213.234
243.34
255.596
250.244
242.438
240.784
240.467
238.687
235.58
229.692
220.233
209.203
198.533
2.33753
7.23881
22.3062
47.718
77.8611
104.402
124.06
138.433
178.108
309.967
462.162
469.572
320.086
249.768
209.402
196.981
194.662
205.967
233.71
258.456
262.212
253.258
245.858
242.458
240.289
237.015
230.657
220.34
206.574
194.891
2.38751
7.482
22.6405
47.7571
77.1138
103.112
122.779
138.152
192.046
366.839
820.241
1652.46
1507.65
547.469
223.422
206.929
197.648
195.425
212.495
245.31
264.741
263.241
255.031
249.089
245.174
240.528
232.962
221.513
205.905
191.086
2.35953
7.31961
22.0848
46.0638
74.1459
99.5333
119.31
135.289
192.179
344.748
1903.35
217.055
198.561
188.935
184.636
190.671
217.704
251.751
265.001
261.864
255.704
250.314
244.038
235.028
222.431
205.664
188.263
2.28783
6.83019
20.5993
42.8893
69.2274
93.9674
114.14
130.715
179.729
268.015
565.657
921.833
839.734
1121.94
201.042
183.707
172.857
168.095
171.247
189.814
226.073
255.276
262.451
259.045
253.316
245.776
235.492
221.977
204.771
185.499
2.20252
6.18287
18.5694
38.3847
63.8
89.9864
112.533
131.85
159.931
219.036
340.548
375.133
268.775
215.058
178.916
172.804
166.337
160.058
158.497
169.786
199.639
237.119
255.894
257.363
252.463
244.291
233.157
219.165
202.394
182.125
2.13652
5.52306
16.4323
33.2659
57.2969
85.2655
112.046
134.567
156.38
182.685
202.458
191.172
182.712
185.142
188.34
185.117
177.67
168.821
162.244
163.576
182.85
217.966
244.009
250.423
246.893
238.506
226.979
213.165
197.975
177.866
2.09494
4.95367
14.4307
28.1544
49.1512
76.6813
106.189
132.289
153.993
173.765
185.66
187.886
197.363
213.184
209.564
194.409
178.736
166.764
163.572
162.273
175.774
204.491
230.745
239.101
236.017
227.584
216.325
203.934
192.01
173.387
2.07547
4.53182
12.5849
23.6316
40.4534
63.6553
89.1725
112.689
135.384
158.014
175.135
194.047
225.23
230.886
199.253
174.427
160.129
160.472
163.907
164.398
178.621
200.001
218.259
224.056
220.572
212.443
202.539
192.796
183.852
170.457
2.07344
4.26514
11.1228
20.2836
32.6212
48.7457
66.9747
90.1338
118.315
145.805
174.114
211.814
228.07
197.832
173.26
156.296
155.153
163.055
167.893
175.36
185.831
196.45
204.981
206.582
201.944
194.072
185.267
176.656
167.694
157.963
2.07743
4.13078
10.1395
17.8173
26.7414
38.5183
54.067
85.577
121.321
150.691
180.551
195.441
186.204
176.167
157.506
145.172
150.421
159.882
167.485
174.752
179.89
183.15
184.244
181.398
174.882
166.317
156.966
147.16
136.495
125.426
2.07385
4.07819
9.58183
16.191
23.553
33.1368
50.4039
95.0526
132.406
149.757
164.967
176.587
184.282
167.857
145.375
130.481
132.142
138.287
145.002
149.956
151.417
149.978
146.97
142.588
136.438
129.252
121.513
113.569
105.644
99.78
2.0719
4.06263
9.29535
15.3451
22.0789
30.9415
51.303
108.505
135.137
151.892
171.826
189.976
199.336
167.408
136.672
116.115
112.883
114.859
117.906
120.112
120.03
118.122
115.336
112.054
108.585
105.207
102.061
99.1251
96.4494
94.1469
1.80812
2.99801
8.53025
17.1595
25.3245
37.251
49.2313
59.3075
66.7255
72.3476
76.8404
81.2282
88.2898
99.4349
111.481
121.402
134.487
148.018
159.569
168.563
175.279
180.131
183.377
185.058
185.048
183.047
178.945
172.562
164.673
155.925
1.85517
3.77581
10.6442
19.5583
28.827
41.5492
53.8028
63.4899
70.6699
76.0266
80.1236
83.5981
88.5712
98.0084
110.88
123.078
135.168
148.108
159.361
168.224
174.874
179.692
182.938
184.673
184.739
182.909
178.976
172.774
165.031
156.515
2.02397
5.01917
13.4607
22.6913
33.8376
47.5448
59.9004
69.1895
76.0515
81.1387
84.9404
87.772
90.9295
97.6324
109.492
123.504
135.038
146.775
157.454
166.16
172.828
177.725
181.089
182.958
183.184
181.6
177.922
172.016
164.591
156.46
2.31828
6.71245
16.8528
26.4716
39.8921
54.524
66.6816
75.6201
82.1488
87.1461
91.0638
93.6636
95.6135
99.4318
108.846
123.213
136.623
145.882
155.126
163.29
169.883
174.895
178.453
180.498
180.982
179.649
176.261
170.685
163.622
155.891
2.82471
8.85117
20.5131
31.0439
46.3016
61.6415
73.4924
82.0021
88.3207
93.8171
98.8458
101.598
102.594
103.808
109.611
122.625
138.098
147.903
154.07
160.689
166.73
171.688
175.35
177.618
178.337
177.248
174.139
168.881
162.161
154.801
3.54205
11.1729
23.783
35.5765
52.2051
67.8408
79.4665
87.677
94.1764
101.804
110.504
113.754
113.36
111.68
112.937
122.846
139.16
152.516
157.447
160.356
164.542
168.779
172.242
174.591
175.451
174.552
171.667
166.67
160.23
153.178
4.33647
13.3143
26.2443
39.5137
56.9247
72.4434
83.8795
92.1346
99.7232
114.023
132.442
136.638
133.792
126.908
122.02
126.664
141.024
157.738
166.088
165.879
165.34
167.208
169.752
171.779
172.597
171.78
169.031
164.179
157.898
151.052
5.05697
14.983
27.8146
42.3132
59.9794
75.1971
86.4765
95.0737
105.657
134.757
167.5
198.911
184.673
159.718
143.858
139.931
147.675
163.115
176.042
177.46
172.333
168.792
168.818
169.808
170.271
169.432
166.798
161.801
155.347
148.508
5.59939
16.1057
28.5951
43.7076
61.2765
76.0736
87.2348
96.368
112.967
164.49
267.636
444.546
316.863
219.427
177.31
163.74
161.732
169.31
182.406
189.125
184.072
176.118
171.731
170.496
170.213
169.144
166.139
160.565
153.024
145.715
5.90263
16.7466
28.8855
43.814
60.807
75.1149
86.2262
96.0257
118.066
191.712
418.176
1156.04
1039.63
571.324
197.641
181.165
171.939
170.141
179.273
192.292
194.17
186.175
178.506
174.608
172.816
170.791
166.894
160.334
151.489
142.881
5.96291
16.9853
28.9842
43.0331
59.0866
72.8587
83.8892
94.0243
118.445
213.14
887.388
949.2
207.798
183.175
168.512
161.17
165.501
182.095
195.378
194.221
186.638
180.825
177.314
173.881
168.679
160.81
150.497
140.348
5.82199
16.9555
29.1492
41.6936
56.4743
69.6095
80.6511
90.9905
113.765
181.624
316.708
764.162
659.353
925.279
189.513
167.266
153.978
145.856
147.843
164.489
186.379
196.33
193.216
187.305
182.492
177.546
170.839
161.511
149.734
137.978
5.55599
16.798
29.4591
39.9532
53.2403
66.2426
78.1752
89.7549
108.313
139.027
194.281
219.213
198.047
185.788
159.051
152.578
144.828
137.236
136.303
149.392
173.289
192.251
196.124
192.157
186.896
180.595
172.446
161.762
148.818
135.575
5.24827
16.571
29.7514
38.1086
49.78
63.5647
77.5454
90.973
106.531
126.931
142.391
144.121
148.434
159.297
164.768
160.222
151.216
141.833
136.911
143.547
163.765
185.617
195.241
194.05
188.905
181.688
172.416
160.779
147.43
133.142
4.95889
16.3124
29.9881
36.5937
46.239
60.2148
76.5788
93.0023
108.771
124.658
137.459
148.305
167.532
187.809
184.097
167.459
153.374
144.698
140.562
143.649
160.179
180.505
192.165
192.493
187.311
179.495
169.681
158.203
145.739
131.28
4.72734
16.1227
30.2505
36.4056
43.0476
55.0865
71.7719
90.4259
109.009
126.529
143.82
169.359
205.555
209.229
172.689
152.319
147.138
145.08
146.268
149.556
164.33
179.417
187.846
187.312
181.682
173.403
163.775
153.577
143.109
131.31
4.58535
16.0375
30.544
37.7555
41.1013
48.9507
62.711
84.7043
110.395
135.525
165.77
209.329
212.436
169.337
146.689
141.31
147.478
153.163
156.261
161.727
170.565
177.98
180.768
177.606
170.636
161.84
152.472
143.39
134.671
127.509
4.52791
16.0605
30.7474
38.8069
40.5311
45.147
57.7504
87.1074
119.338
149.309
183.375
180.804
153.852
137.753
129.69
131.2
139.69
148.026
154.663
160.762
165.059
166.099
163.4
157.181
148.845
139.731
130.737
122.339
114.744
108.743
4.53169
16.1589
30.8611
39.378
41.6902
44.3867
58.8312
97.0869
126.93
138.384
141.147
135.036
129.13
121.44
113.841
113.721
119.16
125.866
132.758
137.442
138.625
136.27
131.458
125.032
117.827
110.611
103.901
97.9075
92.7577
88.6668
4.54702
16.2185
30.8087
39.3994
42.2778
44.6974
61.741
105.793
119.33
122.382
126.21
127.243
123.314
111.531
100.628
97.3996
99.4529
102.798
106.729
108.976
108.692
106.275
102.61
98.3506
94.0247
89.9701
86.4323
83.5887
81.3013
79.4942
1.95786
4.45083
12.5951
23.8209
32.085
41.389
49.5068
56.2079
61.6125
65.96
69.6826
73.8668
80.0422
88.5623
98.1265
108.833
120.532
131.402
140.515
147.776
153.463
157.885
161.215
163.457
164.485
164.078
162.027
158.131
152.993
146.197
2.14288
5.73346
15.4161
27.2054
35.5552
45.0069
53.2469
59.9347
65.2201
69.3555
72.6987
75.9921
80.9473
88.677
98.5017
109.307
120.762
131.268
140.082
147.164
152.743
157.105
160.417
162.683
163.775
163.46
161.541
157.826
152.851
146.398
2.51647
7.63439
19.2426
31.7218
40.7417
50.4853
58.7362
65.2505
70.2694
74.1156
77.1135
79.6711
83.0403
89.0664
98.2059
109.053
119.751
129.568
137.914
144.774
150.293
154.681
158.069
160.451
161.694
161.545
159.842
156.365
151.657
145.655
3.15923
10.1747
23.7951
36.4553
46.6806
56.8109
65.0007
71.2494
75.9484
79.5997
82.561
84.8551
87.0676
91.0437
98.54
108.91
118.887
127.568
135.07
141.493
146.894
151.342
154.871
157.435
158.873
158.947
157.485
154.269
149.846
144.271
4.16435
13.3062
28.5313
40.6566
52.491
63.0407
71.1214
77.0684
81.5344
85.356
88.9536
91.4978
93.0737
95.1097
100.185
109.233
119.104
126.454
132.669
138.238
143.266
147.657
151.29
154.017
155.63
155.926
154.68
151.709
147.538
142.336
5.45995
16.6177
32.837
44.5895
57.5948
68.4017
76.3498
82.0392
86.5364
91.354
97.0112
100.858
102.139
102.368
104.38
111.043
120.53
128.265
132.69
136.508
140.468
144.364
147.856
150.582
152.288
152.715
151.615
148.819
144.827
139.915
6.82947
19.6622
36.322
48.4125
61.6118
72.3138
80.102
85.7332
90.7619
98.2142
109.405
117.799
119.692
117.144
114.547
116.922
124.399
132.89
137.569
138.793
140.088
142.439
145.164
147.56
149.166
149.576
148.507
145.767
141.837
137.098
8.0675
22.1241
38.8214
51.1909
64.1399
74.5297
82.1218
87.8826
94.2985
107.389
126.642
162.535
166.578
152.775
138.101
131.313
133.237
140.362
146.208
146.497
144.187
143.08
143.937
145.45
146.643
146.859
145.692
142.811
138.744
134.012
9.00653
23.8598
40.3647
52.6431
65.1107
75.0541
82.4338
88.447
97.4271
118.671
164.738
371.603
356.886
250.204
171.864
153.402
147.66
149.815
155.352
156.775
152.421
147.562
145.297
145.111
145.528
145.355
143.816
140.489
135.823
130.812
9.59767
24.9723
41.225
53.0438
64.7392
74.0791
81.2262
87.5176
99.1978
129.376
224.824
1093
968.451
758.951
199.564
173.302
160.125
155.276
158.219
163.007
161.004
154.427
149.316
147.016
146.191
145.211
142.957
138.874
133.362
127.647
9.89342
25.6878
41.8005
52.8213
63.4667
72.0459
78.8529
85.2533
98.1006
137.937
233.076
891.213
953.76
1287.87
217.909
180.555
161.176
151.008
150.952
159.565
164.978
161.203
154.876
150.694
148.43
146.334
143.053
137.922
131.319
124.685
9.9878
26.2094
42.3415
52.3126
61.6919
69.3297
75.7365
82.1543
94.3507
124.113
181.474
554.461
814.751
784.823
184.163
160.648
146.498
137.785
138.031
149.287
162.447
165.342
160.505
155.37
151.787
148.403
143.86
137.455
129.588
121.875
9.97591
26.656
42.9102
51.6913
59.6724
66.4431
72.786
79.7222
90.6153
109.918
139.216
166.872
171.586
173.728
149.917
143.267
135.629
128.718
128.743
139.835
156.711
166.24
164.823
159.992
155.495
150.831
144.919
137.143
128.006
119.157
9.95832
27.1477
43.5715
51.1939
57.7686
64.1019
71.1046
78.9242
88.9024
102.639
115.419
122.782
132.529
145.73
151.14
146.505
138.643
131.113
128.475
136.44
152.623
165.396
167.383
163.493
158.466
152.71
145.518
136.528
126.438
116.607
10.0219
27.7616
44.4173
51.369
56.2027
62.2165
70.2522
79.8264
90.5012
102.327
114.113
128.133
149.707
169.053
166.068
152.173
142.548
135.864
132.828
138.419
152.294
164.862
168.39
165.082
159.58
152.926
144.824
135.258
124.911
114.66
10.1817
28.4908
45.3912
52.4155
55.3851
60.3186
68.8975
81.0178
95.0256
109.18
125.619
151.834
185.886
189.235
159.789
143.453
141.83
141.045
140.834
145.91
156.704
165.575
167.576
163.883
157.716
150.187
141.685
132.518
123.196
114.106
10.4157
29.2359
46.2684
53.4008
55.0991
58.2554
66.2105
82.6614
104.714
127.157
155.88
195.615
200.958
157.313
136.897
136.559
142.33
147.049
149.71
154.107
160.359
164.086
162.82
157.618
150.38
142.179
133.714
125.562
118.07
112.508
10.6904
29.9354
46.973
54.2
55.5745
57.1048
65.0587
89.1566
121.3
150.338
184.856
177.531
143.643
123.888
120.228
124.738
131.978
139.261
145.084
150.13
153.052
152.303
147.935
141.238
133.497
125.514
117.981
111.403
106.102
103.085
10.9529
30.504
47.4475
54.6919
56.2107
57.2025
67.1656
99.5556
131.935
139.647
135.155
121.075
109.845
104.791
104.103
107.484
112.805
119.043
125.001
128.935
129.477
126.712
121.779
115.786
109.59
103.709
98.5931
94.4589
91.4676
89.882
11.093
30.7481
47.5102
54.7095
56.4231
57.66
70.2767
108.309
118.876
111.891
105.997
101.016
96.5458
92.8191
91.4561
93.1047
96.0369
99.648
103.151
105.009
104.454
101.948
98.4147
94.5575
90.8617
87.6144
84.9806
83.0466
81.7857
81.1377
2.27326
6.41663
16.9961
29.634
38.1892
46.1174
52.7133
58.3392
62.9957
66.7831
70.1543
73.889
78.9222
86.038
95.6015
107.256
118.584
128.254
135.897
141.771
146.316
149.9
152.719
154.802
156.072
156.38
155.603
153.452
150.349
145.153
2.66881
8.22046
20.4007
33.6148
42.0922
49.9544
56.5567
62.0932
66.5873
70.1387
73.0853
76.2191
80.6058
87.2018
96.408
107.706
118.7
127.981
135.308
140.978
145.389
148.887
151.664
153.749
155.054
155.419
154.702
152.656
149.673
144.885
3.3769
10.8714
25.1734
39.138
47.8802
55.756
62.2597
67.5303
71.6771
74.8564
77.3742
79.7723
83.0921
88.6352
97.0251
107.427
117.577
126.116
132.913
138.293
142.593
146.085
148.915
151.093
152.519
153.02
152.439
150.555
147.751
143.406
4.49887
14.3909
30.8628
45.028
54.3017
62.3394
68.7094
73.6328
77.3708
80.2261
82.5621
84.6376
87.0497
91.2587
98.2875
107.391
116.283
123.725
129.701
134.61
138.741
142.256
145.205
147.541
149.143
149.827
149.419
147.734
145.125
141.178
6.15258
18.6023
36.6312
50.2032
60.3459
68.6367
74.861
79.4424
82.8456
85.6246
88.2453
90.4966
92.4387
95.3166
100.503
107.886
115.405
121.573
126.546
130.788
134.606
138.069
141.107
143.587
145.348
146.194
145.949
144.439
141.997
138.383
8.15901
22.9161
41.7389
54.4172
65.4425
73.8918
79.9433
84.2388
87.4976
90.6762
94.3948
97.5567
99.5296
101.405
104.557
109.883
116.063
121.177
124.844
128.053
131.188
134.314
137.241
139.726
141.545
142.456
142.302
140.888
138.54
135.164
10.2371
26.8343
45.8873
58.185
69.3366
77.6778
83.4985
87.5781
90.9811
95.3279
101.889
108.046
111.576
112.934
113.424
115.684
119.808
124.22
127.043
128.359
129.822
131.886
134.223
136.409
138.084
138.928
138.736
137.303
134.938
131.678
12.1109
30.011
48.9383
61.0857
71.8198
79.7581
85.2841
89.2573
93.174
99.831
114.103
131.154
142.081
141.824
133.669
128.996
128.491
130.958
133.27
133.228
132.083
131.732
132.63
134.032
135.279
135.891
135.522
133.91
131.375
128.081
13.6159
32.4178
50.9779
62.8118
72.8549
80.1968
85.3558
89.264
94.0748
104.545
127.417
189.253
223.273
219.889
168.285
150.154
141.903
140.106
141.34
140.871
137.709
134.571
133.089
133.083
133.616
133.806
133.061
131.048
128.057
124.515
14.7235
34.2567
52.4003
63.621
72.7025
79.2538
83.9655
87.8036
93.4937
108.457
146.216
256.44
301.927
314.869
197.12
169.134
153.492
146.063
145.283
146.487
144.039
139.187
135.431
133.75
133.249
132.735
131.379
128.746
125.119
121.075
15.5411
35.7726
53.63
63.9879
71.8448
77.3728
81.4797
85.1871
91.5466
108.54
147.039
231.413
289.443
321.126
197.962
170.103
153.082
143.183
141.055
145.54
147.817
144.065
138.948
135.715
134.026
132.612
130.431
126.963
122.513
117.823
16.2209
37.2172
54.9461
64.2676
70.6922
74.9732
78.3547
81.9169
88.4025
103.328
133.424
192.812
229.536
237.531
164.374
150.027
139.427
132.51
132.205
139.751
147.878
147.822
142.872
138.543
135.735
133.3
130.091
125.591
120.156
114.696
16.8803
38.7683
56.4383
64.6433
69.5574
72.5461
75.3363
79.0122
85.159
96.4304
111.572
123.354
131.89
139.344
140.612
136.695
130.864
125.937
126.456
134.833
146.234
150.179
146.521
141.743
138.009
134.484
130.126
124.46
117.953
111.652
17.6369
40.4602
58.0523
65.226
68.7142
70.6309
73.2352
77.1994
83.235
92.2671
102.761
112.376
124.636
138.283
143.405
139.798
133.82
128.54
127.359
134.099
145.479
151.614
149.449
144.705
140.246
135.651
130.113
123.283
115.829
108.756
18.5127
42.1904
59.6868
66.0455
68.2012
69.4385
72.1579
77.065
84.0322
92.7974
103.429
118.156
139.695
157.294
155.112
144.95
138.677
134.036
132.157
137.107
146.735
152.822
151.357
146.711
141.627
136.032
129.492
121.766
113.784
106.3
19.4607
43.8957
61.2239
67.0383
68.2602
68.882
71.8286
78.7364
88.9781
100.687
115.907
140.496
170.676
173.955
151.223
139.523
138.985
139.111
139.173
142.946
149.766
153.446
151.456
146.554
140.769
134.267
127.082
119.364
111.749
104.771
20.41
45.4605
62.5386
68.0237
68.6595
68.7118
71.8408
82.6819
100.885
120.583
146.243
179.972
186.752
149.117
131.27
130.398
134.669
139.118
141.993
146.049
150.107
150.741
147.287
141.647
135.128
128.152
120.959
114.054
107.86
103.301
21.2893
46.7941
63.5815
68.851
69.1491
68.871
72.7471
90.8235
120.772
147.602
176.817
170.246
137.975
117.039
113.554
116.579
122.453
129.135
134.737
139.168
140.93
139.068
134.4
128.381
121.923
115.495
109.446
104.239
100.21
98.1908
22
47.7945
64.3066
69.4481
69.6697
69.3852
75.1612
101.837
134.706
140.862
133.374
117.452
102.144
97.4641
98.2424
101.48
106.183
111.689
116.904
120.096
120.225
117.566
113.293
108.428
103.587
99.1237
95.3124
92.3725
90.4883
90.0127
22.351
48.2022
64.5105
69.63
69.9119
69.8375
78.0592
111.013
122.314
108.393
98.3985
91.6562
86.8509
86.0703
87.494
89.9348
92.9177
96.2543
99.2368
100.636
99.989
97.7918
94.8726
91.8274
89.0131
86.6345
84.8208
83.6513
83.1645
83.4015
2.84394
8.82031
21.4885
34.9353
43.3871
50.6469
56.866
62.1779
66.5617
70.1069
73.2529
76.5098
81.0102
88.2516
98.8521
110.877
121.742
130.417
136.822
141.402
144.71
147.183
149.078
150.484
151.387
151.707
151.395
150.22
148.464
144.707
3.49347
11.1171
25.4242
39.5259
48.0106
55.012
60.9942
66.0749
70.2302
73.5158
76.323
79.3281
83.4985
90.2036
100.147
111.63
121.96
130.136
136.181
140.54
143.712
146.094
147.93
149.312
150.226
150.58
150.298
149.165
147.433
144.027
4.5972
14.5612
31.1599
46.0671
54.6117
61.4546
67.0901
71.7383
75.4471
78.3107
80.6829
83.2052
86.8109
92.7702
101.666
111.919
121.106
128.323
133.704
137.69
140.715
143.083
144.969
146.432
147.44
147.898
147.711
146.681
145.04
141.983
6.33286
19.1751
37.9787
53.0162
61.6354
68.5509
73.8924
78.0693
81.2803
83.7577
85.9141
88.193
91.2612
96.2986
103.763
112.3
119.937
125.899
130.365
133.783
136.563
138.919
140.917
142.536
143.707
144.318
144.266
143.373
141.859
139.121
8.77603
24.5083
44.7042
59.0378
68.1414
75.1762
80.2831
84.0362
86.8254
89.0986
91.3455
93.6924
96.3974
100.393
106.085
112.636
118.626
123.36
126.905
129.669
132.1
134.367
136.441
138.207
139.534
140.29
140.362
139.585
138.179
135.708
11.6186
29.8269
50.5384
63.7322
73.5049
80.5911
85.4677
88.859
91.3697
93.7239
96.4641
99.2069
101.787
104.911
108.926
113.534
117.989
121.656
124.37
126.404
128.302
130.28
132.253
134.025
135.409
136.229
136.355
135.632
134.264
131.969
14.5117
34.6035
55.2706
67.5972
77.5224
84.419
88.9922
92.0554
94.4517
97.2559
101.21
105.276
108.826
111.963
114.666
117.463
120.328
122.942
124.712
125.507
126.304
127.495
128.97
130.467
131.715
132.468
132.537
131.772
130.348
128.113
17.1412
38.5545
58.8937
70.7342
80.1441
86.5438
90.6966
93.4342
95.861
99.5763
106.415
114.541
122.217
127.305
127.978
127.356
127.125
127.869
128.649
128.328
127.347
126.751
127.054
127.855
128.711
129.24
129.147
128.214
126.615
124.307
19.3849
41.7552
61.5362
72.8374
81.3825
87.0482
90.6659
93.055
95.6006
100.732
113.472
130.507
146.602
156.364
151.273
143.849
137.894
135.082
134.537
133.553
131.07
128.413
126.85
126.471
126.693
126.851
126.454
125.188
123.217
120.658
21.257
44.4659
63.6175
74.1253
81.5328
86.2247
89.1873
91.2073
93.8582
100.807
117.742
141.119
164.804
178.21
168.686
156.257
145.781
139.432
137.725
137.747
135.454
131.388
128.016
126.292
125.668
125.267
124.387
122.632
120.167
117.195
22.912
46.9744
65.5619
75.0739
81.0682
84.5104
86.6459
88.3013
91.1482
99.1399
115.827
138.862
161.274
172.477
164.674
153.56
143.536
136.694
134.964
137.709
138.444
134.617
129.965
126.998
125.471
124.375
122.851
120.449
117.358
113.886
24.5373
49.5293
67.6254
76.0093
80.3936
82.3549
83.521
84.9199
87.981
95.5542
109.489
126.443
140.194
147.81
145.79
140.108
134.043
129.631
129.631
134.933
139.538
137.438
132.316
128.359
125.959
124.071
121.754
118.539
114.689
110.63
26.2766
52.2632
69.8843
77.1037
79.8423
80.2496
80.5541
81.8026
84.8944
91.4128
101.544
111.828
121.923
131.367
135.206
133.62
129.933
126.929
127.347
133.15
139.881
139.695
134.702
130.112
126.937
124.184
120.939
116.776
112.077
107.377
28.1998
55.1082
72.1812
78.3095
79.5526
78.6694
78.3228
79.5257
82.8288
88.7735
97.1694
107.462
120.975
134.906
140.119
137.829
133.789
130.24
129.255
133.732
140.444
141.348
136.812
131.962
128.099
124.428
120.161
114.988
109.474
104.176
30.2321
57.8595
74.3333
79.4805
79.526
77.7887
77.1081
78.838
83.2065
89.8838
99.478
114.118
135.071
151.491
149.478
142.034
137.818
134.362
132.537
135.893
141.41
142.301
138.273
133.371
128.876
124.282
119.049
112.967
106.887
101.23
32.2116
60.3804
76.2065
80.5179
79.7431
77.5601
76.9723
80.2846
87.8243
97.7624
111.826
134.421
161.182
163.866
143.957
134.575
134.003
134.46
134.772
138.104
141.922
141.863
137.998
133.013
127.927
122.532
116.647
110.372
104.333
98.893
34.0519
62.5869
77.7471
81.3864
80.2464
77.9186
77.8046
84.569
99.573
116.809
139.288
167.464
173.256
140.845
123.661
121.041
124.217
128.831
132.67
136.759
139.093
137.808
133.697
128.538
123.066
117.367
111.514
105.837
100.788
96.9941
35.6694
64.4088
78.944
82.0736
80.7829
78.622
79.5626
92.8186
119.37
142.677
166.049
160.6
131.948
110.499
105.663
107.431
112.303
118.337
123.937
127.851
128.812
126.605
122.438
117.536
112.461
107.436
102.672
98.5037
95.2468
93.5251
36.9272
65.7444
79.7696
82.5573
81.2565
79.403
82.1667
103.886
134.661
139.237
130.813
114.816
97.7952
92.2529
92.6312
95.2961
99.3083
104.042
108.489
111.041
110.988
108.768
105.435
101.772
98.1745
94.8536
91.9891
89.7818
88.4014
88.1618
37.5387
66.2938
80.0043
82.6281
81.4073
79.8526
84.831
113.126
125.571
107.403
95.5146
88.0137
82.6224
82.4364
84.2059
86.5777
89.2983
92.1508
94.5455
95.5598
94.9589
93.2229
91.0159
88.7771
86.7433
85.0496
83.7943
83.0601
82.8919
83.3505
3.66608
11.4553
25.7836
39.7465
48.3341
55.333
61.381
66.5491
70.7904
74.2847
77.2542
80.4384
85.4271
93.6715
105.166
117.043
127.194
134.91
140.279
143.786
145.98
147.322
148.122
148.548
148.665
148.468
147.948
146.942
145.671
142.886
4.58199
14.2414
30.2873
45.0854
53.9634
60.2198
65.7841
70.6007
74.5759
77.7921
80.6959
83.9256
88.7087
96.3776
107.111
118.188
127.55
134.643
139.627
142.939
145.035
146.313
147.058
147.436
147.521
147.314
146.8
145.824
144.559
141.991
6.1539
18.6015
37.1496
52.7069
61.3365
67.2305
72.2313
76.4738
79.9484
82.7678
85.3732
88.5031
93.0696
100.114
109.565
119.069
126.933
132.847
137.075
139.997
141.954
143.246
144.072
144.544
144.712
144.575
144.116
143.203
141.988
139.668
8.65896
24.4186
45.1208
60.6129
68.8093