/*--------------------------------*- C++ -*----------------------------------*\
| =========                 |                                                 |
| \\      /  F ield         | OpenFOAM: The Open Source CFD Toolbox           |
|  \\    /   O peration     | Version:  2512                                  |
|   \\  /    A nd           | Website:  www.openfoam.com                      |
|    \\/     M anipulation  |                                                 |
\*---------------------------------------------------------------------------*/
FoamFile
{
    version     2.0;
    format      ascii;
    arch        "LSB;label=32;scalar=64";
    class       volScalarField;
    location    "80";
    object      p;
}
// * * * * * * * * * * * * * * * * * * * * * * * * * * * * * * * * * * * * * //

dimensions      [0 2 -2 0 0 0 0];

internalField   nonuniform List<scalar> 
90398
(
-104.077
-106.438
-112.751
-122.402
-134.92
-154.712
-191.034
-256.867
-356.773
-479.046
-605.911
-714.47
-775.168
-768.249
-703.004
-629.115
-573.462
-505.45
-410.328
-315.877
-243.051
-190.904
-148.817
-107.292
-62.5283
-19.328
17.6396
32.3189
38.4037
-6.39354
-104.545
-106.72
-112.499
-121.12
-132.174
-150.148
-185.629
-252.494
-353.719
-477.214
-608.883
-725.902
-795.514
-799.373
-745.662
-685.265
-648.3
-596.607
-505.377
-403.134
-318.343
-254.75
-203.271
-154.302
-103.184
-53.8262
-9.77506
13.204
28.9408
-7.57985
-105.543
-107.405
-112.233
-118.978
-127.348
-142.591
-177.295
-245.263
-348.087
-473.588
-614.398
-747.47
-831.703
-849.98
-807.22
-757.542
-746.242
-731.207
-661.889
-558.282
-458.946
-377.25
-308.62
-244.587
-179.946
-117.608
-59.6122
-21.6016
11.2478
-10.8049
-107.214
-108.708
-112.317
-116.701
-121.589
-133.339
-166.63
-234.574
-337.826
-464.332
-620.994
-780.537
-883.489
-914.78
-878.958
-831.8
-836.698
-866.587
-840.729
-752.229
-644.361
-543.604
-453.511
-368.897
-284.99
-204.11
-127.11
-69.1098
-14.5188
-15.7157
-109.732
-110.88
-113.223
-115.264
-116.446
-124.296
-154.913
-220.764
-320.245
-440.693
-625.394
-832.557
-961.973
-999.325
-958.622
-905.866
-907.877
-966.971
-997.16
-945.912
-844.004
-730.125
-619.266
-512.139
-405.885
-303.194
-204.501
-124.129
-46.3536
-22.541
-113.26
-114.171
-115.531
-115.86
-113.989
-118.532
-145.045
-204.906
-290.701
-384.027
-620.311
-914.905
-1075.69
-1104.79
-1035.48
-973.025
-962.122
-1018.1
-1091.23
-1096.76
-1022.91
-909.115
-783.858
-656.621
-528.374
-403.43
-282.988
-180.608
-81.1751
-30.8688
-117.891
-118.768
-119.852
-119.71
-116.554
-119.467
-140.119
-185.025
-230.738
-280.793
-636.256
-1075.32
-1249.94
-1238.2
-1090.88
-1015.4
-1002.49
-1034.86
-1111.66
-1167.99
-1144.59
-1052.5
-925.053
-784.289
-637.856
-492.996
-353.436
-232.005
-114.901
-39.5695
-123.578
-124.685
-126.531
-127.673
-125.991
-129.571
-143.687
-156.563
-105.538
-137.496
-519.545
-1094.06
-1277.69
-1315.42
-1076.54
-1006.58
-1022.99
-1050.07
-1096.72
-1161.72
-1185.17
-1131.69
-1019.14
-875.539
-717.761
-558.994
-406.079
-271.221
-143.127
-47.3868
-130.107
-131.691
-135.339
-139.537
-142.185
-149.224
-159.279
-140.155
-53.9431
103.372
-500.233
-1189.79
-1273.44
-1302.15
-991.271
-938.153
-1005.89
-1071.72
-1101.66
-1131.12
-1161.89
-1142.55
-1055.4
-919.749
-759.605
-594.877
-435.43
-293.272
-161.726
-53.0369
-137.102
-139.349
-145.548
-154.026
-162.757
-175.103
-184.681
-148.687
19.8956
197.602
-330.9
-1109.32
-1300.51
-1311.45
-956.274
-919.507
-1016.74
-1111.51
-1144.15
-1132.21
-1124.82
-1111.28
-1044.42
-921.118
-765.519
-601.409
-441.583
-297.348
-168.073
-55.249
-144.099
-147.068
-156.106
-169.193
-183.533
-200.985
-214.863
-194.89
-55.9816
18.0813
-986.37
-1276.36
-1349.85
-991.635
-979.784
-1100.26
-1202.71
-1223.9
-1175.83
-1113.08
-1070.69
-1005.83
-889.654
-739.76
-580.552
-425.968
-285.017
-161.972
-52.7681
-150.632
-154.249
-165.887
-183.039
-200.326
-219.295
-235.571
-236.827
-175.352
-218.581
-614.439
-862.132
-1131.48
-1214.94
-1038.04
-1093.33
-1263.04
-1386.17
-1385.99
-1286.21
-1152.58
-1050.16
-961.312
-839.154
-690.912
-537.8
-392.149
-259.37
-145.478
-44.8044
-156.327
-160.402
-173.949
-193.708
-210.569
-223.854
-233.599
-236.195
-233.702
-285.621
-686.123
-1123.05
-1184.43
-1066.2
-1045.59
-1210.92
-1465.64
-1635.62
-1619.5
-1452.94
-1239.57
-1064.67
-929.625
-785.991
-631.914
-482.813
-346.563
-224.494
-121.208
-30.937
-160.948
-165.265
-179.718
-200.183
-213.957
-216.668
-211.82
-211.347
-234.915
-319.565
-568.681
-802.192
-802.119
-816.263
-1005.91
-1307.23
-1657.38
-1890.07
-1872.22
-1634.59
-1331.79
-1098.62
-915.765
-741.429
-575.686
-427.346
-298.199
-185.472
-91.1188
-10.77
-164.428
-168.751
-183.069
-202.282
-211.266
-202.691
-181.384
-169.664
-193.484
-255.377
-378.674
-498.953
-548.268
-664.081
-938.989
-1341.07
-1765.2
-2050.88
-2037.32
-1757.59
-1382.79
-1118.19
-906.468
-705.829
-529.17
-380.588
-255.804
-149.305
-60.2422
13.9095
-166.834
-170.936
-184.367
-200.846
-203.307
-183.792
-149.95
-131.895
-164.849
-230.425
-298.033
-356.985
-414.903
-566.963
-863.883
-1299.24
-1757.37
-2061.18
-2045.53
-1757.65
-1374.71
-1110.87
-887.299
-674.462
-493.78
-345.856
-224.226
-122.263
-28.6042
44.0499
-168.33
-172.069
-184.174
-197.023
-191.856
-161.638
-118.865
-102.704
-154.99
-234.238
-284.863
-320.254
-394.193
-542.383
-783.202
-1198.23
-1656.01
-1955.18
-1959.48
-1674.67
-1335.22
-1084.71
-857.228
-645.672
-467.888
-322.088
-204.645
-106.537
-0.85935
73.3397
-169.15
-172.481
-183.142
-192.202
-179.524
-139.393
-88.016
-73.4344
-139.184
-229.507
-283.665
-337.168
-442.679
-543.358
-694.111
-1086.27
-1515.05
-1781.09
-1788.15
-1559.3
-1280.24
-1042.91
-822.17
-621.584
-450.965
-309.276
-197.445
-102.689
8.81759
81.3098
-169.522
-172.501
-181.966
-187.905
-169.118
-120.545
-59.8611
-43.6523
-112.914
-212.74
-282.874
-369.637
-476.397
-528.407
-623.545
-998.186
-1403.94
-1644.17
-1651.88
-1470.39
-1231.01
-1004.57
-794.031
-605.325
-442.565
-306.186
-199.228
-106.322
6.58889
83.4621
-169.676
-172.417
-181.228
-185.479
-163.231
-109.245
-43.0771
-25.1758
-93.8505
-199.967
-281.51
-382.209
-475.494
-498.397
-576.488
-944.347
-1339.5
-1565.74
-1574.2
-1417.23
-1198.21
-979.341
-776.9
-597.66
-442.261
-310.787
-206.326
-114.013
-0.721802
80.8767
-102.819
-105.48
-113.02
-125.408
-142.647
-169.788
-216.093
-289.465
-390.663
-509.095
-630.184
-731.574
-779.807
-757.995
-693.195
-660.366
-685.17
-694.803
-646.76
-565.423
-479.742
-399.328
-322.486
-246.369
-171.476
-105.484
-51.8656
-26.2557
-2.15277
-39.0344
-103.291
-105.81
-112.993
-124.755
-141.307
-168.174
-214.651
-288.773
-391.462
-510.842
-635.8
-746.111
-807.104
-799.476
-741.091
-704.82
-730.799
-755.57
-720.458
-641.835
-552.158
-465.087
-381.029
-297.714
-215.496
-142.056
-80.4258
-46.2736
-14.5549
-42.7241
-104.304
-106.608
-113.221
-123.858
-138.934
-165.099
-212.706
-289.083
-393.932
-514.399
-646.185
-770.998
-849.465
-860.754
-809.991
-767.368
-796.325
-847.172
-839.655
-771.597
-678.301
-580.767
-483.899
-387.184
-291.83
-204.881
-128.87
-80.1226
-33.4767
-48.5932
-105.998
-108.1
-114.019
-123.298
-136.777
-162.599
-211.379
-289.337
-394.264
-513.51
-656.136
-803.425
-902.964
-934.558
-893.376
-844.03
-870.522
-945.836
-974.814
-927.974
-836.217
-728.587
-616.605
-503.348
-391.13
-286.514
-191.993
-123.969
-57.9599
-54.1588
-108.556
-110.532
-115.765
-123.955
-136.296
-162.386
-210.857
-287.357
-387.81
-497.916
-657.411
-845.716
-974.894
-1023.17
-983.821
-925.431
-937.557
-1026.02
-1093.48
-1079.96
-1000.29
-887.927
-762.546
-632.614
-501.714
-377.392
-262.498
-173.116
-86.4589
-59.8252
-112.154
-114.119
-119.022
-126.901
-139.205
-165.817
-211.843
-282.19
-370.066
-448.073
-636.824
-900.161
-1070.57
-1127.35
-1066.78
-999.333
-990.206
-1069.06
-1168.42
-1197.02
-1142.68
-1035.47
-903.099
-759.422
-610.991
-467.355
-332.553
-222.19
-116.161
-65.3174
-116.887
-118.976
-124.245
-133.027
-146.854
-174.181
-215.396
-272.729
-326.506
-350.902
-637.885
-1037.53
-1239.23
-1266.58
-1125.12
-1045.75
-1025.06
-1072.71
-1181.05
-1255.98
-1240.41
-1151.02
-1020.67
-868.873
-706.806
-546.796
-394.733
-265.79
-143.658
-69.8444
-122.689
-125.072
-131.606
-142.649
-159.743
-187.873
-222.942
-255.601
-223.806
-175.425
-541.1
-1106.67
-1313.96
-1366.67
-1104.73
-1032.11
-1036.61
-1062.83
-1141.49
-1242.86
-1277.21
-1221.21
-1103.17
-950.298
-779.934
-607.694
-442.661
-299.319
-165.746
-72.6033
-129.317
-132.099
-140.759
-155.225
-176.45
-206.047
-236.953
-245.366
-193.843
-29.4489
-646.496
-1284.19
-1393.24
-1420.74
-982.663
-943.596
-1010.81
-1067.16
-1106.82
-1178.39
-1243.54
-1231.56
-1137.93
-992.257
-819.746
-641.288
-469.834
-318.708
-180.114
-72.9798
-136.372
-139.636
-150.776
-168.827
-193.962
-225.351
-253.674
-244.38
-132.91
19.3466
-439.203
-1128.25
-1335.95
-1320.43
-940.925
-919.906
-1023.26
-1113.01
-1134.81
-1135.08
-1168.91
-1181.31
-1117.1
-986.069
-818.42
-641.321
-471.211
-320.186
-184.721
-70.4753
-143.377
-147.103
-160.893
-182.202
-209.129
-240.891
-268.94
-265.138
-160.723
-78.7314
-1265.23
-989.291
-985.725
-1115.91
-1215.04
-1221.68
-1159.05
-1114.12
-1104.97
-1054.55
-937.216
-778.762
-609.154
-446.96
-302.692
-177.715
-64.3386
-149.877
-153.996
-169.967
-194.169
-220.688
-248.896
-273.695
-284.705
-226.147
-278.175
-571.494
-986.395
-1226.79
-1148.64
-1037.59
-1100.81
-1283.66
-1404.58
-1390.59
-1269.03
-1129.09
-1049.49
-979.291
-862.973
-711.722
-552.169
-401.88
-268.818
-158.732
-53.5269
-155.511
-159.901
-177.35
-202.98
-225.661
-244.453
-259.592
-270.492
-255.764
-317.727
-653.777
-1159.7
-1114.24
-1012.23
-1036.36
-1218.87
-1482.54
-1646.75
-1621.61
-1441.02
-1212.27
-1040.69
-919.373
-784.842
-632.976
-481.892
-344.192
-223.982
-128.997
-36.4022
-160.074
-164.601
-182.397
-207.696
-225.015
-229.886
-226.909
-230.04
-250.099
-326.327
-556.275
-763.45
-749.263
-785.627
-999.709
-1323.23
-1674.76
-1890.61
-1863.34
-1621.24
-1312.94
-1068.92
-886.061
-718.685
-558.707
-412.29
-284.668
-175.184
-90.8665
-10.74
-163.508
-167.953
-185.275
-208.579
-219.29
-209.15
-184.365
-170.252
-193.71
-255.111
-369.639
-469.415
-501.039
-625.898
-937.204
-1371.8
-1792.08
-2048.75
-2025.4
-1739.87
-1373.9
-1093.17
-866.991
-668.595
-498.915
-355.216
-233.752
-131.436
-52.3697
21.9824
-165.878
-170.06
-186.35
-206.249
-208.941
-185.474
-144.591
-121.089
-154.094
-220.093
-279.438
-319.73
-357.743
-522.014
-878.986
-1360.12
-1800.85
-2062.47
-2044.49
-1746.11
-1368.73
-1087.22
-844.315
-631.263
-457.041
-314.707
-197.667
-102.269
-18.9426
56.3398
-167.355
-171.155
-186.108
-202.062
-196.155
-160.608
-109.244
-90.1724
-148.923
-232.323
-274.513
-287.175
-331.57
-504.498
-833.548
-1299.23
-1717.76
-1966.06
-1951.8
-1665.1
-1322.54
-1052.16
-810.044
-600.421
-429.986
-290.931
-179.304
-89.3175
9.34974
87.5955
-168.161
-171.547
-185.142
-197.216
-183.336
-136.917
-75.7673
-62.3654
-140.21
-238.546
-284.863
-313.573
-391.919
-525.716
-788.919
-1211.31
-1582.54
-1799.34
-1782.77
-1545.5
-1254.21
-1000.16
-772.84
-577.716
-416.718
-283.975
-179.115
-92.6945
14.3233
93.7187
-168.542
-171.563
-184.064
-192.938
-172.701
-116.946
-47.9064
-34.9127
-116.548
-221.871
-284.358
-352.144
-452.393
-538.702
-743.352
-1128.93
-1467.63
-1659.7
-1642.59
-1446.7
-1195.2
-959.894
-749.863
-570.005
-418.84
-292.682
-192.52
-107.055
1.05516
82.7375
-168.695
-171.448
-183.387
-190.478
-166.551
-104.771
-33.9026
-15.4211
-93.5679
-199.573
-277.651
-368.793
-472.262
-530.259
-708.407
-1083.42
-1405.67
-1582.67
-1567.82
-1396.48
-1169.47
-947.747
-748.043
-575.881
-428.829
-304.448
-204.601
-118.892
-11.8015
75.2231
-99.9529
-102.916
-111.671
-125.817
-146.621
-183.637
-245.712
-331.575
-435.218
-544.451
-649.189
-733.048
-769.787
-747.35
-708.134
-736.592
-822.096
-874.025
-853.496
-782.284
-689.109
-588.711
-485.884
-383.169
-284.145
-198.147
-125.589
-87.1003
-36.8531
-86.7422
-100.412
-103.249
-111.733
-125.619
-146.695
-185.136
-248.438
-333.647
-437.38
-547.657
-657.099
-751.183
-801.134
-791.677
-750.438
-758.956
-837.214
-905
-903.027
-842.329
-752.163
-649.985
-542.74
-434.072
-327.783
-233.803
-153.709
-106.883
-51.4014
-89.3616
-101.39
-104.057
-112.155
-125.608
-147.049
-188.185
-253.66
-340.094
-444.51
-554.632
-669.358
-778.014
-846.776
-855.912
-814.632
-801.358
-870.012
-958.144
-984.403
-941.601
-856.981
-752.055
-637.464
-518.836
-400.626
-293.635
-200.11
-139.613
-70.8516
-95.097
-103.045
-105.575
-113.235
-126.271
-148.746
-193.888
-260.99
-348.606
-451.706
-558.761
-679.746
-809.297
-902.076
-933.963
-900.371
-871.135
-922.919
-1022.33
-1078.13
-1058.84
-983.683
-877.396
-754.904
-624.561
-492.309
-369.903
-259.285
-180.634
-94.6462
-99.3783
-105.589
-108.036
-115.387
-128.484
-153.519
-203.089
-270.627
-356.372
-453.986
-551.645
-680.746
-846.736
-971.935
-1026
-995.705
-954.611
-983.046
-1079.4
-1159.8
-1169.44
-1110.89
-1007.93
-879.606
-738.078
-592.045
-453.116
-324.093
-225.277
-121.132
-102.275
-109.231
-111.655
-119.171
-133.353
-162.881
-215.688
-281.781
-361.313
-447.017
-519.26
-658.038
-892.022
-1064.52
-1136.49
-1087.4
-1035.94
-1040.51
-1116.63
-1209.65
-1249.32
-1215.02
-1123.38
-995.363
-846.537
-688.542
-533.664
-387.058
-268.442
-147.428
-103.533
-114.078
-116.529
-124.941
-141.724
-177.033
-231.518
-293.694
-362.28
-422.649
-450.85
-635.213
-1001.91
-1229.73
-1285.52
-1160.29
-1092.46
-1082.97
-1128.35
-1217.63
-1283.16
-1278.48
-1206.5
-1086.65
-936.735
-770.348
-602.625
-441.265
-305.269
-170.526
-102.688
-120.031
-122.667
-132.892
-153.556
-194.485
-249.703
-305.752
-355.493
-360.749
-349.085
-529.172
-1043.29
-1330.52
-1422.13
-1159.18
-1088.67
-1095.57
-1123.29
-1189.86
-1268.45
-1294.46
-1248.86
-1144.29
-998.791
-828.927
-652.587
-480.72
-331.489
-187.657
-99.3588
-126.809
-129.697
-142.563
-167.993
-213.163
-268.266
-318.477
-349
-344.136
-195.467
-450.742
-1260.05
-1521.71
-1574.11
-1048.28
-1001.62
-1063.11
-1118.63
-1160.5
-1220.67
-1265.21
-1247.79
-1162.53
-1025.97
-856.984
-676.887
-500.12
-343.553
-196.692
-93.2651
-133.969
-137.218
-152.88
-182.603
-230.018
-283.908
-328.663
-343.387
-299.078
-137.141
-430.301
-876.278
-1544.45
-1553.68
-969.367
-952.615
-1060.4
-1155.12
-1181.72
-1187.2
-1209.6
-1206.17
-1140.28
-1014.85
-850.514
-671.789
-496.205
-338.938
-196.068
-84.1521
-141.016
-144.612
-163.091
-196.006
-242.476
-292.734
-333.335
-344.623
-302.729
-158.464
-496.474
-1218.11
-997.087
-1001.83
-1139.09
-1249.32
-1264.67
-1205.59
-1164.12
-1145.39
-1086.91
-969.973
-812.03
-638.875
-469.75
-317.597
-184.947
-71.5889
-147.509
-151.506
-172.356
-207.115
-250.813
-293.7
-326.794
-342.827
-313.542
-332.581
-695.249
-853.684
-1089.84
-1012.98
-1031.47
-1107.49
-1294.15
-1422.15
-1418.69
-1298.62
-1165.88
-1093.56
-1019.46
-901.774
-748.591
-583.311
-424.518
-282.084
-163.851
-55.1029
-153.115
-157.378
-180.003
-215.204
-252.172
-282.507
-303.461
-316.149
-304.949
-426.49
-646.152
-1020.45
-991.03
-936.134
-1030.68
-1225.11
-1481.04
-1638.07
-1623.36
-1450.43
-1225.47
-1067.74
-954.069
-823.041
-669.747
-512.388
-366.044
-236.404
-133.951
-33.8376
-157.649
-162.052
-185.254
-219.188
-248.163
-262.589
-263.817
-267.169
-287.709
-368.398
-548.113
-717.63
-704.009
-764.13
-1004.73
-1334.75
-1662.86
-1852.89
-1828.79
-1605.72
-1307.41
-1069.35
-899.924
-743.49
-586.459
-436.248
-301.996
-185.1
-96.3767
-6.34438
-161.078
-165.391
-188.414
-220.103
-239.984
-236.787
-214.213
-199.868
-224.817
-291.48
-386.175
-459.373
-478.494
-621.893
-962.137
-1398.35
-1779.97
-1996.7
-1965.46
-1703.46
-1357.55
-1070.12
-852.499
-669.764
-508.488
-365.998
-241.909
-135.639
-57.329
26.6728
-163.469
-167.587
-189.839
-217.823
-227.82
-208.391
-166.019
-138.848
-171.659
-241.332
-289.558
-301.815
-328.645
-518.762
-919.99
-1399.75
-1795.2
-2020.48
-1986.21
-1704.99
-1345.17
-1046.61
-806.36
-609.689
-446.984
-310.124
-194.996
-100.452
-24.4839
60.3826
-164.982
-168.783
-189.952
-213.712
-213.352
-178.525
-121.424
-96.0065
-154.932
-241.096
-268.019
-249.379
-286.558
-499.123
-892.499
-1341.19
-1713.76
-1930.37
-1894.53
-1624.43
-1287.29
-1000.27
-761.121
-566.253
-408.38
-277.966
-171.057
-86.0835
2.00456
89.2217
-165.835
-169.269
-189.388
-209.057
-199.032
-149.665
-78.5555
-58.1226
-138.731
-240.821
-270.899
-271.497
-338.808
-535.081
-860.159
-1251.12
-1583.6
-1772.59
-1738.02
-1504.56
-1211.28
-948.912
-725.849
-543.008
-393.76
-270.024
-169.824
-89.2346
9.00377
97.7032
-166.24
-169.331
-188.664
-204.893
-187.143
-125.469
-44.209
-22.9238
-104.585
-213.69
-269.501
-312.78
-404.114
-561.846
-824.23
-1173.44
-1476.2
-1642.52
-1607.76
-1407.44
-1153.81
-917.069
-711.745
-540.56
-398.195
-278.681
-181.488
-101.624
-1.40502
89.0613
-166.434
-169.192
-188.251
-202.509
-180.228
-110.592
-28.1321
2.74911
-70.7226
-178.521
-254.908
-327.825
-431.332
-566.425
-801.423
-1132.92
-1417.91
-1572.01
-1539.74
-1360.68
-1130.96
-909.722
-714.406
-549.011
-409.185
-290.135
-192.343
-111.805
-12.6427
83.9382
-95.3075
-98.5783
-108.54
-124.025
-150.058
-199.659
-273.723
-365.973
-469.18
-569.092
-657.536
-723.135
-750.962
-744.293
-757.463
-835.411
-927.754
-970.752
-949.824
-882.008
-789.973
-686.014
-576.092
-464.749
-355.837
-259.668
-173.782
-123.386
-48.3131
-128.284
-95.6862
-98.8216
-108.529
-124.142
-151.328
-202.27
-275.911
-367.727
-470.724
-572.366
-667.012
-744.415
-784.595
-784.189
-783.971
-840.566
-932.759
-994.894
-994.118
-939.518
-853.41
-749.975
-637.038
-520.118
-404.167
-299.805
-205.608
-146.794
-66.9742
-129.352
-96.5185
-99.4766
-108.818
-124.518
-153.778
-208.124
-282.565
-375.406
-478.502
-580.592
-680.875
-773.377
-831.196
-842.898
-832.746
-867.185
-956.277
-1039.2
-1064.33
-1028.19
-950.839
-848.466
-731.211
-606.264
-479.84
-363.039
-255.42
-183.524
-89.9335
-134.29
-97.9889
-100.788
-109.693
-125.695
-158.323
-216.714
-292.877
-386.581
-488.401
-588.366
-693.774
-805.48
-886.464
-917.567
-907.717
-923.088
-1001.36
-1097
-1146.17
-1131.15
-1065.24
-965.517
-844.443
-710.972
-572.593
-440.817
-317.053
-227.591
-117.258
-137.324
-100.36
-103.011
-111.752
-128.903
-166.539
-228.559
-306.628
-398.899
-496.256
-589.832
-700.305
-842.172
-952.856
-1005.81
-996.715
-995.891
-1055.15
-1150.39
-1218.63
-1227
-1177.08
-1083.93
-961.674
-821.131
-670.781
-523.715
-383.157
-273.823
-146.403
-137.896
-103.907
-106.424
-115.757
-135.776
-179.602
-244.841
-323.098
-410.462
-498.524
-576.428
-689.453
-883.965
-1034.28
-1108.04
-1087.12
-1071.35
-1107.92
-1187.17
-1263.55
-1294.27
-1265.14
-1185.04
-1066.89
-922.936
-762.974
-602.124
-445.823
-316.993
-174.05
-135.792
-108.745
-111.16
-122.134
-147.081
-197.439
-265.641
-341.274
-420.081
-490.825
-542.605
-673.182
-961.966
-1159.83
-1232.99
-1163.08
-1126.58
-1146.96
-1201.83
-1273.2
-1320.97
-1315.02
-1253.05
-1145.26
-1003.48
-838.641
-667.666
-498.226
-352.464
-197.402
-130.929
-114.767
-117.184
-130.934
-162.308
-218.199
-288.969
-359.542
-424.85
-461.146
-482.88
-599.36
-944.317
-1226.4
-1348.34
-1174.12
-1127.15
-1153.78
-1196.26
-1253.09
-1307.94
-1322.06
-1281.86
-1189.92
-1054.99
-890.158
-713.128
-534.668
-376.136
-213.797
-123.195
-121.659
-124.116
-141.267
-179.286
-240.113
-312.167
-376.996
-425.581
-412.23
-426.218
-482.444
-931.313
-1292.59
-1415.91
-1089.5
-1053.29
-1115.32
-1178.45
-1223.37
-1267.17
-1292.48
-1273.15
-1198.88
-1074.23
-912.257
-732.91
-550.439
-384.721
-221.099
-112.464
-128.946
-131.646
-152.284
-195.423
-259.442
-331.187
-390.22
-426.452
-387.54
-346.501
-364.109
-632.323
-1047.06
-1107.88
-993.696
-995.071
-1100.01
-1195.19
-1228.81
-1234.57
-1243.1
-1233.04
-1173.62
-1058.83
-901.937
-724.176
-543.045
-376.385
-218.054
-98.6703
-136.083
-139.055
-163.2
-210.481
-274.554
-342.568
-395.243
-424.197
-388.208
-362.26
-566.18
-1014.36
-899.511
-852.64
-993.965
-1028.26
-1164.82
-1275.85
-1295.65
-1243.84
-1203.39
-1178.74
-1122.67
-1013.93
-861.809
-688.787
-513.692
-351.715
-204.543
-81.6762
-142.656
-146.03
-173.338
-222.606
-284.628
-345.268
-387.974
-413.84
-407.976
-472.419
-591.32
-809.44
-865.89
-817.761
-1014.15
-1118.24
-1301.62
-1427.3
-1428.36
-1313.73
-1193.1
-1126.55
-1057.96
-947.42
-798.339
-631.813
-466.166
-313.456
-181.701
-61.3402
-148.329
-151.99
-182.095
-231.628
-287.157
-335.152
-364.382
-382.522
-392.921
-468.429
-604.142
-905.749
-875.214
-863.93
-1021.31
-1229.2
-1471.34
-1616.64
-1605.13
-1438.04
-1228.61
-1091.6
-989.89
-867.755
-718.773
-559.306
-405.375
-265.457
-151.047
-37.2365
-152.949
-156.807
-188.757
-236.816
-283.608
-314.866
-324.408
-328.345
-348.279
-415.558
-539.977
-669.641
-672.225
-755.657
-1008.77
-1335.03
-1636.01
-1802.94
-1777.57
-1566.56
-1284.63
-1072.51
-924.678
-781.971
-630.795
-479.074
-338.25
-212.137
-113.925
-8.82251
-156.492
-160.367
-193.364
-239.61
-275.204
-286.036
-270.902
-256.285
-277.23
-337.523
-407.88
-461.631
-484.683
-641.798
-987.994
-1403.42
-1746.32
-1931.18
-1890.85
-1645.8
-1318.09
-1052.37
-861.53
-697.179
-543.595
-400.901
-272.868
-159.947
-75.7395
22.5723
-159.033
-162.895
-196.163
-239.003
-262.698
-252.58
-212.09
-180.512
-208.405
-276.39
-315.428
-315.913
-345.44
-553.704
-957.444
-1410.02
-1766.68
-1958.32
-1906.05
-1641.39
-1300.17
-1015.33
-799.612
-622.956
-469.761
-335.311
-219.028
-120.188
-44.3618
53.5949
-160.701
-164.421
-197.385
-235.825
-246.851
-216.362
-154.395
-116.758
-167.7
-255.98
-278.165
-251.45
-296.79
-534.169
-932.218
-1354.56
-1691.88
-1870.95
-1817.09
-1560.66
-1238.93
-963.288
-744.651
-567.838
-420.06
-294.146
-187.436
-100.772
-20.1736
80.049
-161.673
-165.157
-197.671
-231.533
-230.294
-180.395
-98.4042
-61.5726
-137.046
-246.963
-275.641
-270.028
-348.007
-571.217
-901.3
-1263.25
-1564.4
-1721.45
-1670.9
-1445
-1164.25
-913.989
-707.146
-538.438
-398.197
-279.078
-178.774
-97.9976
-8.36696
92.8514
-162.178
-165.372
-197.537
-227.484
-216.442
-150.424
-52.8862
-13.1297
-89.8513
-212.883
-279.219
-320.889
-417.64
-601.265
-868.432
-1186.39
-1457.46
-1595.8
-1548.65
-1354.06
-1111.87
-886.868
-694.026
-533.229
-397.908
-281.807
-183.387
-103.747
-10.2036
91.9301
-162.418
-165.182
-197.426
-225.05
-208.311
-131.722
-29.3805
19.422
-46.6163
-171.297
-262.067
-338.122
-448.31
-609.263
-849.083
-1146.43
-1400.36
-1529.8
-1487.28
-1312.37
-1092
-881.016
-695.922
-538.843
-404.973
-288.712
-189.333
-109.119
-15.6474
92.1992
-88.6879
-92.2232
-102.974
-121.012
-157.192
-218.503
-297.633
-392.618
-492.463
-583.255
-656.746
-707.12
-729.609
-747.006
-808.063
-907.446
-989.854
-1018.68
-993.998
-929.458
-842.923
-743.403
-636.448
-526.245
-415.077
-312.553
-214.374
-155.034
-54.5472
-164.925
-88.9232
-92.2905
-103.028
-121.964
-159.093
-219.421
-297.523
-392.421
-492.696
-586.035
-666.82
-729.141
-761.988
-777.121
-818.175
-901.647
-990.279
-1039.25
-1034.62
-984.787
-906.256
-809
-699.822
-584.252
-466.249
-356.161
-250.749
-182.618
-76.6537
-163.972
-89.4731
-92.6299
-103.185
-123.076
-162.751
-224.15
-303.244
-399.436
-500.331
-594.934
-681.913
-758.4
-806.178
-825.52
-851.686
-920.261
-1013.93
-1083.62
-1101.82
-1069.52
-1001.09
-907.154
-795.696
-673.48
-545.787
-424.196
-306.374
-224.578
-104.443
-168.378
-90.5584
-93.4763
-103.703
-125.113
-168.716
-232.469
-314.67
-411.92
-512.127
-605.763
-697.63
-791.039
-859.085
-892.773
-913.754
-967.402
-1058.52
-1143.02
-1181.9
-1167.75
-1110.77
-1021.61
-908.995
-780.467
-642.522
-507.384
-374.059
-273.805
-137.508
-170.234
-92.5295
-95.184
-105.507
-129.954
-178.706
-245.869
-331.337
-427.939
-524.841
-614.261
-710.528
-827.59
-920.529
-973.375
-993.343
-1031.64
-1111.84
-1200.52
-1254.52
-1258.49
-1215.49
-1134.37
-1023.45
-890.682
-743.367
-594.454
-444.641
-324.096
-171.634
-168.505
-95.7513
-98.1053
-109.578
-139.291
-193.773
-265.738
-352.757
-445.915
-535.524
-614.617
-713.638
-866.949
-989.747
-1060.87
-1076.28
-1098.6
-1161.28
-1240.61
-1300.44
-1320.52
-1294.4
-1226.37
-1122.43
-989.688
-835.815
-674.542
-509.786
-369.826
-202.776
-163.299
-100.367
-102.452
-116.625
-153.483
-213.817
-291.704
-377.793
-464.514
-541.524
-604.301
-713.043
-922.018
-1067.81
-1140.84
-1140.91
-1144.84
-1192.82
-1255.39
-1311.2
-1342.51
-1334.61
-1284.52
-1193.16
-1065.3
-909.025
-739.097
-562.648
-406.138
-228.244
-155.038
-106.274
-108.193
-126.605
-171.394
-238.106
-321.478
-404.281
-481.064
-537.318
-579.258
-717.49
-968.505
-1084.25
-1134.6
-1143.91
-1141.07
-1190.67
-1244.93
-1291.78
-1327.18
-1335.07
-1304.93
-1229.19
-1110.39
-956.019
-781.668
-597.98
-428.998
-245.342
-143.843
-113.145
-114.913
-138.36
-191.162
-264.871
-351.751
-429.668
-494.137
-521.73
-541.58
-621.368
-865.378
-1039.08
-1098.36
-1077.43
-1079.81
-1149.28
-1216.3
-1257.47
-1287.84
-1305.29
-1291.17
-1231.32
-1123.35
-972.972
-797.863
-611.347
-435.33
-251.938
-129.699
-120.488
-122.277
-150.829
-210.319
-289.887
-378.169
-450.047
-502.749
-511.757
-532.732
-582.346
-785.589
-903.114
-923.321
-991.108
-1028.8
-1130.27
-1217.51
-1247.7
-1250.08
-1255.16
-1248.66
-1201.91
-1103.64
-958.657
-785.601
-600.757
-423.88
-247.156
-112.667
-127.701
-129.675
-163.244
-228.278
-310.327
-396.51
-460.724
-503.26
-508.045
-540.91
-612.732
-804.664
-842.42
-873.156
-986.678
-1056.53
-1186.59
-1286.21
-1296.03
-1245.54
-1211.46
-1195.19
-1151.99
-1057.95
-916.24
-747.056
-567.966
-395.849
-231.551
-92.812
-134.362
-136.721
-174.845
-243.72
-325.79
-404.556
-457.322
-490.513
-501.724
-540.923
-608.662
-782.149
-788.274
-844.12
-1004.19
-1133.14
-1304.05
-1417.21
-1408.48
-1294.2
-1190.77
-1140.56
-1086.71
-990.26
-851.185
-687.299
-517.083
-354.351
-206.837
-70.1203
-140.154
-142.914
-185.377
-255.792
-332.295
-399.162
-436.737
-456.501
-470.364
-523.114
-633.747
-758.128
-762.747
-829.87
-1011.67
-1231.13
-1451.59
-1580.02
-1559.08
-1391.75
-1206.8
-1098.51
-1016.22
-908.329
-768.961
-611.624
-453.041
-303.311
-174.96
-44.4303
-144.935
-148.152
-194.259
-264.175
-332.166
-381.804
-398.297
-399.654
-413.053
-462.81
-538.775
-623.505
-643.953
-749.363
-1008.75
-1324.63
-1594.49
-1738.09
-1703.36
-1495.04
-1240.79
-1067.27
-945.552
-819.686
-677.41
-527.275
-382.317
-247.594
-137.891
-15.6781
-148.678
-152.204
-201.437
-270.532
-326.58
-353.449
-343.18
-323.396
-335.104
-384.221
-433.152
-466.948
-495.428
-659.552
-998.373
-1386.97
-1692.01
-1846.59
-1796.79
-1558.46
-1259.69
-1035.24
-875.272
-730.58
-585.85
-444.176
-312.856
-193.16
-99.9384
14.6288
-151.44
-155.242
-206.859
-274.089
-316.549
-317.074
-275.923
-234.643
-252.026
-315.354
-348.249
-341.245
-372.495
-586.118
-972.652
-1394.47
-1711.82
-1868.2
-1804.32
-1550.63
-1239
-991.398
-806.251
-649.453
-505.589
-373.168
-254.593
-149.675
-68.0718
44.0099
-153.318
-157.312
-210.5
-274.364
-302.37
-276.182
-205.058
-148.813
-186.942
-278.03
-302.302
-274.393
-328.796
-569.205
-953.116
-1341.77
-1640.42
-1784.13
-1716.3
-1473.18
-1181.3
-937.804
-745.995
-586.898
-448.273
-325.152
-216.537
-124.245
-44.1088
69.9188
-154.467
-158.507
-212.627
-272.019
-285.058
-233.942
-135.985
-73.9297
-139.903
-262.194
-297.252
-291.286
-379.16
-608.271
-926.93
-1254.78
-1518.9
-1643.95
-1581.06
-1369.05
-1114.82
-890.869
-705.706
-551.234
-418.704
-302.223
-199.477
-114.014
-28.5165
86.6278
-155.045
-159.041
-213.739
-268.868
-269.481
-197.924
-77.7516
-8.99087
-80.8752
-223.289
-304.272
-348.364
-450.139
-642.328
-899.405
-1183.47
-1417.8
-1527.29
-1471.93
-1290.94
-1070.57
-866.263
-690.293
-540.677
-411.469
-297.336
-195.909
-112.494
-22.9138
93.0897
-155.34
-158.898
-214.315
-266.857
-260.06
-175.029
-43.9878
33.0464
-29.0917
-178.979
-285.917
-366.27
-483.881
-654.814
-884.741
-1147.48
-1365.61
-1468.26
-1419.22
-1256.29
-1054.22
-860.662
-689.782
-542.201
-413.558
-299.064
-196.833
-113.511
-23.7177
97.6081
-80.0011
-83.5698
-94.852
-117.998
-163.136
-228.502
-312.818
-410.545
-506.338
-587.414
-647.308
-686.202
-710.748
-754.645
-841.715
-940.914
-1009.51
-1028.99
-1005.16
-948.233
-872.051
-782.507
-683.941
-580.07
-471.979
-368.949
-260.951
-193.689
-62.0494
-194.66
-79.9773
-83.3917
-95.1285
-119.082
-163.569
-228.279
-312.107
-409.321
-505.677
-589.908
-657.568
-707.305
-737.735
-771.918
-839.201
-929.206
-1007.48
-1046.49
-1042.15
-1000.6
-934.15
-848.704
-749.258
-640.639
-525.767
-414.62
-299.952
-223.622
-89.0335
-193.72
-80.046
-83.2083
-94.9141
-120.171
-166.44
-232.578
-318.222
-416.33
-513.408
-599.639
-673.832
-736.028
-777.107
-809.476
-863.285
-946.181
-1033.88
-1092.44
-1108.03
-1082.58
-1026.85
-946.506
-846.786
-733.05
-609.38
-486.732
-359.896
-268.898
-121.971
-198.175
-80.4789
-83.2518
-94.8402
-122.642
-172.722
-242.498
-331.47
-430.389
-527.059
-613.341
-692.625
-769.471
-827.622
-869.382
-917.423
-992.439
-1084.17
-1157.25
-1189.04
-1178.23
-1133.18
-1058.93
-960.335
-842.517
-710.176
-574.728
-433.215
-322.807
-160.536
-198.125
-81.7435
-84.0521
-96.3981
-128.839
-184.324
-259.738
-351.846
-450.155
-544.2
-627.907
-711.723
-807.763
-887.449
-944.337
-991.049
-1056.1
-1144.19
-1222.63
-1264
-1265.75
-1232.09
-1166.47
-1072.07
-952.866
-813.506
-665.781
-508.982
-377.438
-199.571
-193.394
-84.3037
-86.0844
-100.759
-140.108
-202.422
-284.903
-378.97
-474.517
-562.614
-639.419
-726.757
-848.43
-951.536
-1023.45
-1068.3
-1120.11
-1195.71
-1267.93
-1311.79
-1323.33
-1302.65
-1249.83
-1164.56
-1048.52
-905.556
-747.758
-577.492
-425.925
-234.408
-184.804
-88.3595
-89.6918
-108.691
-156.559
-227.169
-317.374
-411.701
-502.188
-580.509
-646.306
-740.239
-895.308
-1014.83
-1088.4
-1124.78
-1160.37
-1222.83
-1282.78
-1321.88
-1339.74
-1333.47
-1297.65
-1226.88
-1118.46
-976.102
-811.713
-631.177
-463.097
-262.193
-173.293
-93.8441
-94.831
-119.975
-177.628
-258.134
-355.127
-447.64
-530.492
-594.283
-646.577
-755.43
-934.742
-1039.53
-1090.61
-1127.83
-1154.38
-1214.91
-1267.81
-1299.97
-1319.26
-1324.98
-1307.49
-1253.7
-1156.93
-1018.53
-851.475
-665.024
-484.984
-279.976
-159.217
-100.428
-101.158
-133.386
-201.544
-292.605
-394.554
-483.296
-556.178
-601.875
-638.492
-738.515
-893.502
-963.921
-996.316
-1070.11
-1103.26
-1174.61
-1234.61
-1262.62
-1276.71
-1289.08
-1288.19
-1251.28
-1164.39
-1030.67
-863.62
-675.211
-488.886
-285.661
-142.645
-107.581
-108.283
-148.033
-225.88
-326.233
-430.779
-513.681
-575.514
-607.023
-638.143
-737.799
-856.345
-897.612
-920.881
-1004.32
-1062.3