/*--------------------------------*- C++ -*----------------------------------*\
| =========                 |                                                 |
| \\      /  F ield         | OpenFOAM: The Open Source CFD Toolbox           |
|  \\    /   O peration     | Version:  2512                                  |
|   \\  /    A nd           | Website:  www.openfoam.com                      |
|    \\/     M anipulation  |                                                 |
\*---------------------------------------------------------------------------*/
FoamFile
{
    version     2.0;
    format      ascii;
    arch        "LSB;label=32;scalar=64";
    class       volScalarField;
    location    "80";
    object      p;
}
// * * * * * * * * * * * * * * * * * * * * * * * * * * * * * * * * * * * * * //

dimensions      [0 2 -2 0 0 0 0];

internalField   nonuniform List<scalar> 
84826
(
104.695
104.662
104.679
104.732
104.754
104.676
104.405
103.745
102.418
100.03
96.462
91.9182
87.6964
85.7222
86.0475
87.8308
91.8485
99.235
109.084
122.562
125.882
91.462
22.7497
-50.8624
-103.84
-122.641
-111.507
-67.7324
-40.0515
20.1624
104.706
104.678
104.708
104.785
104.845
104.826
104.641
104.089
102.874
100.508
96.7585
91.6203
86.8261
84.9009
85.6018
87.658
91.3247
97.2163
104.646
113.821
114.953
86.8555
26.5465
-43.6568
-98.302
-121.065
-112.612
-72.1751
-42.1522
15.2461
104.726
104.706
104.762
104.885
105.022
105.121
105.109
104.779
103.798
101.49
97.4721
91.1478
85.1308
83.1365
84.3193
86.881
90.5184
95.0651
100.183
106.08
104.798
81.4489
30.7329
-34.0642
-89.9055
-117.599
-112.798
-75.9282
-43.661
14.1395
104.75
104.743
104.833
105.023
105.273
105.553
105.811
105.838
105.249
103.089
98.7852
90.5031
82.6166
80.5437
82.1511
85.217
89.0349
92.6785
95.7846
99.2645
97.0676
77.5265
35.5908
-22.5624
-78.2828
-110.788
-110.118
-78.115
-43.932
8.40324
104.773
104.782
104.914
105.185
105.578
106.099
106.736
107.294
107.335
105.551
100.888
89.1769
78.8231
77.556
80.1086
83.8714
87.6429
90.3462
91.9427
93.4909
91.1705
75.159
40.2919
-11.2058
-65.3819
-101.241
-104.274
-77.6291
-41.6716
-0.146759
104.79
104.815
104.992
105.351
105.905
106.718
107.852
109.173
110.185
109.293
104.271
86.7168
73.034
73.9688
77.8816
82.9232
85.9722
86.6055
86.1403
86.0333
84.4982
73.1087
45.2176
0.368399
-51.0321
-88.3699
-94.6931
-73.1643
-37.5645
-7.02232
104.793
104.833
105.053
105.498
106.217
107.345
109.073
111.448
113.975
114.923
109.385
82.8593
66.5546
71.2105
74.8242
80.9105
82.7022
81.4577
78.9216
76.4641
75.0246
68.6764
48.8737
11.5555
-35.6645
-72.7319
-81.9114
-64.769
-32.0646
-8.56842
104.776
104.829
105.082
105.598
106.462
107.884
110.233
113.896
118.844
123.675
116.761
88.0635
57.8962
68.0058
79.8403
85.2684
84.4109
80.9376
76.667
72.7004
70.9393
67.4553
53.3227
22.3113
-20.2032
-55.7935
-67.0352
-53.203
-24.8257
-5.66904
104.736
104.795
105.069
105.628
106.59
108.224
111.096
115.963
124.169
136.07
138.601
83.8595
24.7096
63.6125
82.8181
89.4857
87.4794
82.4149
77.2109
73.3433
72.1594
70.6053
59.9518
33.2943
-4.94165
-38.3666
-50.5652
-39.1069
-16.0889
-0.357537
104.669
104.729
105.005
105.571
106.564
108.277
111.408
116.945
127.514
146.098
161.295
88.3718
-95.7404
21.1251
59.8071
70.5149
73.2251
71.7136
70.7299
72.0674
74.7543
75.5113
67.3874
44.2642
10.1411
-20.4417
-32.555
-22.965
-6.6332
7.04954
104.575
104.63
104.888
105.425
106.371
108.014
111.044
116.435
127.101
147.218
175.642
67.7697
-27.5711
42.0174
52.9838
58.9782
61.7291
65.1137
70.7358
77.0458
80.3801
74.3374
54.5203
24.783
-2.07555
-13.1853
-5.18782
3.90501
16.2578
104.457
104.5
104.725
105.198
106.026
107.456
110.043
114.547
122.978
136.86
160.177
134.205
-62.6566
13.6093
54.494
61.6919
64.1956
65.3189
67.9681
73.6934
81.1016
85.0974
79.738
62.8634
38.0751
16.0621
6.99642
14.2465
15.4701
26.733
104.321
104.347
104.524
104.904
105.561
106.673
108.599
111.759
116.678
122.18
127.395
81.1692
-23.2011
42.2412
77.0724
75.0672
71.29
71.423
74.1384
78.9467
85.2805
88.4539
83.1856
69.0832
49.684
33.528
27.8425
35.228
27.408
38.4386
104.174
104.18
104.3
104.57
105.027
105.778
106.993
108.763
110.776
111.263
103.699
73.5749
35.468
54.0103
73.1146
74.1294
73.1074
75.7307
79.7097
83.3665
87.1429
88.915
84.4892
73.6515
59.925
50.4316
49.1859
56.7248
38.9963
52.3975
104.025
104.01
104.07
104.225
104.482
104.879
105.451
106.087
106.313
104.617
97.9703
78.9135
55.6424
61.4134
73.1689
76.1812
76.8989
79.3357
82.4436
84.6838
86.5613
87.4004
84.4409
77.3447
69.279
66.5935
69.9638
77.1079
51.2071
71.1459
103.882
103.847
103.85
103.898
103.971
104.058
104.119
103.972
103.155
100.545
94.4217
81.7348
67.7119
67.1794
73.4654
77.1447
79.0013
81.2176
83.6079
85.1791
86.1604
86.4531
84.6479
80.8054
77.8719
81.5196
88.7875
96.7545
68.4849
98.0944
103.755
103.702
103.656
103.611
103.529
103.369
103.056
102.389
100.95
97.9571
92.5351
83.9059
74.6248
72.1002
75.3867
78.7312
80.9626
83.0133
84.9402
86.0998
86.3737
86.017
84.8824
83.6431
85.2097
94.3341
105.602
120.672
97.1294
135.589
103.65
103.584
103.498
103.38
103.18
102.84
102.268
101.265
99.4807
96.4068
91.6595
85.1729
78.4904
75.7096
77.2698
79.8471
81.9505
83.861
85.6706
86.7468
86.6224
85.8327
85.1741
86.0483
91.5678
105.068
122.399
153.794
139.739
182.255
103.575
103.501
103.388
103.219
102.941
102.486
101.751
100.548
98.5952
95.558
91.2498
85.8734
80.6337
78.0173
78.6728
80.6225
82.5093
84.3925
86.2867
87.3499
86.9292
85.9096
85.7745
88.596
97.3622
115.206
143.374
195.303
189.845
230.029
103.531
103.457
103.33
103.134
102.818
102.307
101.493
100.197
98.1798
95.1787
91.0792
86.1974
81.613
79.1409
79.3832
80.9615
82.722
84.6696
86.676
87.7054
87.0584
85.8851
86.2506
90.6815
101.985
125.532
166.635
233.137
229.25
264.697
104.673
104.639
104.655
104.701
104.715
104.629
104.351
103.692
102.376
99.9982
96.4356
91.864
87.5935
85.6564
86.0968
87.9408
91.9823
98.7559
107.683
119.477
110.247
56.4566
-18.2556
-86.1638
-130.665
-140.211
-119.743
-64.0868
-37.8266
38.0571
104.684
104.655
104.683
104.753
104.804
104.777
104.585
104.032
102.829
100.467
96.7212
91.5303
86.7162
84.9327
85.766
87.796
91.354
96.7666
103.303
110.884
103.839
59.6195
-9.46219
-77.2339
-125.021
-140.308
-123.606
-72.3859
-41.3825
30.7265
104.703
104.683
104.735
104.851
104.977
105.067
105.048
104.717
103.745
101.436
97.4029
90.9853
85.0761
83.3787
84.5973
86.9149
90.3364
94.6892
99.391
103.674
97.3587
62.1121
0.313538
-66.2253
-117.485
-138.957
-126.117
-79.0593
-41.9991
23.3126
104.727
104.718
104.805
104.986
105.223
105.492
105.743
105.767
105.183
103.007
98.6316
90.2568
82.9157
81.298
82.4197
84.7124
88.2563
92.0554
95.4525
97.8105
92.0145
64.3468
11.0028
-52.3922
-106.254
-133.799
-125.312
-84.3961
-40.3116
8.73678
104.749
104.756
104.884
105.144
105.522
106.028
106.658
107.212
107.248
105.365
100.576
88.9589
80.173
79.4347
80.3958
82.4759
85.8635
89.1068
91.5619
92.8239
87.7046
65.8223
20.6675
-37.9992
-92.8054
-124.995
-120.891
-86.0974
-36.1785
-5.26554
104.765
104.787
104.959
105.305
105.843
106.637
107.762
109.082
110.082
108.861
103.618
86.3536
75.8402
77.4811
78.9242
81.589
84.2327
85.5764
86.0086
86.1014
82.4013
66.2002
29.424
-23.2563
-77.0412
-111.934
-111.963
-82.0562
-30.4386
-12.4001
104.767
104.804
105.017
105.446
106.144
107.249
108.967
111.364
113.895
114.205
108.464
80.6234
68.7965
74.4195
75.5921
79.2455
80.5085
79.6052
76.8519
74.2598
72.2283
62.7679
35.5062
-9.46019
-59.8971
-95.3745
-98.7578
-72.6126
-22.8049
-13.6901
104.75
104.799
105.044
105.542
106.376
107.762
110.087
113.784
118.778
123.145
118.156
79.791
60.023
74.8453
77.6471
80.5962
78.9355
75.5306
70.7364
66.3176
64.6369
59.4742
39.6319
2.29429
-43.0803
-77.243
-82.6339
-59.3934
-14.58
-12.2311
104.709
104.765
105.029
105.569
106.495
108.077
110.866
115.712
123.836
136.487
136.573
59.9273
29.787
69.8761
72.6364
79.4431
77.8342
73.5255
68.6294
64.6271
63.2934
59.8238
44.4264
12.9739
-27.029
-58.5337
-64.5825
-44.2863
-6.92457
-8.55948
104.642
104.699
104.964
105.511
106.464
108.115
111.108
116.481
126.673
146.934
174.914
-277.301
-29.6388
20.5279
40.8147
55.762
61.1371
61.7424
62.3319
64.0616
65.9591
63.9602
51.0367
23.9117
-11.0175
-39.0849
-45.1917
-28.0603
1.45476
-2.96981
104.548
104.599
104.849
105.364
106.27
107.84
110.719
115.869
126.08
147.072
184.472
-20.7155
22.1202
38.8288
48.8085
54.1956
59.1153
65.6622
70.9483
70.2387
58.9888
35.4633
5.39051
-18.8619
-24.5949
-10.0816
11.08
3.97708
104.431
104.471
104.687
105.139
105.926
107.283
109.733
114.019
122.097
136.705
164.851
146.964
-95.9866
7.63337
43.1339
52.1468
57.1881
60.6205
65.2489
72.1824
78.2309
77.7501
67.1956
46.7393
21.4669
1.66374
-2.73762
9.79817
21.3717
11.489
104.296
104.319
104.488
104.848
105.47
106.523
108.34
111.329
115.99
121.657
129.65
81.0063
-33.156
43.9672
68.9989
71.729
70.238
71.5079
75.1606
80.2055
84.7868
84.1712
74.4425
57.2735
36.9549
22.1788
20.0698
30.7638
31.1021
19.0224
104.15
104.154
104.266
104.52
104.949
105.652
106.785
108.428
110.257
110.756
103.313
73.6289
35.3767
52.419
69.8509
73.2215
73.6106
76.6837
80.7382
84.0148
86.5817
86.1588
78.835
65.8737
51.3732
42.4263
43.0097
51.0102
38.7556
26.7479
104.002
103.985
104.039
104.181
104.415
104.775
105.291
105.842
105.971
104.264
97.9219
79.1733
56.0908
61.6073
72.6579
76.3813
77.5649
80.1505
83.1071
84.8128
85.8374
85.5235
81.1674
72.9508
64.0447
60.8612
64.1389
68.3048
44.1343
36.1509
103.86
103.823
103.822
103.859
103.914
103.975
104
103.801
102.936
100.342
94.4077
81.9605
68.2804
67.6189
73.4833
77.3018
79.4117
81.8036
84.1837
85.4232
85.6675
85.1279
82.6494
78.3385
74.599
76.5539
80.9074
81.7272
49.9522
49.7867
103.734
103.68
103.63
103.576
103.481
103.303
102.965
102.269
100.814
97.8528
92.5362
84.1148
75.047
72.4665
75.5585
79.0208
81.4425
83.5112
85.3987
86.4141
86.1001
85.0323
83.5389
81.9504
81.8621
87.4278
91.9395
93.9374
60.5149
69.8091
103.63
103.563
103.474
103.349
103.14
102.787
102.198
101.18
99.3986
96.3605
91.6869
85.3224
78.756
75.9969
77.5352
80.2128
82.3721
84.2188
86.014
87.0787
86.5154
85.1167
84.1163
84.1489
86.4598
94.1064
99.8213
109.377
78.5631
95.8756
103.555
103.482
103.366
103.191
102.905
102.441
101.694
100.484
98.5414
95.5404
91.2905
85.983
80.8093
78.253
78.964
80.9666
82.8436
84.6966
86.614
87.6711
86.8829
85.3221
84.7153
85.7955
89.7877
99.6238
110.177
130.811
102.064
123.39
103.512
103.437
103.308
103.107
102.784
102.266
101.444
100.143
98.1357
95.1728
91.1293
86.294
81.7475
79.336
79.6652
81.2952
83.0419
84.9816
87.0279
88.0511
87.1027
85.4964
85.3684
87.0045
92.632
106.46
123.898
153.429
122.706
145.812
104.63
104.594
104.601
104.633
104.628
104.521
104.225
103.554
102.235
99.8681
96.352
91.7969
87.4409
85.4301
85.9338
88.0035
92.1629
99.0452
109.642
119.884
95.335
23.4347
-55.5572
-116.192
-150.613
-153.141
-128.405
-63.4294
-41.2262
59.7649
104.641
104.609
104.628
104.683
104.715
104.665
104.451
103.884
102.679
100.329
96.6535
91.4571
86.4968
84.6403
85.5266
87.6641
91.2571
96.7452
104.444
111.651
94.6761
33.8223
-43.6741
-107.483
-146.15
-153.969
-132.332
-74.8956
-42.6059
45.2713
104.659
104.635
104.678
104.777
104.881
104.945
104.901
104.551
103.583
101.3
97.373
90.8448
84.707
82.9767
84.2041
86.4603
89.8582
94.4383
100.119
104.251
92.4567
43.2203
-30.3818
-96.8972
-140.813
-154.537
-135.548
-84.0557
-39.4881
27.6811
104.681
104.669
104.745
104.906
105.117
105.355
105.578
105.579
105.01
102.891
98.6562
89.8421
82.3332
81.0135
82.0988
84.0112
87.4496
91.7799
96.2586
98.2916
89.5494
50.8807
-15.8382
-83.1028
-131.996
-151.992
-136.846
-91.7873
-36.1692
7.41796
104.702
104.704
104.819
105.057
105.403
105.872
106.468
107.004
107.087
105.269
100.536
87.7614
79.3656
79.8304
80.6369
81.6276
84.596
88.4891
92.065
93.3303
86.5326
56.1529
-2.83073
-68.2997
-120.356
-145.764
-135.149
-95.0963
-31.5467
-8.32638
104.715
104.733
104.89
105.21
105.709
106.456
107.541
108.874
110.034
108.776
103.004
83.0496
74.4203
78.832
80.3291
80.8051
82.7528
84.9248
86.5034
87.1733
82.2995
58.8664
8.29953
-52.9986
-105.929
-135.054
-128.439
-91.4854
-25.283
-18.0698
104.716
104.747
104.943
105.342
105.992
107.037
108.7
111.178
114.106
114.553
106.622
73.3373
65.1968
73.7468
75.8308
76.8657
77.8746
77.9335
76.3999
75.681
73.7429
57.095
15.9225
-38.3367
-89.3142
-119.886
-115.924
-81.6745
-18.0627
-22.8961
104.697
104.74
104.966
105.429
106.207
107.512
109.755
113.505
119.157
124.274
115.991
81.3324
59.5883
76.8816
69.8996
72.6972
73.1475
72.2001
68.9747
66.5865
65.4133
53.8849
21.5502
-24.8603
-71.5728
-101.378
-99.0633
-68.3256
-10.6841
-24.2018
104.655
104.704
104.947
105.447
106.304
107.787
110.428
115.133
123.573
136.621
140.424
51.5368
52.8207
80.176
61.6304
71.5522
73.4203
71.8232
67.7938
64.5581
62.7189
53.3485
27.6357
-11.6737
-53.1454
-80.8689
-79.7219
-52.989
-3.05606
-22.6924
104.588
104.637
104.881
105.385
106.26
107.784
110.56
115.492
125.131
142.564
176.892
32.1087
41.1987
18.159
32.0651
55.0322
63.5563
65.2394
64.7853
64.7057
64.3644
56.7577
35.3815
1.93787
-34.256
-59.1847
-58.6783
-35.8348
5.40287
-19.1991
104.495
104.538
104.766
105.24
106.07
107.505
110.104
114.698
123.771
141.487
183.583
-18.2062
16.4211
42.1091
54.6685
60.4281
64.2997
68.2068
69.5848
62.9035
44.6625
16.116
-14.9991
-36.5001
-35.9931
-16.8315
14.4384
-14.5513
104.379
104.411
104.607
105.019
105.735
106.963
109.144
112.904
119.86
132.483
163.819
213.108
-78.4588
16.3782
35.0383
53.3767
61.664
66.3405
70.9394
75.9351
77.7577
70.9934
54.7819
30.3538
4.20898
-13.1917
-12.1183
3.26184
23.204
-9.54521
104.245
104.262
104.412
104.736
105.292
106.227
107.824
110.394
114.271
118.971
127.909
74.0515
-11.6517
31.9272
57.7052
69.4864
72.097
74.825
78.4307
82.3103
84.3186
78.6371
64.1969
44.2759
23.2786
10.1054
11.9062
23.0784
30.447
-4.79797
104.102
104.099
104.195
104.416
104.788
105.394
106.361
107.717
109.099
109.127
101.996
74.5695
39.8099
51.5812
65.075
72.7945
75.6946
78.9455
82.1148
84.4419
85.7836
82.2684
71.0135
55.8432
40.6845
32.5515
34.8799
40.7048
34.7468
-0.392797
103.956
103.934
103.974
104.088
104.275
104.56
104.958
105.329
105.225
103.28
97.1098
79.5712
58.5278
62.3225
71.2129
76.1426
78.5937
81.4096
83.7987
84.8482
85.1484
83.0518
75.8229
65.6733
55.7038
52.1352
54.4111
54.1074
35.7988
4.55754
103.817
103.776
103.762
103.776
103.794
103.801
103.743
103.434
102.448
99.7661
93.9774
82.2498
69.5517
68.6261
73.5794
77.545
80.1749
82.7047
84.7942
85.5693
85.1031
83.3567
78.8724
72.5181
67.5943
68.4021
68.4635
62.3877
34.9087
11.6587
103.692
103.635
103.575
103.502
103.379
103.161
102.767
102.005
100.496
97.5355
92.3508
84.2753
75.744
73.2825
76.0915
79.5679
82.0989
84.0827
85.7947
86.5279
85.6415
83.7323
80.7174
77.1901
76.088
79.4664
76.0513
67.2629
34.6583
22.6291
103.59
103.521
103.423
103.282
103.051
102.669
102.042
100.987
99.1892
96.1863
91.6183
85.4606
79.2105
76.6167
78.1323
80.8312
82.9618
84.6779
86.362
87.1873
86.1654
84.2628
82.2909
80.8043
82.318
85.6375
78.9527
72.1617
37.4177
38.1992
103.517
103.441
103.317
103.129
102.825
102.338
101.566
100.334
98.3917
95.4367
91.2805
86.1167
81.1368
78.742
79.5162
81.5398
83.4018
85.1915
86.978
87.7156
86.5278
84.817
83.7089
83.8033
86.857
89.1591
81.7603
79.4857
42.7296
54.9826
103.474
103.397
103.261
103.048
102.708
102.171
101.328
100.012
98.012
95.1014
91.1505
86.4286
82.0185
79.7516
80.1779
81.8484
83.6167
85.5462
87.4361
88.0709
86.7326
85.36
85.0698
86.4487
90.9222
92.7273
86.3779
87.9682
46.7348
68.7045
104.567
104.527
104.521
104.531
104.497
104.357
104.029
103.33
101.998
99.66
96.2489
91.7906
87.3496
85.1208
85.5884
87.8756
91.9865
99.1501
111.441
118.858
84.0541
1.62843
-84.2502
-144.291
-172.012
-167.236
-136.129
-64.4537
-45.1884
76.1684
104.577
104.54
104.546
104.578
104.579
104.493
104.244
103.645
102.427
100.116
96.5922
91.5155
86.3693
84.1578
84.9584
87.2967
90.9554
96.7601
105.848
111.925
86.5373
14.3334
-70.9787
-134.806
-167.709
-168.275
-139.663
-78.0065
-42.9378
54.0515
104.593
104.564
104.592
104.665
104.736
104.759
104.672
104.281
103.311
101.092
97.4258
91.0019
84.4491
82.1907
83.3343
85.7836
89.354
94.4349
100.98
104.639
87.0017
26.3743
-56.0211
-123.625
-162.906
-169.299
-142.774
-87.8363
-36.0974
28.7091
104.613
104.595
104.654
104.786
104.957
105.147
105.315
105.266
104.728
102.728
98.9959
90.0166
81.6042
79.7901
81.2414
83.4665
87.0222
91.9513
96.8609
97.9173
85.5588
36.2281
-40.1201
-110.013
-155.32
-168.117
-145.702
-96.1417
-32.603
3.25535
104.631
104.627
104.723
104.926
105.225
105.633
106.162
106.646
106.843
105.216
101.495
87.3211
76.5209
76.7676
79.3928
81.2168
84.2495
88.5383
92.4607
92.5081
83.1688
43.2656
-25.8843
-95.4645
-144.91
-163.867
-146.461
-101.042
-30.1477
-16.309
104.643
104.652
104.787
105.068
105.509
106.176
107.177
108.486
109.945
109.237
105.202
80.2814
65.6992
70.498
77.1297
79.4626
81.8854
84.8842
87.0747
86.7112
79.2252
47.0281
-13.744
-80.0469
-131.465
-155.181
-142.051
-100.201
-26.4971
-28.7678
104.641
104.663
104.834
105.189
105.769
106.712
108.253
110.757
114.303
117.232
111.737
64.751
46.5711
57.2067
69.8105
73.4431
75.8903
77.4784
77.0704
76.2963
71.5699
46.7361
-4.33246
-64.6797
-115.472
-141.726
-131.574
-93.2467
-20.7761
-35.5493
104.62
104.653
104.852
105.265
105.962
107.14
109.213
112.909
119.553
130.165
121.866
56.6494
34.8163
50.3302
58.103
63.7655
67.7961
70.1386
68.9859
67.7001
64.6186
45.8179
3.76954
-49.5448
-97.2795
-124.088
-115.939
-81.5536
-13.5811
-38.4053
104.577
104.615
104.829
105.275
106.039
107.373
109.77
114.234
123.073
141.063
154.6
39.2391
24.6143
34.3679
50.8643
62.7457
68.9376
70.9474
68.8381
66.6199
63.107
47.0524
12.1921
-34.0721
-77.6959
-103.201
-96.3255
-66.3998
-5.50741
-38.3581
104.509
104.547
104.76
105.206
105.978
107.326
109.807
114.215
122.827
135.024
160.462
96.8955
133.956
-59.3412
43.1017
63.3508
70.4226
71.1634
68.9875
67.5849
64.9656
51.3591
21.7718
-18.2148
-56.8203
-79.8409
-73.8224
-48.9327
2.97614
-36.3217
104.417
104.45
104.646
105.061
105.787
107.039
109.295
113.164
120.158
129.726
147.685
-199.219
179.043
-153.897
35.7698
60.1919
68.0638
69.5832
69.5983
70.6595
69.0059
57.7039
32.9214
-1.3894
-34.892
-54.6861
-49.4928
-30.2006
11.3139
-33.2458
104.302
104.325
104.49
104.846
105.463
106.515
108.351
111.361
116.347
123.44
143.095
159.497
-104.807
-82.0009
45.0759
64.7332
70.981
73.1331
75.1592
77.8353
76.6738
65.8561
44.6994
15.7651
-12.4159
-28.7717
-24.7156
-11.4151
18.7648
-29.8472
104.171
104.178
104.3
104.572
105.036
105.81
107.105
109.073
111.69
113.992
119.672
76.5155
1.83338
31.9631
58.3364
72.8882
76.3317
78.0142
80.2008
82.7957
82.8373
73.3971
55.5561
32.17
9.35393
-3.52347
-0.94064
6.00795
24.4032
-26.5987
104.031
104.02
104.091
104.265
104.557
105.029
105.762
106.712
107.447
106.465
98.995
75.9037
46.747
54.4101
65.5424
74.6198
78.1027
80.4955
82.5029
84.0725
84.5818
78.0539
64.027
46.2173
29.0219
19.5686
20.0221
20.4798
27.5343
-23.4466
103.889
103.859
103.877
103.951
104.073
104.254
104.483
104.607
104.163
101.814
95.4588
80.1265
62.4557
64.1581
71.5133
76.9253
79.9547
82.4356
84.1089
84.4964
84.0836
79.9312
70.0601
57.676
45.3649
38.5293
36.4187
31.0457
28.184
-19.7174
103.753
103.706
103.673
103.653
103.62
103.548
103.374
102.912
101.751
98.9262
93.2072
82.7379
71.5826
70.1516
74.3773
78.3898
81.1532
83.4647
85.2868
85.5641
84.0509
80.7522
74.0051
65.6325
58.1874
53.5419
47.6064
37.9092
26.8399
-14.4857
103.632
103.569
103.493
103.393
103.228
102.952
102.48
101.624
100.034
97.0632
92.0383
84.5312
76.8351
74.5424
77.0757
80.3604
82.6426
84.41
86.1457
86.7216
84.9576
81.8007
76.7785
71.0899
67.5209
64.277
54.2032
42.4208
24.271
-6.52987
103.533
103.459
103.347
103.183
102.919
102.493
101.814
100.702
98.8711
95.91
91.4955
85.6739
79.9326
77.5824
79.0085
81.5461
83.4687
85.04
86.7326
87.4943
86.1168
83.5297
79.9868
76.0817
74.4067
70.4323
57.0259
46.3299
22.3518
6.39678
103.461
103.381
103.245
103.037
102.706
102.185
101.375
100.109
98.1588
95.2563
91.2423
86.3372
81.696
79.4926
80.2429
82.2161
84.0397
85.7071
87.3395
87.9481
86.8793
85.2191
82.7644
80.2454
79.0433
72.139
57.0556
49.7721
22.2651
22.3074
103.419
103.339
103.191
102.96
102.595
102.029
101.155
99.8158
97.8203
94.9651
91.1463
86.6473
82.5044
80.4035
80.8389
82.5261
84.3693
86.1823
87.8276
88.2622
87.3458
86.609
84.8865
84.0063
82.4898
71.9669
56.2749
51.9533
20.8933
34.0028
104.487
104.442
104.418
104.401
104.33
104.147
103.775
103.035
101.684
99.3949
96.1118
91.8062
87.3624
84.9229
85.3417
87.7921
91.7612
99.7491
113.421
116.386
76.485
-12.4922
-105.866
-168.176
-192.806
-181.382
-141.162
-65.8135
-45.4704
87.9765
104.496
104.454
104.441
104.443
104.405
104.273
103.974
103.325
102.082
99.8306
96.478
91.6262
86.4522
83.8882
84.5804
87.1497
90.8672
97.3126
107.779
110.794
78.9485
-0.210048
-92.5336
-158.498
-188.257
-181.96
-144.88
-80.5415
-41.1237
59.2749
104.51
104.475
104.483
104.523
104.549
104.518
104.368
103.911
102.913
100.768
97.3418
91.2848
84.6409
81.8485
82.8707
85.5802
89.3518
94.875
102.211
104.473
80.3387
12.1301
-77.2483
-147.209
-183.258
-182.599
-148.217
-89.3347
-33.3688
27.558
104.527
104.502
104.539
104.633
104.752
104.873
104.957
104.824
104.262
102.352
99.0158
90.6208
81.7856
79.2082
80.8482
83.5072
87.1853
92.3692
97.2692
97.4733
79.5875
21.8784
-61.712
-134.105
-176.278
-182.627
-152.87
-98.2809
-32.4412
-1.81922
104.542
104.53
104.6
104.759
104.994
105.313
105.731
106.107
106.287
104.795
102.037
88.4248
75.7096
74.3179
77.9837
80.9921
84.3058
88.9509
92.7305
91.3731
77.5264
28.9549
-47.3314
-119.695
-166.974
-180.57
-156.371
-106.262
-32.4157
-23.8058
104.55
104.55
104.656
104.885
105.248
105.8
106.651
107.805
109.271
108.825
107.354
82.4985
62.2886
62.6487
71.7797
77.3197
81.1636
85.1642
87.7245
85.6762
73.9542
33.1212
-34.6947
-104.342
-154.703
-174.079
-154.583
-108.73
-29.9501
-37.7927
104.545
104.557
104.695
104.991
105.476
106.273
107.604
109.877
113.381
117.349
118.122
73.7972
46.0942
45.7345
61.2996
69.9158
74.8168
77.9566
78.7545
77.1534
67.925
34.7419
-23.6788
-88.6985
-139.533
-162.142
-145.891
-103.9
-24.8061
-45.7832
104.522
104.543
104.706
105.052
105.639
106.642
108.4
111.826
117.846
132.809
143.109
64.7466
35.8749
29.0164
48.8503
59.1944
65.7992
69.8593
70.4461
69.7869
62.7017
35.9032
-13.8701
-72.7105
-121.399
-145.162
-131.133
-93.5959
-17.8779
-49.5529
104.478
104.503
104.679
105.052
105.697
106.821
108.852
112.765
120.452
139.493
173.559
54.6814
5.73986
6.22987
43.8915
57.133
64.6731
69.2044
69.7314
68.6396
61.9705
39.0126
-3.47054
-55.7096
-100.791
-123.615
-111.506
-79.4833
-9.95193
-50.3097
104.409
104.435
104.608
104.979
105.623
106.75
108.799
112.498
119.044
129.308
151.915
-38.4532
-22.7336
-52.3938
52.9983
66.2532
71.2421
73.2226
72.4077
70.7795
64.5067
44.6375
7.8113
-37.904
-78.124
-98.995
-88.6242
-62.9791
-1.5379
-49.0629
104.318
104.338
104.495
104.836
105.43
106.45
108.267
111.247
115.87
120.016
123.868
46.8818
-17.2454
-19.5787
63.1575
72.2044
74.4352
74.9041
74.31
73.6242
68.3067
51.884
21.1328
-18.3526
-53.9409
-72.1478
-64.0547
-45.2364
6.62774
-46.7172
104.206
104.215
104.343
104.627
105.118
105.949
107.361
109.519
112.437
114.845
119.611
71.8803
-8.64402
32.4294
63.7198
73.0412
76.0196
77.6423
78.9192
79.9882
75.111
60.2707
34.1585
1.00982
-28.8361
-44.4368
-39.4554
-27.5651
13.7918
-43.9215
104.078
104.073
104.16
104.365
104.717
105.297
106.235
107.534
108.886
108.714
101.363
72.3309
38.9204
50.6094
64.9583
75.8001
79.6224
81.1232
82.2518
84.0433
81.1173
68.1008
46.758
19.6625
-5.1434
-18.3704
-16.5364
-11.325
19.3147
-41.0876
103.942
103.92
103.96
104.076
104.273
104.585
105.047
105.542
105.602
103.641
96.5798
77.8623
56.24
60.0016
69.8546
77.38
80.6005
82.2433
83.3216
84.644
83.7553
73.7837
57.2605
36.2512
16.4148
4.91955
3.06556
2.23711
22.8915
-38.1336
103.804
103.765
103.756
103.78
103.824
103.881
103.918
103.762
102.954
100.251
94.0171
81.3623
67.585
67.4875
73.6222
78.6594
81.5572
83.6278
84.7472
84.5497
83.7556
77.0034
64.7104
49.3405
33.7392
23.3546
18.2225
12.696
24.7547
-34.507
103.673
103.617
103.562
103.501
103.405
103.24
102.935
102.305
100.955
98.0216
92.5586
83.6141
74.3238
72.5786
76.1266
79.7329
82.1259
84.276
85.9177
85.4083
83.5289
78.6791
69.5765
58.5578
46.9711
37.1876
28.8679
20.2648
24.9289
-29.7097
103.556
103.486
103.39
103.256
103.042
102.699
102.139
101.181
99.5059
96.5494
91.7895
85.0789
78.4256
76.3279
78.4602
81.2318
83.1122
84.9344
86.7549
86.7628
84.2616
80.1193
73.1416
65.2422
56.785
46.905
35.3793
25.3165
22.8397
-23.031
103.46
103.38
103.252
103.059
102.756
102.281
101.542
100.37
98.5107
95.6133
91.4218
86.0762
80.9768
78.8815
80.1005
82.2932
83.9778
85.5976
87.3354
87.8239
85.8727
82.6264
77.542
71.4712
63.6933
51.7258
38.075
28.868
18.3552
-12.6945
103.391
103.306
103.155
102.922
102.558
102
101.147
99.8481
97.8972
95.0671
91.2521
86.7024
82.4813
80.4561
81.1248
83.0031
84.7477
86.3048
87.8289
88.3839
87.2533
85.2687
81.6462
76.4443
66.3825
51.1155
37.4927
31.4938
14.3359
1.89909
103.35
103.265
103.104
102.85
102.456
101.856
100.948
99.5902
97.6052
94.8187
91.1842
86.9988
83.183
81.219
81.6278
83.3735
85.2389
86.8271
88.259
88.7238
88.1501
87.3819
85.1468
80.2549
66.5675
48.9405
35.7887
31.872
10.667
11.8685
104.394
104.342
104.299
104.248
104.135
103.902
103.472
102.677
101.303
99.0656
95.9074
91.8015
87.5007
84.992
85.3791
87.9398
91.9686
101.048
115.633
114.239
72.9668
-19.8917
-120.858
-185.86
-208.678
-191.18
-142.371
-66.2809
-39.875
97.1719
104.401
104.353
104.319
104.286
104.203
104.015
103.649
102.934
101.656
99.4627
96.2555
91.6901
86.7086
84.0149
84.6663
87.4068
91.2097
98.2816
110.004
109.686
74.1264
-8.64176
-108.044
-176.62
-204.335
-191.813
-146.96
-81.7153
-37.5407
62.1856
104.413
104.371
104.355
104.357
104.331
104.233
103.999
103.455
102.398
100.302
97.0282
91.4616
85.1382
82.1097
83.069
85.9734
89.7869
95.3908
103.543
104.201
75.5203
3.76482
-92.4456
-165.517
-199.456
-192.497
-151.131
-89.5107
-33.4071
24.8092
104.427
104.394
104.404
104.454
104.51
104.546
104.52
104.266
103.603
101.708
98.457
90.9919
82.5693
79.5002
81.1413
84.1173
87.7943
92.7147
97.5251
96.9601
74.6553
12.5765
-77.5047
-153.373
-193.595
-194.247
-158.071
-100.338
-35.9815
-7.06622
104.439
104.417
104.457
104.565
104.723
104.932
105.198
105.393
105.391
103.884
101.026
89.533
77.2477
74.509
78.0673
81.6374
85.0771
89.6977
92.7091
89.8634
72.1286
18.5494
-64.005
-140.015
-185.692
-194.651
-164.72
-112.049
-37.3648
-30.338
104.443
104.432
104.503
104.673
104.942
105.352
105.993
106.843
107.945
107.334
105.682
86.1339
66.5712
63.4521
71.1049
77.2343
81.5918
86.2059
88.3776
84.0248
68.4075
22.295
-51.7816
-125.443
-174.797
-190.476
-165.835
-116.953
-35.3445
-45.1126
104.434
104.434
104.534
104.76
105.135
105.75
106.8
108.532
111.34
113.428
114.909
83.2981
54.4276
48.9216
61.2755
70.2423
75.4564
79.5535
81.184
77.6861
63.9742
24.7166
-40.4236
-109.76
-160.395
-180.151
-158.953
-113.652
-30.4911
-53.5678
104.408
104.416
104.537
104.806
105.265
106.051
107.445
110.064
114.805
123.239
131.713
81.4265
42.4935
34.2451
50.601
61.2969
67.3035
71.5724
73.6229
72.2049
60.8025
27.0266
-30.044
-93.2425
-142.817
-164.051
-145.243
-104.6
-23.563
-57.4132
104.362
104.373
104.504
104.795
105.301
106.181
107.756
110.797
116.31
130.386
146.772
60.1559
9.77198
16.7878
45.7965
57.6804
63.4555
68.4662
71.4387
71.0309
60.9723
31.4172
-18.1773
-75.3607
-122.142
-142.601
-126.323
-91.6203
-15.4051
-58.1508
104.293
104.303
104.432
104.718
105.217
106.092
107.634
110.414
114.794
122.319
118.558
49.4218
3.94443
16.006
54.6654
64.7697
68.4954
72.4422
74.5918
73.2845
63.4394
37.4187
-5.7603
-56.4152
-98.6246
-117.355
-103.786
-75.8407
-6.71451
-57.0095
104.203
104.208
104.32
104.577
105.026
105.794
107.12
109.181
111.987
113.288
107.527
61.5769
24.0336
40.5676
68.2814
72.462
74.3055
76.7221
77.6924
75.636
66.8487
45.2419
8.5818
-35.224
-72.4884
-89.4918
-79.6401
-58.4361
1.85949
-54.8521
104.094
104.089
104.173
104.377
104.731
105.324
106.296
107.644
109.101
108.827
103.351
73.3664
42.4379
53.7758
69.1652
74.0701
77.4675
80.0118
81.5598
80.905
72.6279
54.2885
23.5651
-13.6977
-45.7575
-61.1522
-55.4174
-40.7547
9.46389
-52.3484
103.97
103.952
103.999
104.131
104.361
104.735
105.309
105.984
106.364
104.8
98.5142
77.5651
54.0777
57.9498
68.5663
76.3351
80.5181
82.4149
83.5987
84.681
78.2468
62.4166
37.1997
6.40377
-20.3196
-34.3825
-32.8116
-24.0893
15.4634
-49.8021
103.838
103.805
103.809
103.861
103.954
104.099
104.283
104.348
103.848
101.371
94.9721
80.3433
64.548
64.9223
72.5053
78.716
81.7845
83.4647
84.1168
85.4762
81.907
68.9595
49.734
25.1835
2.76235
-10.8084
-13.257
-9.62007
19.7473
-47.0389
103.706
103.656
103.616
103.587
103.545
103.472
103.311
102.879
101.754
98.8964
93.1461
82.9358
72.1806
70.8889
75.566
79.8091
82.4184
84.5191
85.0859
84.8693
83.022
73.3415
58.4099
39.2594
20.7572
7.64619
2.26961
1.87842
22.3886
-43.5841
103.58
103.515
103.434
103.328
103.163
102.9
102.461
101.659
100.136
97.199
92.1899
84.6423
76.989
75.0262
77.68
80.6089
82.8004
85.086
86.2482
85.0362
83.1115
75.9594
64.0365
49.2545
33.8416
21.1047
13.8217
10.4234
23.562
-38.7406
103.468
103.391
103.272
103.1
102.833
102.417
101.767
100.705
98.9481
96.0518
91.6668
85.808
80.1328
78.0989
79.6209
81.833
83.6598
85.7068
87.2397
86.3153
83.5744
77.8231
67.9974
56.2667
43.0068
30.3013
21.1102
15.6786
22.6099
-31.4918
103.376
103.289
103.142
102.918
102.571
102.044
101.243
100.011
98.1247
95.3099
91.4098
86.6321
82.17
80.2154
81.0759
82.9149
84.5845
86.3433
87.9265
87.7557
85.1384
80.762
72.9817
62.6184
48.7076
34.8622
24.5193
18.4993
18.3671
-21.785
103.309
103.218
103.051
102.79
102.391
101.79
100.894
99.5619
97.6126
94.8703
91.2967
87.1611
83.3804
81.5126
82.0418
83.7692
85.4306
86.9421
88.3711
88.6779
87.047
84.3844
78.2877
66.9278
49.6661
35.1329
25.0385
19.6673
11.2631
-9.97583
103.271
103.18
103.002
102.723
102.297
101.66
100.718
99.3406
97.3681
94.6669
91.2538
87.4186
83.9526
82.1411
82.532
84.2755
85.9951
87.4244
88.782
89.2337
88.5816
87.4269
82.2659
68.2123
47.9451
34.3628
23.9987
18.1759
3.67813
-3.43355
104.291
104.233
104.167
104.081
103.922
103.63
103.131
102.276
100.879
98.6911
95.6475
91.7709
87.7538
85.359
85.7899
88.6268
93.0003
102.75
118.179
113.436
72.2733
-21.267
-129.565