/*--------------------------------*- C++ -*----------------------------------*\
| =========                 |                                                 |
| \\      /  F ield         | OpenFOAM: The Open Source CFD Toolbox           |
|  \\    /   O peration     | Version:  2512                                  |
|   \\  /    A nd           | Website:  www.openfoam.com                      |
|    \\/     M anipulation  |                                                 |
\*---------------------------------------------------------------------------*/
FoamFile
{
    version     2.0;
    format      ascii;
    arch        "LSB;label=32;scalar=64";
    class       surfaceScalarField;
    location    "80";
    object      phi;
}
// * * * * * * * * * * * * * * * * * * * * * * * * * * * * * * * * * * * * * //

dimensions      [0 3 -1 0 0 0 0];

oriented        oriented;

internalField   nonuniform List<scalar> 
278528
(
1.6048
0.00359679
-0.00914937
1.62322
0.00806109
-0.0273672
1.65388
0.00942806
-0.0411305
1.7023
0.00233534
-0.0518902
1.79066
-0.0178708
-0.0716477
1.96661
-0.0574387
-0.119716
2.27128
-0.10734
-0.198234
2.67912
-0.148621
-0.259552
3.10805
-0.172592
-0.255763
3.52073
-0.209555
-0.201887
3.85015
-0.211698
-0.116703
4.01939
-0.169971
0.000932415
4.0278
-0.13521
0.126183
3.77503
0.0263786
0.226165
3.2324
0.253565
0.289877
2.53951
0.587875
0.105637
2.07509
0.89731
-0.432309
2.02028
1.02673
-0.971032
2.19904
1.0538
-1.23193
2.42515
1.03254
-1.25891
2.59231
0.994896
-1.16313
2.64947
0.953765
-1.01238
2.57944
0.913
-0.844384
2.38931
0.872686
-0.683755
2.10945
0.830126
-0.551114
1.78838
0.78103
-0.460412
1.49167
0.717591
-0.420916
1.25589
0.630361
-0.394388
1.12946
0.510764
-0.384197
0.341207
-0.148865
1.60498
0.00685587
-0.00906531
1.62246
0.0169747
-0.0273453
1.65046
0.021694
-0.04135
1.69583
0.0119417
-0.0561258
1.78538
-0.0224418
-0.0861638
1.96748
-0.0911958
-0.149396
2.2699
-0.173491
-0.237157
2.66514
-0.249106
-0.295109
3.08208
-0.296993
-0.292147
3.4842
-0.365557
-0.244907
3.82027
-0.371428
-0.175159
4.02087
-0.283323
-0.0868111
4.08048
-0.218007
0.0229065
3.88512
0.081436
0.140239
3.41556
0.447013
0.276702
2.75659
0.949151
0.298056
2.22748
1.5163
-0.0893797
2.08442
1.83757
-0.666733
2.22778
1.95212
-1.04068
2.456
1.96262
-1.15808
2.64205
1.92727
-1.11907
2.72508
1.87087
-1.00127
2.68303
1.80334
-0.84949
2.51968
1.72712
-0.69212
2.2619
1.63985
-0.552694
1.95493
1.53682
-0.449215
1.66209
1.40726
-0.396834
1.4245
1.23919
-0.371005
1.29533
1.01816
-0.378021
0.709638
-0.193046
1.60457
0.0104651
-0.00902777
1.61979
0.0279531
-0.0271604
1.64253
0.0395684
-0.0417003
1.68174
0.0339025
-0.0623336
1.77103
-0.0046803
-0.108136
1.96456
-0.0873826
-0.198314
2.28484
-0.185618
-0.308894
2.6854
-0.278778
-0.371439
3.10001
-0.347132
-0.364209
3.5048
-0.46242
-0.306811
3.85376
-0.49005
-0.229141
4.0812
-0.357205
-0.152966
4.18271
-0.262371
-0.0573617
4.02897
0.163173
0.0718845
3.61371
0.611518
0.25088
2.99201
1.14435
0.426572
2.41105
1.8585
0.239174
2.16168
2.41598
-0.327876
2.24195
2.67576
-0.802555
2.45367
2.76327
-1.0116
2.64695
2.76527
-1.03139
2.74805
2.71795
-0.948886
2.72869
2.63876
-0.81697
2.58898
2.53453
-0.668542
2.35203
2.40575
-0.529569
2.05971
2.24984
-0.421023
1.77155
2.05742
-0.361993
1.53178
1.81661
-0.337377
1.39519
1.51444
-0.359397
1.08339
-0.216211
1.60424
0.0143227
-0.00894737
1.61644
0.0415821
-0.0267948
1.63254
0.0642823
-0.0418854
1.66402
0.0716314
-0.0703414
1.75561
0.0433818
-0.140662
1.96602
-0.0297562
-0.268809
2.30338
-0.123831
-0.399927
2.71392
-0.226066
-0.463882
3.12216
-0.315144
-0.440156
3.53615
-0.527747
-0.34759
3.91948
-0.628413
-0.243939
4.18231
-0.441987
-0.17786
4.3221
-0.291027
-0.111586
4.19935
0.275848
0.00950177
3.81687
0.784923
0.208691
3.21901
1.26421
0.477738
2.6093
1.94982
0.518646
2.26469
2.70673
0.0549773
2.25524
3.1838
-0.496999
2.42507
3.40035
-0.805668
2.60828
3.47578
-0.893256
2.71582
3.46252
-0.85233
2.71099
3.3886
-0.745565
2.58923
3.26729
-0.611614
2.36953
3.10437
-0.479429
2.09047
2.90127
-0.372631
1.80765
2.65277
-0.31246
1.56678
2.34832
-0.290499
1.42523
1.98133
-0.324924
1.44502
-0.21929
1.60405
0.0182792
-0.00885703
1.61306
0.0574399
-0.0258188
1.62257
0.0959772
-0.0422545
1.64786
0.127443
-0.0821681
1.74623
0.128048
-0.183851
1.97438
0.0916462
-0.350172
2.32692
0.0183132
-0.49534
2.73205
-0.0840076
-0.547903
3.12267
-0.221974
-0.483881
3.56531
-0.649893
-0.319377
4.01772
-0.908106
-0.172247
4.37804
-0.673338
-0.129092
4.49381
-0.278026
-0.129425
4.38382
0.434628
-0.0497966
4.02032
0.995999
0.151686
3.4369
1.38057
0.466524
2.80782
1.8735
0.705513
2.39222
2.65812
0.465229
2.28222
3.39553
-0.100033
2.38365
3.82204
-0.521499
2.53712
4.02072
-0.697434
2.6383
4.07328
-0.711673
2.63973
4.02538
-0.638387
2.53028
3.90126
-0.524879
2.32444
3.71475
-0.404892
2.05748
3.47296
-0.304921
1.78102
3.17749
-0.248143
1.54106
2.82004
-0.231335
1.39724
2.40292
-0.277224
1.7818
-0.207749
1.60411
0.0219685
-0.00862597
1.61081
0.0740819
-0.0242379
1.61555
0.133437
-0.0432022
1.63831
0.200198
-0.0964455
1.74579
0.250544
-0.230583
1.99275
0.269948
-0.425603
2.34823
0.234773
-0.572418
2.7274
0.131635
-0.595562
3.077
-0.1125
-0.459459
3.5107
-0.930989
-0.151877
3.9884
-1.46181
0.0753807
4.26949
-0.989948
0.0338957
4.45119
-0.360733
-0.100785
4.40425
0.580173
-0.100812
4.12851
1.17906
0.091579
3.61214
1.46936
0.426777
2.98687
1.71375
0.784921
2.52325
2.3024
0.820301
2.32863
3.20811
0.383738
2.34482
3.94234
-0.134602
2.44627
4.3529
-0.43225
2.52592
4.51853
-0.52416
2.52433
4.52319
-0.495991
2.42129
4.41389
-0.409656
2.22623
4.2163
-0.30667
1.97052
3.9463
-0.217725
1.70184
3.61474
-0.16838
1.46555
3.217
-0.160131
1.32189
2.76553
-0.218277
2.08339
-0.184512
1.6045
0.0248296
-0.00814327
1.61092
0.0893582
-0.0225279
1.61531
0.172291
-0.0441537
1.64108
0.281923
-0.108259
1.75862
0.399169
-0.266505
2.01297
0.486757
-0.471229
2.35547
0.499299
-0.607233
2.67483
0.396338
-0.585013
2.89844
-0.0132533
-0.322764
3.11985
-0.255034
0.261886
-0.413152
-0.270313
-0.475695
3.32562
-0.541182
0.489405
-0.54849
-0.574212
-0.493146
3.46639
-0.395978
0.127957
-0.32821
-0.306436
-0.22769
3.71532
-0.219371
-0.191929
-0.108509
-0.0928544
0.00384876
3.83172
0.0680186
-0.262808
0.184922
0.185239
0.287726
3.83244
1.20587
-0.0286125
3.55881
1.38021
0.361806
3.08324
1.4288
0.760205
2.6239
1.74129
1.02126
2.37542
2.6045
0.853877
2.31547
3.64947
0.354777
2.35123
4.39219
-0.0734039
2.39081
4.76215
-0.282092
2.37406
4.85875
-0.318181
2.27071
4.78429
-0.266809
2.08262
4.58945
-0.185041
1.8377
4.3008
-0.109553
1.57874
3.94515
-0.0711856
1.34899
3.5237
-0.0763289
1.20805
3.05659
-0.149319
2.34069
-0.151255
1.60513
0.0265996
-0.00760548
1.61404
0.100854
-0.021137
1.62511
0.20357
-0.0431297
1.661
0.357012
-0.111561
1.78592
0.550395
-0.27624
2.0333
0.713998
-0.474371
2.33269
0.789389
-0.589515
2.52754
0.709069
-0.507924
0.609316
0.0608289
-0.0180521
0.533841
0.707682
0.623273
-0.0836067
0.108999
-0.0282663
0.599704
-0.320453
0.0753455
0.443402
-0.656695
0.182855
-0.510756
-0.476514
0.512172
-0.428909
-0.00218626
-0.517377
0.568505
-0.248277
-0.0207348
-0.61667
0.654052
0.0384267
-0.00721574
3.08149
0.835761
0.094371
-0.685131
-0.543476
-0.840035
-0.738573
3.18162
0.866011
0.41268
2.99598
0.915535
0.698125
2.64952
1.08114
1.00715
2.38967
1.72423
1.14177
2.28166
2.91144
0.848012
2.2572
4.04464
0.37368
2.24658
4.73261
0.0414761
2.20002
4.99144
-0.0851808
2.08629
4.98092
-0.0823497
1.90075
4.80228
-0.0270589
1.66557
4.50726
0.0288683
1.41828
4.14273
0.0500578
1.19988
3.71671
0.0260966
1.06401
3.26303
-0.0696784
2.54575
-0.109137
1.60616
0.0268653
-0.0070492
1.62026
0.106697
-0.0205666
1.64147
0.221615
-0.0399009
1.691
0.40837
-0.101293
1.82941
0.66518
-0.25307
2.05723
0.917175
-0.430536
2.31017
1.0558
-0.519053
0.556806
1.04312
-0.387762
0.544476
0.637718
0.624878
0.485503
0.0918338
0.0404121
0.162949
-0.395885
0.225694
0.361956
-0.356816
0.0434109
-0.134695
0.0231765
0.73223
-0.17662
-0.147913
-0.159561
-0.179948
0.172059
-0.214746
0.364158
-0.0555056
-0.0982539
-0.0647903
-0.105066
0.0135378
-0.0174935
-0.00183142
0.00839668
-0.112379
0.080242
0.271494
-0.0777367
-0.0872115
-0.0705775
-0.0831151
0.0257044
0.0129833
0.0152388
0.0238446
-0.0924693
0.136351
0.0266162
-0.0688038
-0.0419686
-0.0152822
-0.036533
0.00863671
0.0252143
0.0427109
0.0200705
1.73583
-0.258551
0.330277
-0.212466
-0.0185052
-0.473502
-0.269419
2.2918
-0.221485
0.529496
2.55596
0.00733017
0.642629
2.50417
0.331523
0.801421
2.32392
0.810359
1.09554
2.21377
1.86246
1.16086
2.15363
3.28604
0.820195
2.09315
4.36743
0.426942
2.00599
4.87252
0.207195
1.87284
4.96565
0.149192
1.68698
4.82122
0.167334
1.46296
4.5379
0.193663
1.23082
4.18446
0.19085
1.02662
3.77579
0.145931
0.898386
3.36735
0.0249193
2.69106
-0.0584787
1.60741
0.0255309
-0.00658578
1.62888
0.105574
-0.0208509
1.66431
0.222237
-0.0365701
1.73037
0.422928
-0.0808746
1.8712
0.720542
-0.195931
2.09118
1.03506
-0.337239
2.2909
1.25916
-0.402363
0.519892
1.36189
-0.265382
0.519176
0.600161
0.598801
0.351794
0.221948
0.0920694
-0.145748
0.078419
0.0187166
-0.0720514
-0.0520114
0.0259553
0.0805779
0.0196891
-0.0428471
0.00483439
-0.0242127
-0.00998886
-0.0102902
-0.0165847
0.112657
-0.0163782
0.0192463
-0.0851116
-0.00688573
-0.00755995
-0.00458522
-0.0110991
-0.0374045
0.103994
0.0236618
-0.10248
0.00409099
0.00234637
0.00324471
0.00291272
0.0253558
0.085426
-0.0827591
0.00627534
-0.0354807
1.00121
-1.58825
0.298593
0.0363466
-0.027821
-0.0239981
0.0421372
1.84515
-1.45517
0.387834
2.34983
-0.986248
0.487255
2.44854
-0.336816
0.569115
2.25441
0.226053
0.779353
2.08786
0.909738
1.12056
2.0155
2.24299
1.11633
1.92218
3.67111
0.79056
1.79144
4.48906
0.515243
1.63312
4.72573
0.399143
1.44541
4.63578
0.373714
1.23511
4.38301
0.36559
1.02293
4.06114
0.336047
0.837091
3.69215
0.270401
0.720562
3.35418
0.1308
2.76801
0.00118241
1.60862
0.0227655
-0.00624915
1.63823
0.0977778
-0.0222119
1.69009
0.205275
-0.0353243
1.77263
0.396052
-0.05584
1.9164
0.696345
-0.119247
2.10595
1.0551
-0.208835
2.27932
1.33787
-0.251091
0.524759
1.52184
-0.149618
0.537138
0.59717
0.610975
-0.301288
0.369628
0.365686
0.0914518
-0.137882
0.0153815
-0.057797
0.183776
-0.00339054
0.0334157
-0.0630488
0.077425
-0.0124495
-0.000303965
-0.0163497
-0.00209028
-0.0170457
0.0953169
-0.026093
0.017009
-0.106227
0.0199433
-0.0203583
0.128008
-0.158602
0.0252243
0.0245009
2.07141
-2.55669
-0.127194
-0.221476
-0.331115
-0.144151
-0.2802
2.86148
-2.25281
0.00674481
3.31113
-1.62452
0.187722
3.33101
-0.735363
0.378094
2.85537
0.174752
0.527194
2.23558
0.719425
0.810581
1.91403
1.44609
1.11851
1.76256
2.78754
1.03529
1.59112
3.87884
0.782397
1.40217
4.28665
0.628888
1.20724
4.26454
0.566813
1.00835
4.05513
0.527275
0.815793
3.78152
0.472821
0.648697
3.47101
0.389257
0.542705
3.22304
0.238347
2.76876
0.0681913
1.6096
0.0189943
-0.00609331
1.64645
0.0846435
-0.0240101
1.71332
0.174607
-0.0365829
1.80816
0.332137
-0.0310828
1.94305
0.591728
-0.0299651
2.13343
0.916459
-0.0509591
2.31248
1.22503
-0.0650475
0.555986
1.45244
0.00390182
0.563148
0.624482
0.635833
-0.396237
0.499203
0.398971
0.0549293
-0.198691
0.741771
0.120742
-0.220263
-0.201744
-0.187802
0.0722091
0.0809548
0.0887055
0.0816196
-0.379096
-0.10301
-0.0600967
0.0246266
0.0199803
0.118318
-0.000534054
0.0246875
-0.0515994
-0.0361392
0.0639761
0.0806647
0.0238131
-0.00123569
-0.089602
-0.0133976
0.153562
-0.0590451
-0.0521992
0.0821027
-0.124776
3.12505
-3.00264
-0.300011
-0.544549
-0.637987
-0.528453
-0.668727
3.705
-2.70954
-0.123208
4.01662
-1.96607
0.0297166
3.99387
-0.928693
0.215842
3.52791
0.245306
0.395741
2.67234
1.02298
0.552082
1.94674
1.29501
0.875766
1.60537
2.05117
1.07702
1.3738
3.15466
0.955929
1.15957
3.69672
0.804812
0.961549
3.74021
0.722967
0.777915
3.57803
0.661273
0.610123
3.36187
0.58814
0.466937
3.1231
0.492187
0.375521
2.97638
0.339408
2.68313
0.137526
1.61025
0.0146759
-0.0060688
1.65235
0.0678282
-0.0254972
1.72698
0.137445
-0.037833
1.82185
0.249045
-0.0120103
1.94645
0.422337
0.0450059
2.10929
0.650436
0.103908
2.2921
0.895558
0.147812
2.41443
1.11651
0.21478
0.566723
1.45915
0.389248
-0.392587
-0.47725
-0.486162
-0.591878
0.602315
0.659296
0.68738
-0.640114
0.553354
0.528668
0.123964
-0.6102
0.487093
0.638077
0.0513183
-0.566098
-0.375702
-0.296307
0.18966
0.233743
0.246004
0.0820804
-0.236658
0.398578
-0.281772
0.0365351
0.536307
-0.544914
0.66436
-0.580151
-0.0761013
3.5803
-3.18825
-0.119751
-0.752558
-0.78948
-0.835809
-0.897439
3.82877
-2.92591
-0.0315295
3.9772
-2.1553
0.0414406
3.94399
-1.01944
0.124493
3.60366
0.314562
0.27163
2.86015
1.37133
0.39508
1.98913
1.54793
0.616447
1.43586
1.67737
0.925214
1.14296
2.45877
0.988195
0.914651
3.03284
0.892506
0.718562
3.12151
0.81534
0.556752
2.99524
0.745169
0.41868
2.83618
0.664531
0.303412
2.67392
0.565695
0.231593
2.62556
0.424149
2.50377
0.203148
1.61061
0.0102878
-0.00620464
1.65442
0.0501815
-0.026293
1.73182
0.0982603
-0.0386282
1.81828
0.165553
-0.00334229
1.90459
0.246653
0.089395
2.01299
0.323405
0.219225
2.1663
0.403839
0.339399
2.35822
0.493166
0.432189
2.61694
0.697583
0.502954
3.00725
1.20216
0.6097
-0.429278
-0.537458
-0.583292
-0.652575
3.41861
1.08371
0.560572
-0.56188
-0.414143
-0.626219
-0.453185
3.41122
-0.369788
0.373897
-0.120013
0.105872
-0.107172
0.123369
3.29856
-1.8175
0.172518
0.362524
0.471839
0.410394
0.510657
3.20299
-2.69047
-0.0164452
0.618351
0.670714
0.711434
0.800227
3.10973
-3.04532
-0.0497021
2.99542
-2.92026
0.110049
2.92055
-2.26333
0.184203
2.88761
-1.1134
0.127861
2.80794
0.222158
0.173381
2.40392
1.50697
0.268577
1.74943
1.755
0.445196
1.17973
1.52643
0.717605
0.846587
1.90929
0.88114
0.632468
2.37975
0.867106
0.474427
2.46118
0.818803
0.343743
2.37014
0.756425
0.235963
2.26257
0.682323
0.151027
2.16838
0.591878
0.110187
2.18901
0.479166
2.21935
0.259535
1.61042
0.00647006
-0.00641312
1.654
0.0334285
-0.0268925
1.7266
0.0630653
-0.0378843
1.79659
0.0929292
0.00202717
1.83594
0.0981362
0.108882
1.85343
0.03883
0.267496
1.91247
-0.0826986
0.428453
2.08288
-0.223672
0.546778
2.36376
-0.203922
0.62012
2.73768
0.145181
0.682281
3.05665
0.114735
0.648917
2.95326
-0.795899
0.527646
2.62741
-1.68886
0.195087
2.27621
-2.15104
-0.189832
1.84938
-2.67614
0.0579917
1.27856
-2.79128
0.443693
0.854337
-2.18724
0.349803
0.828808
-1.08883
0.00223784
1.1308
-0.0682625
-0.00882869
1.264
1.24583
0.128163
1.06494
1.60853
0.34226
0.7048
1.32973
0.551971
0.438478
1.48231
0.690642
0.289644
1.79583
0.732162
0.186511
1.84156
0.723142
0.104519
1.7699
0.683055
0.0442074
1.69889
0.625126
0.00900853
1.64873
0.556572
0.0609288
1.65036
0.488996
1.77645
0.298209
1.6101
0.00337964
-0.00664664
1.65122
0.0198363
-0.0275343
1.71434
0.0343658
-0.0350156
1.76079
0.0364193
0.00915134
1.75295
-0.00992978
0.115251
1.6781
-0.146347
0.260236
1.61837
-0.408438
0.386433
1.69346
-0.758142
0.459622
1.87778
-0.922276
0.533043
2.09049
-0.684263
0.61531
2.14169
-0.538982
0.600874
1.84949
-0.844796
0.338783
1.42295
-0.945214
-0.320136
0.954236
-1.35478
-0.329971
0.113952
-2.40906
0.573745
-0.840088
-2.53279
0.698029
-1.19718
-1.9442
0.115812
-0.812772
-1.04042
-0.431725
-0.401897
-0.184815
-0.291444
0.00498314
0.793808
0.0452151
0.101623
1.19442
0.312964
-0.0335251
1.05169
0.407119
-0.141613
1.12509
0.461946
-0.158639
1.28988
0.522093
-0.161281
1.29791
0.546712
-0.16742
1.24145
0.535609
-0.167858
1.19333
0.507376
-0.128733
1.13155
0.48012
0.0625543
1.01744
0.444328
1.14338
0.293108
1.6095
0.00125621
-0.00677221
1.6477
0.00990787
-0.0281754
1.69888
0.0142816
-0.0318711
1.71475
0.00111882
0.0181159
1.6533
-0.0685407
0.118954
1.50573
-0.231493
0.232863
1.37545
-0.555075
0.278123
1.35192
-0.991678
0.257191
1.31202
-1.18917
0.305305
1.16025
-0.924729
0.390044
0.865081
-0.522995
0.276261
0.447361
-0.138327
-0.292261
0.276217
-0.0901919
-0.68889
-0.234284
-1.12424
0.276752
-1.45108
-2.10813
0.916909
-2.27715
-2.08739
0.382808
-2.38571
-1.64606
-0.18865
-2.09714
-0.936402
-0.392592
-1.80214
-0.221312
-0.257892
-1.44266
0.418582
0.0153903
-1.14226
0.722534
0.168125
-1.0011
0.716375
0.189472
-0.881348
0.776923
0.225423
-0.749752
0.856493
0.300929
-0.664052
0.856686
0.356047
-0.628816
0.825339
0.382074
-0.61664
0.791501
0.391204
-0.589604
0.714621
0.392034
-0.511053
0.594271
0.347187
0.634873
0.235786
1.60879
3.77979e-05
-0.00686565
1.64382
0.00365628
-0.0287411
1.68367
0.00311507
-0.0296483
1.67038
-0.0131369
0.0258982
1.55602
-0.0779629
0.122456
1.34258
-0.223735
0.205891
1.14693
-0.527027
0.168847
0.950021
-0.896414
0.101594
0.62409
-1.00404
0.138733
0.166835
-0.639073
0.167996
-0.16761
-0.0357804
-0.157024
-0.25828
0.45686
-0.508842
-0.281522
0.0315805
-0.106436
-1.08325
-1.0877
0.762481
-2.47599
-1.52292
0.808483
-3.2295
-1.50952
0.177764
-3.42178
-1.21081
-0.242085
-3.31421
-0.743037
-0.301036
-3.08358
-0.25463
-0.197159
-2.73418
0.134088
-0.065452
-2.34828
0.337527
-0.00349973
-2.05028
0.398387
0.0164499
-1.80626
0.454541
0.0759868
-1.61214
0.496312
0.165387
-1.49276
0.497065
0.240823
-1.42349
0.473296
0.283982
-1.35802
0.430352
0.297269
-1.27471
0.346061
0.287378
-1.1426
0.236724
0.227897
0.179205
0.146818
1.60821
-0.000155414
-0.00678416
1.64057
0.000717609
-0.0290836
1.67158
-0.000582637
-0.0282334
1.63639
-0.0103558
0.0308223
1.4801
-0.0482124
0.125491
1.21331
-0.136841
0.180871
0.92544
-0.32206
0.0859203
0.567276
-0.515718
-0.0212867
0.158621
-0.531209
-0.0664852
-0.185868
-0.237633
-0.061249
-0.229094
0.159382
-0.157201
-0.00731009
0.402672
-0.173876
-0.31675
-0.00341845
0.333437
-1.60274
-0.692709
0.888125
-3.04931
-0.842517
0.767385
-3.88441
-0.802448
0.130009
-4.21196
-0.643973
-0.238766
-4.24924
-0.425148
-0.281221
-4.10029
-0.189316
-0.21497
-3.82021
-0.00321609
-0.144028
-3.49122
0.101022
-0.0950242
-3.19183
0.145362
-0.0492877
-2.92978
0.177232
0.0133683
-2.71575
0.198749
0.0831344
-2.55023
0.200252
0.132031
-2.40505
0.183985
0.145497
-2.25191
0.15161
0.127352
-2.09271
0.0984165
0.0906468
-1.89642
0.0291633
0.013579
-0.0313152
-0.0740691
1.60725
-0.00681514
1.63781
-0.0297738
1.66394
-0.027315
1.61735
0.0353283
1.43769
0.131024
1.13798
0.163826
0.778554
0.0390186
0.399718
-0.136757
0.0995397
-0.232793
-0.00647158
-0.13462
0.15821
-0.00938739
0.489558
0.0666089
0.0540611
0.426986
-1.62475
0.984708
-3.28086
0.814312
-4.22045
0.13815
-4.62183
-0.242377
-4.74349
-0.30383
-4.66548
-0.267745
-4.44572
-0.223706
-4.1631
-0.182895
-3.87538
-0.143759
-3.59197
-0.10706
-3.31478
-0.0785801
-3.04472
-0.069381
-2.77396
-0.0860136
-2.49825
-0.123103
-2.23146
-0.167186
-1.96137
-0.239857
-0.335132
1.60529
0.00344884
-0.0187628
1.62924
0.00789552
-0.0600709
1.67807
0.010943
-0.101617
1.76996
0.00826129
-0.15259
1.95192
-0.00711716
-0.246977
2.26488
-0.0354355
-0.397745
2.68088
-0.0724802
-0.542141
3.11479
-0.109581
-0.584078
3.50046
-0.133675
-0.507545
3.81108
-0.159432
-0.352563
4.03666
-0.178074
-0.163754
4.11566
-0.123112
0.0450407
4.02348
-0.0578903
0.275841
3.56829
0.173247
0.507845
2.89344
0.467681
0.497116
2.48515
0.637209
-0.123614
2.47032
0.666813
-1.08474
2.64036
0.679645
-1.82094
2.84747
0.716532
-2.15571
3.01299
0.756885
-2.18156
3.08883
0.790101
-2.02945
3.05335
0.809617
-1.78691
2.90701
0.813455
-1.51184
2.66592
0.802298
-1.24521
2.35987
0.778396
-1.02359
2.01742
0.735662
-0.853657
1.68048
0.678994
-0.762893
1.38408
0.602172
-0.700042
1.13755
0.503805
-0.641386
0.380182
-0.329722
1.60564
0.00674379
-0.0188517
1.6297
0.0169226
-0.0612564
1.67774
0.0257588
-0.104904
1.77029
0.0231886
-0.164168
1.95126
-0.00279468
-0.27199
2.25001
-0.0520247
-0.432055
2.63582
-0.115133
-0.580778
3.03997
-0.179562
-0.629506
3.4107
-0.22889
-0.56752
3.72332
-0.28471
-0.431712
3.95965
-0.317099
-0.271898
4.07162
-0.215587
-0.106163
4.0616
-0.111726
0.0864622
3.77238
0.27093
0.331568
3.21407
0.782508
0.52011
2.75659
1.13787
0.254434
2.63754
1.2381
-0.542097
2.74561
1.27502
-1.37036
2.9356
1.35235
-1.8665
3.1116
1.44411
-2.02145
3.2133
1.52326
-1.95429
3.21065
1.57328
-1.7627
3.09808
1.58942
-1.51327
2.88614
1.57745
-1.25561
2.60528
1.52377
-1.01738
2.27881
1.44602
-0.833156
1.95047
1.33681
-0.726234
1.65474
1.19196
-0.664926
1.40983
1.00644
-0.635626
0.776047
-0.382335
1.60565
0.0103356
-0.0191053
1.62922
0.0285725
-0.0631733
1.67583
0.047151
-0.110328
1.77192
0.0506105
-0.186399
1.96361
0.0236756
-0.32679
2.2679
-0.0336492
-0.521462
2.64519
-0.11327
-0.688434
3.0273
-0.192891
-0.740574
3.37858
-0.27109
-0.673276
3.6844
-0.374329
-0.522513
3.91901
-0.423518
-0.35671
4.07324
-0.310129
-0.212408
4.11366
-0.154243
-0.0554119
3.93911
0.340052
0.177106
3.49649
0.988797
0.486979
3.01565
1.50971
0.535103
2.79289
1.72006
-0.0204886
2.82621
1.77452
-0.860781
2.98055
1.88573
-1.49013
3.14795
2.03631
-1.77113
3.25876
2.17375
-1.79285
3.27563
2.26594
-1.65874
3.18419
2.31207
-1.4485
3.00671
2.28717
-1.20104
2.74277
2.22228
-0.964305
2.4345
2.11189
-0.778673
2.11818
1.95642
-0.665202
1.82862
1.75228
-0.60797
1.58546
1.49522
-0.604863
1.16832
-0.407236
1.60595
0.0142126
-0.0196222
1.62816
0.0437535
-0.0649337
1.6735
0.0766395
-0.117313
1.77622
0.0963425
-0.219327
1.98369
0.0824255
-0.407357
2.29688
0.032383
-0.648413
2.66544
-0.0504772
-0.83173
3.03176
-0.145922
-0.877574
3.36026
-0.260215
-0.779629
3.66475
-0.448663
-0.577233
3.94153
-0.55947
-0.384333
4.12095
-0.401776
-0.265591
4.18902
-0.178859
-0.155427
4.08386
0.421217
0.0329754
3.74243
1.14576
0.392734
3.27265
1.76435
0.692358
2.96194
2.09431
0.454665
2.90206
2.17816
-0.288823
2.99785
2.30287
-1.00965
3.1356
2.51226
-1.41908
3.23845
2.71944
-1.54172
3.2624
2.86613
-1.47661
3.19672
2.94698
-1.315
3.02891
2.92913
-1.08596
2.78593
2.85415
-0.868441
2.4964
2.71742
-0.688677
2.19472
2.52312
-0.577381
1.9154
2.26908
-0.52779
1.67949
1.95493
-0.548521
1.54538
-0.405036
1.60636
0.0183519
-0.0201932
1.62721
0.0620806
-0.065682
1.67353
0.115548
-0.128051
1.78689
0.162707
-0.26241
2.00641
0.181342
-0.50268
2.33158
0.142738
-0.786049
2.68896
0.073278
-0.976871
3.02793
-0.0364203
-0.996878
3.32844
-0.207946
-0.836738
3.65087
-0.549135
-0.541
3.99135
-0.766945
-0.305361
4.25898
-0.555709
-0.243583
4.2819
-0.1033
-0.229072
4.19199
0.575505
-0.115211
3.93291
1.30629
0.2496
3.5078
1.92521
0.730224
3.13817
2.31995
0.849111
2.97999
2.46463
0.336943
2.9964
2.59533
-0.408502
3.08482
2.85165
-0.948832
3.16412
3.13727
-1.19426
3.17456
3.36632
-1.22222
3.12611
3.46487
-1.10787
2.97473
3.47874
-0.923205
2.75112
3.40203
-0.729235
2.48083
3.24665
-0.563858
2.19598
3.02204
-0.462108
1.93057
2.72809
-0.424694
1.70658
2.37078
-0.46882
1.8957
-0.380163
1.60707
0.0223552
-0.020514
1.62779
0.0820216
-0.0655308
1.67857
0.162028
-0.140994
1.80494
0.247477
-0.308049
2.04601
0.307029
-0.597678
2.36789
0.30727
-0.912266
2.70494
0.248781
-1.08536
3.00318
0.126956
-1.05759
3.26284
-0.12602
-0.801358
3.62463
-0.717557
-0.345376
4.07091
-1.07437
-0.0634042
4.28843
-0.588539
-0.150674
4.34742
0.045796
-0.308617
4.19371
0.915252
-0.287217
4.01081
1.49651
0.0836476
3.68051
1.99876
0.682989
3.29701
2.36332
1.12472
3.05547
2.56343
0.963111
2.98278
2.74962
0.302673
3.00448
3.05087
-0.354852
3.03238
3.42986
-0.752206
3.05594
3.70689
-0.887956
2.99273
3.87719
-0.84495
2.85402
3.92076
-0.712911
2.64839
3.85102
-0.550024
2.39788
3.68562
-0.406153
2.13234
3.43973
-0.320372
1.88429
3.11629
-0.299994
1.67613
2.72955
-0.36855
2.20846
-0.335342
1.60789
0.0257103
-0.0201464
1.63132
0.10076
-0.0652673
1.69116
0.209934
-0.152379
1.83294
0.341209
-0.344166
2.08155
0.453783
-0.66211
2.39822
0.500255
-0.981058
2.70227
0.462968
-1.12571
2.94336
0.333642
-1.03327
3.15425
-0.0211415
-0.639465
3.5112
-0.200048
0.0902927
-0.329782
-0.155251
-0.217447
3.95936
-0.392964
0.290734
-0.352523
-0.288328
-0.290122
4.11498
-0.17455
-0.189278
-0.0911115
-0.119112
-0.0423739
4.07155
0.0548828
-0.570793
0.136849
0.103729
0.17249
3.89177
0.305189
-0.562763
0.365292
0.338194
0.385544
3.82067
1.63251
-0.0939062
3.67193
1.9053
0.603464
3.38157
2.15203
1.26156
3.10492
2.37144
1.49009
2.95837
2.68592
1.06478
2.88956
3.12425
0.351066
2.8951
3.56331
-0.211665
2.87427
3.93091
-0.484727
2.80611
4.16501
-0.537471
2.67555
4.24654
-0.461806
2.48597
4.19166
-0.335995
2.25556
4.02577
-0.21921
2.01128
3.76787
-0.154847
1.78396
3.42372
-0.156096
1.59539
3.01996
-0.25076
2.47396
-0.272779
1.60904
0.027787
-0.0194251
1.63832
0.114726
-0.0648818
1.71063
0.251052
-0.156985
1.86954
0.427782
-0.357365
2.12362
0.596562
-0.673242
2.4284
0.697887
-0.976832
2.68901
0.698644
-1.08595
2.85265
0.579898
-0.918518
0.747406
0.0861649
-0.316254
0.707727
0.760534
0.738615
0.00388511
0.0740949
0.0108632
-0.138857
0.759272
-0.222576
0.149451
-0.250188
0.807188
-0.39872
0.220594
-0.772081
0.0948968
-0.869447
0.907718
-0.158315
-0.14925
0.135646
-0.913069
0.921789
0.128024
-0.216706
0.0929215
-0.901853
0.882447
0.382171
-0.150335
3.26966
1.52241
0.08183
-0.844208
-0.759364
-0.814646
-0.729202
3.39743
1.50404
0.685614
3.31065
1.63473
1.30183
3.06668
1.83948
1.78331
2.88748
2.27657
1.73107
2.79006
2.95408
1.11652
2.72191
3.5944
0.411552
2.66168
4.05819
-0.0248674
2.57764
4.35018
-0.185735
2.44866
4.46859
-0.175023
2.27179
4.43272
-0.0910359
2.06061
4.27159
-0.00561585
1.83933
4.00719
0.0322472
1.63609
3.64906
0.00438614
1.4707
3.23476
-0.118633
2.68399
-0.194926
1.61053
0.0281994
-0.0186054
1.64726
0.121515
-0.0645193
1.738
0.273851
-0.153791
1.91188
0.492385
-0.340019
2.16937
0.71212
-0.626167
2.45492
0.867539
-0.885683
2.68107
0.916861
-0.963464
0.691597
0.846815
-0.743377
0.681536
0.703602
0.692584
-0.00478848
0.673399
0.130704
-0.0217348
0.568498
-0.0965255
0.369848
-0.383786
0.186009
-0.645471
-0.17585
0.244392
-0.480674
0.434064
0.0851616
0.108674
0.0693867
0.12773
-0.110315
-0.0960599
-0.124392
-0.0832656
0.0792157
-0.138686
0.038477
0.148424
-0.0220566
-0.105223
-0.149623
0.0305307
-0.0543152
0.155366
0.0711186
-0.0530463
-0.161546
-0.00192974
-0.112464
0.123896
-0.00810174
0.160209
2.25893
0.826653
0.698612
-0.564049
-0.421024
-0.538396
-0.408538
2.68444
0.625702
0.981672
2.92967
0.733716
1.29781
2.89844
0.966277
1.70587
2.76415
1.4836
2.02351
2.65152
2.45036
1.77806
2.54155
3.44369
1.08162
2.43208
4.10267
0.492651
2.31792
4.46295
0.209284
2.17981
4.609
0.14742
2.00898
4.58628
0.184936
1.81472
4.42581
0.233929
1.61785
4.15595
0.239255
1.44428
3.7898
0.179203
1.30819
3.37185
0.0244311
2.83268
-0.104731
1.61215
0.0268415
-0.0179092
1.6578
0.119357
-0.0646907
1.76206
0.276252
-0.143531
1.95586
0.511983
-0.294439
2.21945
0.775035
-0.522405
2.48765
0.983933
-0.721672
2.68605
1.08598
-0.769794
0.669058
1.09194
-0.532552
0.668901
0.68231
0.687778
0.621429
0.251588
0.0625262
-0.0820876
-0.184861
-0.0895054
-0.0109429
-0.13181
0.110606
0.024592
0.0965516
0.0216304
0.00196129
0.0160448
-0.0187012
0.00520346
-0.0260952
0.00234076
0.00573359
0.0125017
-0.0119941
-0.00147532
-0.00165572
-0.00177702
-0.00163491
-0.00204648
0.00288407
-0.00512689
0.00490246
-0.00430068
-0.00208121
0.00088596
0.000988377
0.000907524
0.000926923
-0.00366956
-0.00447368
-0.00734024
0.00674959
0.00500835
0.00371452
1.21463
-0.642163
0.898503
-0.150319
-0.00668007
-0.159247
-0.0302925
2.01521
-0.710589
0.922861
2.55704
-0.381779
1.06014
2.71801
0.0813756
1.29274
2.59642
0.63285
1.75213
2.45895
1.6525
2.0565
2.33499
3.01132
1.67309
2.18383
4.00767
1.03728
2.02736
4.49529
0.640067
1.86889
4.66607
0.501171
1.69931
4.64266
0.487321
1.52162
4.47557
0.493814
1.35162
4.20135
0.460974
1.21252
3.83516
0.364655
1.11201
3.4289
0.174832
2.91536
-0.00557825
1.61355
0.0239626
-0.0173428
1.66766
0.108871
-0.0661137
1.78471
0.255879
-0.132247
1.9764
0.493765
-0.229425
2.23131
0.769797
-0.368837
2.48991
1.01028
-0.493553
2.67509
1.16053
-0.510535
0.658179
1.23217
-0.293807
0.668298
0.671688
0.681298
-0.319615
0.607571
0.375206
0.0907684
-0.0957479
-0.105446
-0.02284
-0.122831
0.0861789
0.128056
0.0368623
-0.00167527
0.000861003
-0.000349676
0.00169884
-0.000674819
0.000140539
1.83074
-2.05571
0.110052
-0.102939
-0.233184
-0.10094
-0.217929
2.65506
-1.82329
0.294805
3.1806
-1.22011
0.499928
3.30999
-0.440304
0.769918
2.94432
0.326209
1.19961
2.43861
1.15409
1.81498
2.13789
2.45643
1.97412
1.9298
3.73236
1.51888
1.72603
4.41095
1.07105
1.53785
4.61844
0.865311
1.36319
4.58473
0.799864
1.19928
4.40621
0.76088
1.05581
4.13096
0.687074
0.95209
3.77518
0.553515
0.891566
3.39918
0.329224
2.9304
0.0993649
1.61436
0.0200154
-0.0168138
1.67472
0.0923436
-0.0680626
1.79709
0.21885
-0.122137
1.99519
0.424742
-0.160247
2.25134
0.686882
-0.203093
2.49699
0.944932
-0.230964
2.67821
1.11421
-0.199516
0.671076
1.21253
-0.0345778
0.681774
0.686381
0.697739
-0.416531
-0.0678571
0.652556
0.420959
0.0823766
-0.16278
0.646541
0.157417
-0.132761
-0.154773
-0.155695
-0.150746
0.137368
0.140489
0.152073
0.148842
-0.626906
0.00436041
-0.109876
-0.0326691
-0.0334559
0.12905
0.0226123
0.00604998
0.00545887
0.00790322
-0.00338553
0.00331205
0.00920784
-0.0092676
-0.00305568
0.00317533
-0.00169963
0.00536568
0.0115105
-0.00475156
-0.0110342
0.000609959
-0.00396648
-0.00174147
0.0248997
0.0127531
0.00395793
-0.021696
-0.0044805
-0.0023329
-0.00271405
-0.00158079
-0.0016038
-0.00151517
2.91603
-2.81361
-0.242637
-0.49175
-0.630051
-0.481571
-0.612413
3.43395
-2.46818
0.00396121
3.77244
-1.69271
0.163726
3.86848
-0.69932
0.378463
3.48913
0.361512
0.739675
2.68104
1.19221
1.32196
2.04313
2.11331
1.85629
1.65165
3.3834
1.81715
1.39122
4.19291
1.43465
1.17425
4.4403
1.20044
0.995219
4.3923
1.09489
0.847388
4.20149
1.01419
0.733811
3.93128
0.901828
0.668671
3.59839
0.734727
0.653568
3.27217
0.482223
2.87111
0.207307
1.61454
0.0154563
-0.0162294
1.67783
0.0732964
-0.0699013
1.80475
0.168412
-0.114505
1.99153
0.328235
-0.102378
2.21992
0.546737
-0.0431401
2.45325
0.768676
0.0471636
2.64279
0.927415
0.145568
2.76827
1.0184
0.283912
0.716806
1.36556
0.606913
-0.408408
-0.510382
-0.370344
-0.450048
0.729363
0.734036
0.744932
-0.64759
-0.155185
0.741389
0.591894
0.18589
-0.460684
-0.196181
0.537622
0.565017
0.243772
-0.68935
0.0104456
-0.226031
-0.439881
0.456772
-0.0106262
0.115274
0.0301315
0.0232795
0.0401911
0.0841898
0.0381497
-0.509639
0.576047
-0.394519
-0.0700011
0.0908715
0.0898125
0.0947126
0.126336
0.102012
-0.638356
0.722148
-0.61889
-0.10249
0.125944
0.14204
0.140897
3.41824
-3.14113