/*--------------------------------*- C++ -*----------------------------------*\
| =========                 |                                                 |
| \\      /  F ield         | OpenFOAM: The Open Source CFD Toolbox           |
|  \\    /   O peration     | Version:  2512                                  |
|   \\  /    A nd           | Website:  www.openfoam.com                      |
|    \\/     M anipulation  |                                                 |
\*---------------------------------------------------------------------------*/
FoamFile
{
    version     2.0;
    format      ascii;
    arch        "LSB;label=32;scalar=64";
    class       surfaceScalarField;
    location    "80";
    object      phi;
}
// * * * * * * * * * * * * * * * * * * * * * * * * * * * * * * * * * * * * * //

dimensions      [0 3 -1 0 0 0 0];

oriented        oriented;

internalField   nonuniform List<scalar> 
260615
(
1.60012
-7.81426e-05
0.000189253
1.60004
-0.000199389
0.00051692
1.5998
-0.000406021
0.000899281
1.59948
-0.000808904
0.00138436
1.59929
-0.00155809
0.00200986
1.59958
-0.00280429
0.00278542
1.60055
-0.00439932
0.00369439
1.60507
-0.00900397
0.00479893
1.61223
-0.0130645
0.0062746
1.62369
-0.0186466
0.00751592
1.63976
-0.0242138
0.00856252
1.64951
-0.0185165
0.00923166
1.66988
-0.0302657
0.0104446
1.67424
-0.0156124
0.0120702
1.67186
-0.00954085
0.0129032
1.65902
-0.00499512
0.0187691
1.63536
0.0038257
0.0203769
1.60918
0.0188391
0.00743868
1.50483
0.0251666
0.0790695
1.38895
0.129859
-0.0139717
1.53906
0.309912
-0.46
1.90233
0.324924
-0.688217
2.27796
0.203057
-0.578706
2.5778
0.055539
-0.355487
2.75662
-0.0590474
-0.120167
2.76851
-0.116837
0.104251
2.62032
-0.12724
0.27479
2.4138
-0.102189
0.308819
2.15493
-0.0812805
0.341332
-0.0373933
0.137478
1.60011
-0.000138098
0.000192163
1.59999
-0.000355007
0.000523231
1.59967
-0.000736438
0.000910259
1.59923
-0.00149481
0.00140217
1.59883
-0.00292543
0.00203842
1.59885
-0.00538818
0.0028355
1.60005
-0.00910069
0.00377359
1.60343
-0.0169789
0.00489286
1.61032
-0.0260773
0.00642569
1.62205
-0.0377419
0.00771201
1.63962
-0.050007
0.00866979
1.65119
-0.0388767
0.0092619
1.67208
-0.0610365
0.0104256
1.67609
-0.0311542
0.0122947
1.67358
-0.019568
0.0135506
1.66225
-0.0107165
0.0180181
1.64103
0.00218682
0.0234234
1.61999
0.0282515
0.0117091
1.54133
0.0424475
0.0612298
1.43788
0.170149
0.0630841
1.53523
0.44318
-0.230625
1.84871
0.530267
-0.518821
2.20487
0.386644
-0.539707
2.49932
0.166753
-0.405716
2.69285
-0.023241
-0.229709
2.7368
-0.133943
-0.0275363
2.61505
-0.166738
0.160626
2.4215
-0.161434
0.252913
2.17351
-0.125741
0.293654
-0.110819
0.174446
1.60009
-0.000181473
0.000198885
1.5999
-0.000448896
0.000538936
1.59943
-0.000946488
0.000936906
1.59873
-0.00197508
0.00145189
1.59793
-0.00396746
0.00213078
1.59731
-0.00749631
0.0030026
1.59753
-0.0131375
0.00406976
1.60002
-0.0244343
0.00520802
1.60628
-0.0390018
0.00692363
1.61835
-0.0577925
0.0082915
1.63918
-0.0794132
0.00893791
1.65458
-0.0631789
0.00944591
1.6764
-0.0930846
0.0108046
1.67992
-0.0472102
0.0133849
1.67697
-0.031617
0.0159933
1.66736
-0.0201041
0.0199794
1.64881
-0.00690442
0.0282522
1.63317
0.0242045
0.019794
1.58211
0.0498219
0.0434987
1.4989
0.151537
0.101658
1.5533
0.439082
-0.0503441
1.81538
0.608985
-0.340745
2.16002
0.515584
-0.473457
2.46569
0.289451
-0.428323
2.68057
0.0638535
-0.302276
2.7513
-0.0873199
-0.118017
2.65188
-0.151417
0.0834963
2.46273
-0.193558
0.221401
2.21319
-0.130949
0.255755
-0.206795
0.204586
1.60006
-0.000200691
0.000203518
1.59977
-0.000457074
0.000559032
1.59909
-0.000985378
0.000975604
1.59803
-0.00215428
0.0015197
1.59662
-0.00451926
0.00225884
1.59503
-0.00886101
0.00323102
1.59384
-0.0161649
0.0044546
1.59465
-0.0308162
0.00577099
1.59964
-0.0514466
0.00762492
1.6119
-0.0790135
0.00913507
1.6386
-0.114511
0.00901832
1.66042
-0.0930986
0.00866916
1.68257
-0.126188
0.0116398
1.68536
-0.0649603
0.0158343
1.6817
-0.0485884
0.0217395
1.67362
-0.0383812
0.0273885
1.65904
-0.0276526
0.0360122
1.64841
0.00271072
0.032277
1.62091
0.0431173
0.0339655
1.55737
0.116324
0.0984824
1.58148
0.357658
0.0572267
1.7934
0.586599
-0.189448
2.12153
0.580991
-0.393331
2.43915
0.397454
-0.425473
2.67679
0.169446
-0.343475
2.77347
-0.00777333
-0.176851
2.70043
-0.112555
0.0335947
2.51883
-0.214085
0.202226
2.26663
-0.114865
0.236968
-0.328494
0.23169
1.60002
-0.000190336
0.000211863
1.59961
-0.000362563
0.00057611
1.59869
-0.000815957
0.00102062
1.59717
-0.00195667
0.00160503
1.59496
-0.00442468
0.0024116
1.59206
-0.0091985
0.00351817
1.58882
-0.0176291
0.00493326
1.58704
-0.0354131
0.00652112
1.58947
-0.062279
0.00846471
1.60166
-0.101428
0.0105444
1.6389
-0.15959
0.00806471
1.69095
-0.151248
0.00667713
1.68996
-0.137381
0.0129655
1.6905
-0.0861211
0.0216359
1.68538
-0.0766793
0.034244
1.68129
-0.0793802
0.046014
1.67538
-0.079813
0.0586693
1.6714
-0.0571496
0.0639594
1.66275
-0.00662656
0.0580793
1.62037
0.0604869
0.0978337
1.62087
0.246027
0.110958
1.78204
0.503019
-0.0774869
2.08475
0.588357
-0.309779
2.40993
0.472544
-0.400025
2.6684
0.266637
-0.355821
2.78781
0.0773083
-0.20509
2.73955
-0.0742758
0.00942328
2.55995
-0.225916
0.191535
2.30709
-0.094934
0.233649
-0.465059
0.235566
1.59998
-0.000148039
0.000220639
1.59944
-0.000158378
0.000597342
1.59825
-0.00042188
0.00106592
1.59622
-0.00133633
0.00169716
1.59309
-0.00356613
0.00258274
1.58855
-0.0082169
0.0038383
1.58276
-0.0171075
0.00548906
1.57691
-0.0369127
0.00745414
1.57438
-0.0691346
0.00942757
1.58569
-0.125048
0.0123115
1.64042
-0.218509
0.00442812
1.69061
-0.207119
0.00680977
1.69717
-0.166183
0.0235342
1.69835
-0.125703
0.0397912
1.69574
-0.1345
0.0613236
1.69776
-0.167622
0.0869523
1.68919
-0.187222
0.116465
1.66845
-0.172341
0.135984
1.64264
-0.11798
0.136768
1.59845
-0.0478927
0.152043
1.59109
0.0959138
0.157209
1.73243
0.362038
-0.000261351
2.02555
0.531902
-0.236289
2.36186
0.496129
-0.359546
2.63994
0.330796
-0.342342
2.77995
0.140843
-0.204116
2.75124
-0.0534703
0.00736821
2.56684
-0.230371
0.188999
2.3304
-0.0912464
0.233355
-0.604067
0.218027
1.59995
-7.53215e-05
0.0002261
1.59928
0.000148813
0.000620178
1.59784
0.000185688
0.00111043
1.5953
-0.000291194
0.00178234
1.59119
-0.00191119
0.00276706
1.58481
-0.0057123
0.00416635
1.57578
-0.0139931
0.0061279
1.56172
-0.0314489
0.00866923
1.55285
-0.070644
0.0103898
1.56077
-0.146479
0.0134463
1.64041
-0.0565175
-0.00669811
-0.0723409
-0.0715271
-0.0903569
1.71062
-0.0737757
0.0245895
-0.0751218
-0.0799218
-0.0721859
1.70803
-0.0619758
0.0708221
-0.0567998
-0.0563257
-0.0582954
1.70931
-0.0512227
0.0869716
-0.0611766
-0.0482878
-0.0522561
1.67282
-0.199725
0.102559
1.61228
-0.237617
0.131191
1.52045
-0.250831
0.155876
1.42993
-0.226552
0.144731
1.3693
-0.180366
0.122533
1.32464
-0.149504
0.145585
1.35014
-0.0785414
0.14858
1.54748
0.157885
0.00695357
1.89142
0.395668
-0.207241
2.26577
0.450247
-0.328044
2.57147
0.343878
-0.318828
2.73416
0.165788
-0.188185
2.72313
-0.0549944
0.0120939
2.5397
-0.232589
0.185822
2.34394
-0.118814
0.223871
-0.737622
0.187694
1.59992
2.31499e-05
0.000230865
1.59915
0.00053737
0.000639833
1.5975
0.000967662
0.00114681
1.59453
0.00110523
0.00186281
1.58954
0.000458707
0.00293047
1.58122
-0.00161287
0.00450962
1.56817
-0.00752474
0.00680439
1.54819
-0.0216173
0.0102643
1.5239
-0.0582718
0.0118936
0.384125
-0.148179
0.0138613
0.380384
0.376754
0.370554
0.39206
-0.0610925
-0.00299977
-0.405725
0.429594
-0.116537
0.0192344
-0.441142
0.443525
-0.105703
0.0416034
-0.43512
0.430105
-0.0640233
0.0181534
1.42806
0.0348756
-0.0712115
-0.416155
-0.417329
-0.400742
-0.356204
1.27454
-0.0379405
-0.0455609
1.15168
-0.0764835
-0.0510993
1.10143
-0.0726025
-0.103748
1.11143
-0.0652136
-0.125703
1.12278
-0.1066
-0.0549712
1.17445
-0.125287
-0.00528427
1.39007
0.0345533
-0.0921093
1.75809
0.2703
-0.242109
2.15658
0.378238
-0.32599
2.4824
0.323228
-0.305193
2.66503
0.160469
-0.177819
2.67215
-0.0696307
0.00711754
2.50529
-0.237053
0.171558
2.36101
-0.176776
0.202751
-0.857499
0.151464
1.5999
0.000138782
0.000234395
1.59907
0.000972931
0.000653589
1.59728
0.00185628
0.00117361
1.59405
0.00271239
0.0019139
1.58838
0.00334553
0.00309213
1.5788
0.00350701
0.00475806
1.56199
0.00189013
0.00762916
1.53297
-0.0046317
0.0121769
1.48505
-0.0238984
0.0135986
0.364472
-0.0975021
0.0231528
0.357098
0.350728
0.339285
0.370653
-0.0669957
-0.00274719
0.0640899
0.462744
-0.387775
0.208124
-0.115587
-0.0624375
-0.104115
-0.078247
0.0201785
0.018189
0.0284275
0.010323
-0.524762
0.521446
0.164922
-0.037046
-0.0251555
-0.0620343
-0.00972658
-0.0105521
-0.00212446
-0.00489198
-0.0102527
-0.486507
0.437671
0.0412121
0.0140306
0.0165159
0.0222108
0.0145137
-0.0138898
-0.0156626
-0.0153722
-0.0140672
0.933671
0.615604
-0.434768
-0.362743
-0.305365
-0.233768
-0.176731
0.881775
0.438288
-0.423777
0.906921
0.323752
-0.425027
0.966412
0.271723
-0.403843
1.02185
0.208005
-0.329119
1.0638
0.0657112
-0.214892
1.14756
-0.0552321
-0.154096
1.36114
0.0299731
-0.208747
1.70766
0.225317
-0.300954
2.09147
0.337815
-0.342876
2.41408
0.304712
-0.304092
2.60464
0.148559
-0.17912
2.62648
-0.0824803
-0.00930183
2.48455
-0.242659
0.147842
2.38119
-0.249755
0.17688
-0.96062
0.116531
1.59988
0.000259819
0.000251116
1.59902
0.0014109
0.000672552
1.5972
0.00275573
0.00120141
1.59389
0.00435173
0.00195226
1.58796
0.00639778
0.00318225
1.57783
0.00892472
0.00499997
1.55911
0.0127584
0.00810414
1.52345
0.0167361
0.0144748
1.46132
0.0226954
0.0157701
0.339112
0.0179071
0.030907
0.334076
0.322019
0.320547
-0.0376215
-0.00906207
0.0583536
0.0794241
0.0848169
0.0808936
0.0829537
0.0329822
-0.0946286
0.134059
0.00194507
-0.0161666
-0.0198596
-0.0233665
-0.0153494
-0.140306
0.0077534
0.135486
-0.00782132
-0.0062975
-0.0117133
-0.00521418
0.00746372
0.00625623
0.00707528
0.00702948
-0.105655
-0.0519109
0.0646139
-0.00351046
0.0965488
0.622434
1.00583
-0.34364
-0.228039
-0.197824
-0.122858
-0.119217
0.659293
0.795967
-0.394064
0.752944
0.643907
-0.413485
0.829891
0.542208
-0.347482
0.86353
0.41039
-0.236492
0.907558
0.185991
-0.164939
1.05282
-0.019244
-0.181464
1.32359
0.0256277
-0.266128
1.68227
0.207807
-0.340573
2.05448
0.322493
-0.356389
2.36576
0.297443
-0.304005
2.55501
0.141558
-0.182676
2.58642
-0.08744
-0.0266515
2.46537
-0.247454
0.126246
2.38798
-0.327168
0.155379
-1.05454
0.085703
1.59987
0.000374331
0.000266006
1.59904
0.00180849
0.000683589
1.59729
0.003568
0.00120372
1.59412
0.00585068
0.00196121
1.58844
0.00918071
0.00318886
1.57865
0.0140609
0.00493359
1.56022
0.0228976
0.00855395
1.52585
0.0371584
0.0141684
1.45884
0.0689101
0.0211485
0.326093
0.156914
0.0383067
0.328652
0.314475
0.313187
0.0112689
0.0232073
-0.016007
0.0748559
0.0791749
0.0746333
0.079748
0.0315783
-0.0991236
0.105311
-0.0353537
0.00226412
-0.00263247
0.00157727
-0.00374449
-0.015072
-0.0576992
0.0607422
-0.0226206
0.0347591
0.485036
0.857658
0.127366
-0.155233
-0.136662
-0.0939843
-0.0776585
0.512663
0.74365
0.0251199
0.59775
0.631594
-0.0724828
0.669618
0.537554
-0.0672852
0.681005
0.392332
0.00616568
0.723422
0.127285
0.0157365
0.916438
-0.111424
-0.100915
1.24891
-0.0606007
-0.245898
1.63763
0.156809
-0.33714
2.01039
0.300206
-0.349997
2.31238
0.289774
-0.294322
2.49666
0.136218
-0.179281
2.53231
-0.0878332
-0.0353339
2.42228
-0.253319
0.11641
2.36641
-0.414712
0.144083
-1.15359
0.0558102
1.59989
0.000470333
0.0002642
1.59918
0.0021258
0.000639384
1.59766
0.00420791
0.00114722
1.59484
0.00703888
0.00191148
1.58987
0.0113403
0.00308382
1.58133
0.0180421
0.00483153
1.56591
0.0303071
0.00827292
1.53765
0.0518214
0.0138378
1.48249
0.102097
0.0223269
0.349577
0.215083
0.0374395
0.357929
0.33378
0.34623
-0.0615155
0.0808973
-0.00335669
0.0851584
0.0797775
0.0816619
0.0874347
-0.0379817
-0.079907
0.0965207
-0.039255
0.0609636
-0.013962
-0.0756658
0.048865
0.0202878
0.0481448
-0.0094572
-0.0104979
-0.00776765
-0.0295792
0.000169782
0.0153227
0.00896563
0.00542899
0.588748
0.286775
0.444745
-0.133118
-0.170174
-0.068411
-0.0904823
0.638834
0.335511
0.358386
0.680547
0.333722
0.256404
0.749827
0.276429
0.191757
0.82947
0.140603
0.171704
0.884186
-0.0687342
0.140973
0.980115
-0.230078
0.0227415
1.23178
-0.163209
-0.148688
1.59164
0.074977
-0.27748
1.95035
0.254477
-0.312565
2.23947
0.268162
-0.267513
2.41549
0.122929
-0.162998
2.44741
-0.0903948
-0.0292687
2.33969
-0.269076
0.12414
2.31781
-0.532338
0.140274
-1.26785
0.0148267
1.59993
0.000538373
0.000248484
1.59938
0.00232029
0.000604052
1.59817
0.00459023
0.00109258
1.59589
0.00775567
0.00182313
1.59199
0.0126125
0.00290291
1.58528
0.0203759
0.00463649
1.57419
0.0340082
0.00762838
1.55612
0.0574366
0.0126854
1.52936
0.109042
0.0201202
0.377979
0.199545
0.0332332
0.384534
0.371177
0.37837
-0.0831168
0.376993
0.0833506
0.000917066
-0.207511
-0.403849
0.46745
0.161631
-0.0175412
-0.0818127
-0.49116
0.481989
0.0553736
0.0355685
-0.02042
-0.447437
0.403028
0.0113232
0.0540364
1.37585
0.100186
0.33801
-0.372658
-0.424054
-0.318963
-0.411423
1.26908
0.0846115
0.357854
1.21719
0.0655896
0.32017
1.24117
0.000885798
0.251515
1.31637
-0.10613
0.171307
1.33904
-0.208173
0.116611
1.29994
-0.255537
0.0646409
1.36332
-0.178215
-0.0480314
1.59379
0.0230341
-0.178049
1.89084
0.199903
-0.242132
2.14876
0.229234
-0.219002
2.30611
0.0947307
-0.129283
2.32024
-0.100505
-0.00372135
2.2165
-0.31426
0.149764
2.25817
-0.699625
0.12653
-1.39274
-0.0563564
1.59998
0.000570108
0.000229295
1.59958
0.00237514
0.000595434
1.59869
0.0046829
0.00104809
1.59706
0.00793596
0.00171225
1.59433
0.0129044
0.00269506
1.5899
0.0208107
0.0042404
1.58354
0.0338053
0.00679132
1.57202
0.0584862
0.0106864
1.56649
0.0976723
0.017124
1.57716
0.163275
0.0259112
1.66839
0.273721
0.0369279
-0.0780848
-0.101776
-0.0967609
-0.124946
1.80754
0.299081
0.0435142
-0.117287
-0.0994207
-0.140293
-0.124558
1.77287
0.146814
0.0499722
-0.0397879
-0.0209282
-0.0596612
-0.0416294
1.7573
0.025495
0.0576529
-0.00737921
-0.0147924
-0.019742
-0.0254358
1.74319
0.0153505
0.099019
1.71421
-0.00700336
0.120754
1.69909
-0.0397519
0.120601
1.69047
-0.0878874
0.0973782
1.68291
-0.152353
0.0536355
1.64341
-0.200361
0.0315888
1.55808
-0.204509
0.0343907
1.52059
-0.138023
-0.00240427
1.62511
0.0057289
-0.0868093
1.8322
0.145346
-0.15226
2.04002
0.169566
-0.148149
2.16228
0.0482325
-0.0757464
2.14635
-0.125967
0.0418896
2.07243
-0.416768
0.177429
2.21673
-0.910269
0.067412
-1.50341
-0.174687
1.60003
0.000563858
0.000220203
1.5998
0.00228166
0.000565573
1.59926
0.00447515
0.000995441
1.59828
0.00757004
0.0015966
1.59671
0.0122586
0.00246333
1.59437
0.0195906
0.00379004
1.59158
0.0309605
0.00584782
1.58941
0.0521492
0.00869328
1.59144
0.0821836
0.0136356
1.60838
0.126806
0.0197629
1.66983
0.187473
0.0250447
1.75097
0.187907
0.0301654
1.74474
0.126046
0.0270705
1.73033
0.0185802
0.0213796
1.72574
-0.00893088
0.0289664
1.71672
-0.0301051
0.0322936
1.70805
-0.0603242
0.0293872
1.698
-0.0951663
0.0173509
1.6853
-0.136377
-0.00338201
1.65787
-0.16585
-0.00715825
1.60505
-0.162873
0.01126
1.56852
-0.114087
0.0128631
1.61694
-0.0185774
-0.0237675
1.7513
0.0771164
-0.0659161
1.90304
0.0850597
-0.0672054
1.97607
-0.0152368
-0.0094411
1.941
-0.182505
0.0922126
1.94762
-0.58383
0.16154
2.22519
-1.11708
-0.0696347
-1.56041
-0.342502
1.60007
0.000519622
0.000211072
1.60001
0.00204537
0.000538272
1.5998
0.00398229
0.000940771
1.59943
0.0067067
0.0014752
1.59889
0.0107901
0.00223813
1.59831
0.0170425
0.00334905
1.59817
0.0263522
0.00495551
1.60031
0.0431535
0.00701789
1.60705
0.0649778
0.0106124
1.62492
0.0944633
0.0146453
1.66738
0.127431
0.017792
1.73275
0.103509
0.0191701
1.72988
0.113331
0.0156702
1.72204
0.0164302
0.0100693
1.71683
-0.0136502
0.0100535
1.70994
-0.0326839
0.00964982
1.70066
-0.0567101
0.00580226
1.69044
-0.0804402
-0.00447658
1.679
-0.106824
-0.0181817
1.65974
-0.128899
-0.01774
1.62678
-0.130255
0.000423085
1.5963
-0.098406
0.0150411
1.60557
-0.0392754
0.01173
1.6722
0.0117363
-0.00107853
1.75754
-0.00194891
0.00165174
1.77156
-0.079091
0.0499372
1.75799
-0.277664
0.109361
1.88779
-0.760936
0.0484761
2.2973
-1.24253
-0.28283
-1.52409
-0.547432
1.60011
0.00043963
0.000202306
1.60019
0.00168082
0.00051675
1.60028
0.00324131
0.000884009
1.60042
0.0054255
0.00136668
1.60073
0.00866522
0.0020369
1.60149
0.0135319
0.00295541
1.60334
0.0204678
0.00421623
1.60796
0.0329898
0.00569836
1.61698
0.0477335
0.00834028
1.63418
0.066479
0.010924
1.66417
0.0847187
0.0128951
1.69163
0.0635866
0.0125946
1.7145
0.0807669
0.00980099
1.71168
0.0139808
0.00537828
1.70676
-0.0114253
0.00284746
1.70072
-0.0270953
0.000631705
1.69197
-0.0446075
-0.00321721
1.68249
-0.0601215
-0.0108042
1.6734
-0.0770487
-0.0207375
1.65999
-0.0941633
-0.0213409
1.63796
-0.101043
-0.00707441
1.6147
-0.0838489
0.00895486
1.60608
-0.0478531
0.0174712
1.62406
-0.027383
0.0212334
1.63879
-0.0519664
0.0351678
1.60227
-0.127061
0.0844937
1.64874
-0.377457
0.0538805
1.90517
-0.854483
-0.161789
2.4223
-1.22318
-0.535305
-1.36448
-0.775324
1.60013
0.00032911
0.000197204
1.60033
0.00120985
0.000492558
1.60065
0.00230181
0.00083556
1.60119
0.00382279
0.0012793
1.60213
0.00606098
0.00187007
1.60384
0.00936423
0.00264551
1.60701
0.0138282
0.00364466
1.61306
0.0223173
0.00475091
1.62299
0.0312055
0.00670427
1.63892
0.0422647
0.00841001
1.66225
0.0519637
0.00956481
1.68023
0.0365485
0.00918637
1.70285
0.0516387
0.00662804
1.70368
0.0101972
0.00309017
1.69993
-0.00747892
-2.64854e-05
1.69444
-0.0185645
-0.00285832
1.68633
-0.0301492
-0.006222
1.67723
-0.0394415
-0.0115591
1.66941
-0.0493876
-0.019875
1.65995
-0.0605601
-0.0241397
1.64316
-0.0686623
-0.0154725
1.62263
-0.0618889
-0.00121886
1.60842
-0.0416498
0.00820322
1.60048
-0.0326872
0.0132523
1.55891
-0.0551481
0.0445122
1.50192
-0.148328
0.0781563
1.62129
-0.412996
-0.083163
1.98364
-0.789355
-0.426191
2.57965
-1.02084
-0.796932
-1.06141
-1.01711
1.60014
0.000206018
0.000191306
1.60043
0.000666095
0.000475136
1.60091
0.00122786
0.000804441
1.60171
0.00200819
0.00121868
1.60307
0.00315077
0.00175354
1.60539
0.00479696
0.00242538
1.60943
0.00672675
0.00322473
1.61613
0.0115622
0.00418479
1.62635
0.0154398
0.00565307
1.64129
0.0205706
0.00685724
1.66103
0.024759
0.00759212
1.6739
0.0166827
0.00710755
1.69534
0.0251641
0.00515228
1.69821
0.00538517
0.00207627
1.69543
-0.00352178
-0.00102084
1.69017
-0.00925363
-0.00390695
1.68252
-0.0154181
-0.00700684
1.67363
-0.019372
-0.0111943
1.6666
-0.0243012
-0.0180967
1.66004
-0.0295057
-0.0244801
1.64625
-0.0340576
-0.0206618
1.62502
-0.0314039
-0.00899818
1.60582
-0.0215218
-0.000628161
1.57679
-0.0155534
0.0121046
1.4981
-0.0316779
0.0552856
1.45881
-0.115155
0.00654874
1.6603
-0.304403
-0.308883
2.10447
-0.515029
-0.716729
2.75182
-0.61272
-1.05379
-0.604215
-1.25748
1.60014
0.000188636
1.60047
0.000467479
1.60103
0.000790282
1.60197
0.00119306
1.60353
0.00170722
1.6061
0.00233849
1.60985
0.0030671
1.61754
0.00394628
1.62784
0.00520497
1.64228
0.00619406
1.66037
0.00673778
1.67093
0.00619454
1.69166
0.00451436
1.69539
0.00173524
1.69316
-0.00119099
1.68803
-0.00403958
1.67975
-0.00710424
1.67153
-0.011155
1.66493
-0.0177153
1.65978
-0.0243265
1.64626
-0.0204383
1.62278
-0.00776056
1.59795
0.00347754
1.54203
0.040464
1.44267
0.0677231
1.45729
-0.129508
1.74793
-0.59438
2.24221
-1.0084
2.91093
-1.28068
-1.46203
1.60022
-7.36815e-05
0.000251636
1.60025
-0.00019001
0.000895585
1.60012
-0.000391422
0.0016511
1.59993
-0.000789198
0.00260925
1.59987
-0.00153111
0.00384916
1.60018
-0.00257961
0.00529408
1.60101
-0.0033371
0.00646209
1.60259
-0.0072878
0.0107993
1.60971
-0.0133423
0.0128162
1.62144
-0.0190166
0.0151253
1.63461
-0.0212546
0.0170431
1.64669
-0.0204819
0.0180971
1.66564
-0.0287728
0.0208533
1.67416
-0.0190321
0.0233758
1.67101
-0.0102715
0.0273403
1.65844
-0.00561945
0.0378888
1.64382
0.00262283
0.0328308
1.5956
0.0104481
0.045197
1.47995
0.0473964
0.147192
1.46844
0.189971
-0.192632
1.69137
0.264663
-0.947844
1.99914
0.164789
-1.16105
2.27384
0.0236812
-0.877351
2.48274
-0.0977417
-0.466948
2.63795
-0.185371
-0.0904654
2.7126
-0.219571
0.248655
2.66847
-0.207174
0.525816
2.51294
-0.168226
0.632838
2.23248
-0.0772114
0.700165
-0.109327
0.357699
1.60022
-0.000131551
0.000252628
1.60022
-0.00033949
0.000903691
1.60003
-0.000711959
0.00166643
1.59972
-0.00146037
0.0026355
1.59947
-0.00287695
0.00389529
1.59985
-0.00526507
0.00539383
1.60226
-0.00839931
0.00668362
1.60356
-0.0145461
0.0111157
1.61
-0.0260789
0.013007
1.62123
-0.0376789
0.0154492
1.63456
-0.0426549
0.0171128
1.64897
-0.0426853
0.0175441
1.66778
-0.0578041
0.0212528
1.67734
-0.0396292
0.0242136
1.67543
-0.0222437
0.0284888
1.66461
-0.0137198
0.037934
1.65127
-0.000216026
0.0401204
1.61361
0.015529
0.0443052
1.52456
0.067574
0.129896
1.50357
0.265636
0.00816924
1.68191
0.41951
-0.564113
1.96055
0.330396
-0.963413
2.21822
0.124931
-0.898957
2.40885
-0.0804691
-0.613991
2.5299
-0.239487
-0.297148
2.58794
-0.320587
0.0148684
2.56511
-0.332083
0.308055
2.45463
-0.30805
0.503551
2.23503
-0.151936
0.589087
-0.311323
0.442848
1.6002
-0.000171617
0.000258832
1.60014
-0.000427011
0.000928278
1.5998
-0.000911191
0.00171664
1.59924
-0.00192389
0.00272987
1.59858
-0.00389312
0.00407314
1.59814
-0.00735911
0.00579731
1.59902
-0.0126057
0.00764073
1.59986
-0.0214019
0.0114491
1.60571
-0.0386731
0.0138781
1.61723
-0.0572288
0.0165445
1.63514
-0.0689759
0.0177654
1.65268
-0.067645
0.0173852
1.67307
-0.089007
0.0222863
1.68107
-0.0605312
0.0271859
1.67934
-0.0374223
0.0340397
1.66943
-0.026729
0.0439308
1.6581
-0.0109314
0.0508743
1.63289
0.011247
0.0493332
1.56509
0.0624829
0.116142
1.54436
0.268132
0.11964
1.69743
0.479586
-0.263791
1.96756
0.462824
-0.74363
2.22923
0.263072
-0.873569
2.4172
0.0156954
-0.712796
2.52543
-0.200138
-0.45032
2.57351
-0.334608
-0.152636
2.55785
-0.394429
0.161192
2.44734
-0.394828
0.419028
2.24897
-0.200267
0.50341
-0.561348
0.491872
1.60017
-0.0001872
0.000273566
1.60001
-0.000428124
0.000955739
1.59948
-0.000939436
0.00178588
1.59856
-0.00208746
0.00286238
1.5973
-0.00441572
0.00431694
1.59587
-0.00870189
0.00626414
1.59499
-0.0157195
0.00867364
1.59438
-0.0271678
0.012334
1.59894
-0.050709
0.0152136
1.61058
-0.0777664
0.0182367
1.63403
-0.100818
0.0176932
1.65939
-0.0987223
0.0149824
1.67858
-0.120169
0.0243774
1.68648
-0.0840679
0.0325201
1.68481
-0.0567471
0.0438147
1.67719
-0.0458354
0.0550992
1.67011
-0.0313553
0.0640813
1.65768
-0.00273875
0.0587431
1.60663
0.0447142
0.102509
1.58101
0.229164
0.162772
1.70964
0.477381
-0.0695001
1.97368
0.551712
-0.542664
2.24857
0.40452
-0.809919
2.44759
0.149603
-0.758671
2.56467
-0.106382
-0.554715
2.61899
-0.296462
-0.269836
2.60899
-0.413943
0.0628325
2.49133
-0.434885
0.36028
2.30644
-0.255896
0.478277
-0.80477
0.503983
1.60012
-0.000172895
0.000305601
1.59985
-0.000325751
0.000977095
1.59908
-0.000760617
0.00186472
1.59772
-0.0018762
0.00302477
1.59567
-0.00429118
0.00461583
1.59291
-0.00898596
0.00683106
1.58972
-0.0171401
0.00976177
1.58679
-0.0312549
0.0136658
1.58884
-0.0611203
0.0168807
1.60028
-0.099299
0.0206245
1.6356
-0.144558
0.0168136
1.69043
-0.156152
0.0100225
1.68618
-0.12655
0.0246091
1.69341
-0.108053
0.0394848
1.69518
-0.0852816
0.0619901
1.69589
-0.0834428
0.0837151
1.69545
-0.0776222
0.105826
1.6888
-0.0445939
0.112463
1.64687
0.00872799
0.135655
1.61011
0.167657
0.19572
1.70969
0.438982
0.0494529
1.96494
0.604188
-0.385482
2.25484
0.526246
-0.721576
2.47694
0.290163
-0.762882
2.61419
0.0106944
-0.610504
2.68187
-0.230299
-0.339403
2.67315
-0.40089
0.00484327
2.54454
-0.444218
0.3298
2.37163
-0.335769
0.487073
-1.00727
0.472638
1.60006
-0.000126631
0.000338372
1.59968
-0.000115958
0.00101241
1.59866
-0.000356314
0.00193469
1.59679
-0.00124529
0.00320317
1.59382
-0.00340646
0.00495429
1.58943
-0.00796362
0.00748315
1.58363
-0.0164948
0.0108568
1.57757
-0.0331046
0.0154494
1.57462
-0.0672572
0.0184624
1.58537
-0.122017
0.0242396
1.65383
-0.220768
0.0125771
1.69346
-0.183747
-0.00463096
1.71088
-0.136956
0.0171731
1.7127
-0.123307
0.0538257
1.71453
-0.13587
0.110769
1.70114
-0.151866
0.169289
1.67121
-0.150392
0.219445
1.63408
-0.110554
0.238949
1.58519
-0.0480563
0.241982
1.55482
0.0900987
0.259459
1.65577
0.377726
0.117151
1.9285
0.617841
-0.286878
2.23965
0.619722
-0.641039
2.49085
0.415561
-0.736254
2.65286
0.12751
-0.621452
2.734
-0.152469
-0.363518
2.72231
-0.364399
-0.0176424
2.58277
-0.438159
0.32281
2.42652
-0.433526
0.487906
-1.15499
0.411678
1.60002
-4.98446e-05
0.000358955
1.59949
0.000195556
0.00108102
1.59824
0.000255479
0.00199861
1.5959
-0.00018992
0.00334195
1.59196
-0.0017352
0.00532524
1.58571
-0.00543865
0.00816524
1.57677
-0.0133096
0.0120968
1.56498
-0.0301356
0.0175635
1.55329
-0.0652981
0.0200353
1.55624
-0.140064
0.0285641
1.64091
-0.0632251
-0.00936553
-0.0851096
-0.0627349
-0.0916285
1.70351
-0.056334
-0.0485792
-0.0355167
-0.0556273
-0.024924
1.70972
-0.0208452
0.0176691
-0.0334551
-0.00573069
-0.0291767
1.69498
-0.0329542
0.144609
-0.0468665
-0.0336195
-0.0521417
1.59679
-0.166235
0.231374
1.48211
-0.179428
0.273702
1.37964
-0.168657
0.27673
1.31598
-0.131716
0.229338
1.29581
-0.0965211
0.190628
1.33742
-0.0096214
0.203134
1.52281
0.268707
0.0718502
1.84752
0.578924
-0.279028
2.19712
0.661626
-0.598789
2.48059
0.504796
-0.700783
2.66744
0.224591
-0.602988
2.75931
-0.0768176
-0.356098
2.74282
-0.316844
-0.0191369
2.60033
-0.430511
0.320987
2.46673
-0.538617
0.463034
-1.25048
0.337203
1.59998
5.20921e-05
0.000377857
1.59932
0.000586772
0.00114977
1.59785
0.00103846
0.00209008
1.59514
0.00120124
0.00344924
1.59037
0.00064606
0.0056128
1.58222
-0.00135121
0.00884711
1.56917
-0.00660148
0.013364
1.54914
-0.0204004
0.0206538
1.52377
-0.0515971
0.0235337
0.379665
-0.139918
0.0316572
0.374045
0.378697
0.373473
-0.000421278
0.388571
-0.0705079
-0.00111082
-0.017114
-0.40876
0.433052
-0.0663559
0.00327059
-0.0563054
-0.439139
0.437714
-0.00428838
0.0417151
-0.0264434
-0.432988
0.414356
-0.0160706
0.0284385
1.07198
-0.0401595
-0.00554569
-0.361845
-0.294744
-0.343593
-0.263304
1.00977
-0.122327
-0.0402341
1.01988
-0.142605
-0.0871102
1.07954
-0.133929
-0.161342
1.15599
-0.136708
-0.162412
1.25359
-0.0907426
-0.071956
1.4573
0.167606
-0.108199
1.78983
0.510173
-0.356012
2.15317
0.654548
-0.598346
2.45654
0.548976
-0.673511
2.661
0.289587
-0.57483
2.75899
-0.0162242
-0.336733
2.73919
-0.273267
-0.0167844
2.60536
-0.434025
0.309239
2.49527
-0.641365
0.416008
-1.30257
0.259547
1.59995
0.000170529
0.000391134
1.59922
0.00102327
0.00118925
1.59758
0.00192179
0.00219002
1.59458
0.00279964
0.00358037
1.58922
0.00349896
0.00588701
1.57991
0.0037541
0.00924042
1.56361
0.00273541
0.0148241
1.53396
-0.00289861
0.0244537
1.48591
-0.0194127
0.0295854
0.356755
-0.0948949
0.0602387
0.344966
0.356001
0.346195
-0.0781753
-0.00648168
0.00597533
0.0725917
0.090808
0.0907208
0.0903463
0.0910647
-0.018256
-0.109252
0.0243047
0.123269
-0.0291659
0.00908116
-0.112554
-0.0138618
-0.00628487
0.105674
0.0154807
0.0115781
-0.0767224
0.0209288
-0.0111545
0.0244695
-0.0206583
0.0632186
0.645282
0.164987
-0.777627
-0.159399
-0.110824
-0.137198
-0.0999984
0.793829
0.00104507
-0.695507
0.912826
-0.0548351
-0.631651
1.01105
-0.0729849
-0.563117
1.10671
-0.124987
-0.436857
1.23613
-0.133132
-0.30234
1.45461
0.0901123
-0.295319
1.77525
0.43466
-0.453944
2.12882
0.616656
-0.61656
2.43432
0.554287
-0.653622
2.64476
0.320891
-0.545976
2.74339
0.0219845
-0.316253
2.72279
-0.244918
-0.0171346
2.60296
-0.454115
0.288093
2.51283
-0.733514
0.359537
-1.32024
0.184495
1.59996
0.00029345
0.000394666
1.59923
0.00146095
0.00120614
1.59756
0.00281334
0.00222932
1.59448
0.00442581
0.00367966
1.58889
0.00649135
0.00605567
1.57913
0.0091701
0.00962229
1.56132
0.0130984
0.0157829
1.52734
0.0183759
0.0273723
1.46007
0.0241271
0.0397361
0.323349
0.0268002
0.0905156
0.317867
0.32092
0.31706
-0.0345244
0.00102567
0.0156037
0.068117
0.0658667
0.0702864
0.0675209
0.0698558
0.00651817
0.00233041
-0.000718392
-0.000797905
-0.00522792
-6.6708e-05
-0.00094462
-0.000119323
-0.000973656
0.000939057
-0.00271913
-0.00206301
0.00185728
-0.000260324
0.0005648
0.000552813
0.000574649
0.000556261
-0.00218599
0.000515575
-0.0029427
0.002949
-0.000299983
0.00196776
0.400595
0.360963
-0.738154
-0.0657626
-0.0520938
-0.051981
-0.0321217
0.598717
0.153704
-0.744624
0.740572
0.0620485
-0.672032
0.834144
0.00858846
-0.522705
0.946947
-0.110636
-0.363987
1.14248
-0.194458
-0.299505
1.42343
-0.00738683
-0.365112
1.76227
0.339207
-0.509549
2.1114
0.551146
-0.624093
2.41215
0.526877
-0.629643
2.62052
0.322055
-0.513645
2.71599
0.0370382
-0.293468
2.695
-0.235487
-0.0151384
2.58784
-0.488514
0.268121
2.51688
-0.810919
0.304095
-1.31174
0.112322
1.59999
0.000408954
0.000388297
1.59933
0.00185549
0.00118691
1.59781
0.00361678
0.00216657
1.59492
0.00590784
0.00363774
1.58963
0.00922576
0.00601608
1.58013
0.0141835
0.00968308
1.56276
0.0228051
0.0164546
1.52971
0.0378949
0.0279362
1.45918
0.0681685
0.0479201
0.313355
0.159411
0.111752
0.314489
0.312425
0.313514
-0.00413529
0.0461606
0.00963393
0.0238049
0.0601341
0.0588466
0.0596379
0.0603131
0.000358324
0.000691194
-8.98699e-06
-0.00036514
-0.000664186
-1.14261e-05
0.182858
0.269763
0.0845374
-0.0218695
-0.0196247
-0.00116027
-0.00610626
0.36555
0.137299
-0.140833
0.521017
0.059432
-0.225058
0.631534
-0.00670537
-0.162592
0.771026
-0.16553
-0.0787638
1.01692
-0.298001
-0.12693
1.35461
-0.144563
-0.301586
1.72775
0.207282
-0.487121
2.08339
0.454465
-0.595991
2.37946
0.470397
-0.589484
2.58139
0.297805
-0.472112
2.67057
0.0313857
-0.26304
2.64694
-0.244077
-0.00314064
2.55164
-0.533462
0.256952
2.50768
-0.872917
0.250372
-1.28398
0.0359784
1.60003
0.00050467
0.000365872
1.59947
0.00216796
0.0011189
1.59815
0.00426578
0.00206887
1.59566
0.00704337
0.00351578
1.59107
0.0113233
0.00583673
1.58287
0.0180087
0.00946987
1.56791
0.0301766
0.016099
1.54131
0.0512952
0.0272727
1.48571
0.0973829
0.0490125
0.337337
0.209377
0.0983091
0.348784
0.339612
0.34959
-0.0787218
0.0949083
0.0171501
-0.000544493
0.0743816
0.074915
0.0782345
0.0775936
-0.00148478
0.00120594
-0.00467829
0.00445765
-0.00120396
0.00171903
0.00142412
0.00258992
-0.000226977
-0.0022995
-1.60035e-05
-0.00147183
0.0011353
0.000420419