/*--------------------------------*- C++ -*----------------------------------*\
| =========                 |                                                 |
| \\      /  F ield         | OpenFOAM: The Open Source CFD Toolbox           |
|  \\    /   O peration     | Version:  2512                                  |
|   \\  /    A nd           | Website:  www.openfoam.com                      |
|    \\/     M anipulation  |                                                 |
\*---------------------------------------------------------------------------*/
FoamFile
{
    version     2.0;
    format      ascii;
    arch        "LSB;label=32;scalar=64";
    class       volVectorField;
    location    "80";
    object      U;
}
// * * * * * * * * * * * * * * * * * * * * * * * * * * * * * * * * * * * * * //

dimensions      [0 1 -1 0 0 0 0];

internalField   nonuniform List<vector> 
90398
(
(20.013 0.0103177 -0.0312892)
(20.1565 0.0253347 -0.0905744)
(20.4661 0.0260077 -0.114817)
(20.9586 -0.00655875 -0.121763)
(21.7648 -0.0924456 -0.155778)
(23.3097 -0.253208 -0.259283)
(26.3676 -0.455939 -0.501412)
(31.1017 -0.614352 -0.814713)
(36.5373 -0.718848 -0.93793)
(41.7839 -0.810685 -0.856835)
(46.3324 -0.84998 -0.639061)
(49.5605 -0.752925 -0.241664)
(50.5044 -0.434539 0.249808)
(48.9976 0.180981 0.481256)
(44.8692 1.18774 1.07848)
(36.419 2.66979 2.02011)
(26.9932 3.77565 0.0903678)
(24.132 4.11177 -3.63302)
(25.9306 4.07467 -5.94226)
(28.9942 3.92412 -6.60637)
(31.6528 3.75132 -6.35272)
(33.1021 3.58367 -5.67134)
(33.0065 3.42512 -4.81789)
(31.338 3.27144 -3.94118)
(28.3424 3.11104 -3.16589)
(24.4513 2.9257 -2.59555)
(20.5277 2.6804 -2.3413)
(16.9491 2.33425 -2.23515)
(15.0939 1.8565 -2.34059)
(12.1607 1.20403 -1.12119)
(20.0121 0.0319664 -0.0315805)
(20.1442 0.0808652 -0.0889033)
(20.4247 0.089759 -0.113296)
(20.8775 0.00836988 -0.14501)
(21.6534 -0.227112 -0.231909)
(23.2628 -0.661862 -0.426911)
(26.3993 -1.18528 -0.745154)
(31.0142 -1.61254 -1.0456)
(36.2663 -1.90954 -1.16515)
(41.3874 -2.16321 -1.09406)
(45.8717 -2.22591 -0.920879)
(49.3238 -1.87605 -0.642532)
(50.8689 -0.976298 -0.213998)
(50.0264 0.624871 0.126201)
(46.6674 2.97931 0.753761)
(39.2644 6.50262 2.22645)
(29.589 9.93187 1.52709)
(25.2121 11.3884 -1.91097)
(26.2987 11.5858 -4.70913)
(29.2855 11.355 -5.8718)
(32.1349 11.0004 -5.95637)
(33.8882 10.6094 -5.48515)
(34.1391 10.1983 -4.75045)
(32.8161 9.76062 -3.92258)
(30.1276 9.27299 -3.13856)
(26.4611 8.69913 -2.51466)
(22.6408 7.96205 -2.18539)
(19.0633 6.97913 -2.05799)
(17.1575 5.66962 -2.22512)
(14.3984 3.87401 -1.30788)
(20.0109 0.0570512 -0.0318767)
(20.1228 0.151053 -0.0845045)
(20.3535 0.189574 -0.114076)
(20.7271 0.100683 -0.167213)
(21.4301 -0.225743 -0.296287)
(23.12 -0.835789 -0.598885)
(26.4785 -1.55116 -1.06306)
(31.2543 -2.16464 -1.45155)
(36.5328 -2.60914 -1.59198)
(41.6448 -3.03764 -1.48654)
(46.23 -3.14339 -1.26531)
(49.8913 -2.51062 -1.00602)
(51.9718 -1.07589 -0.60346)
(51.5665 1.2809 -0.147734)
(48.6885 4.22919 0.440689)
(42.3013 8.31711 2.10496)
(32.7326 13.662 2.68564)
(26.6267 16.9382 -0.120192)
(26.5721 17.9359 -3.26909)
(29.2197 18.0154 -4.90259)
(32.1008 17.7518 -5.31917)
(34.0506 17.3107 -5.0626)
(34.5714 16.7396 -4.46329)
(33.5428 16.0496 -3.71455)
(31.135 15.2283 -2.95908)
(27.6892 14.2446 -2.32284)
(23.9866 13.0154 -1.9522)
(20.4123 11.4519 -1.80668)
(18.4381 9.45608 -2.02175)
(15.8077 6.68391 -1.35112)
(20.0097 0.0875525 -0.0317843)
(20.0968 0.243511 -0.0791186)
(20.2655 0.343354 -0.118408)
(20.5257 0.30451 -0.180777)
(21.154 -0.0208602 -0.386104)
(22.9885 -0.663992 -0.85991)
(26.6214 -1.43152 -1.48901)
(31.6073 -2.13446 -1.95451)
(36.8853 -2.71028 -2.0603)
(41.9424 -3.54177 -1.80643)
(46.8555 -3.94007 -1.43856)
(51.0016 -3.05422 -1.16246)
(53.5577 -1.0189 -0.845578)
(53.5397 2.08466 -0.360525)
(50.8202 5.45098 0.232296)
(45.1411 9.08403 1.81957)
(36.0112 14.9016 3.40112)
(28.5589 20.4487 1.62398)
(26.9789 22.8732 -1.66516)
(28.9223 23.6439 -3.75192)
(31.5885 23.7253 -4.50915)
(33.568 23.4049 -4.47322)
(34.2441 22.7813 -4.01917)
(33.4291 21.9024 -3.36459)
(31.2486 20.7841 -2.66241)
(27.9977 19.4177 -2.04674)
(24.4127 17.7388 -1.66709)
(20.8538 15.6592 -1.51476)
(18.8173 13.1058 -1.76233)
(16.3367 9.45773 -1.29017)
(20.0091 0.123977 -0.0309754)
(20.0717 0.360466 -0.0753105)
(20.1742 0.558738 -0.114182)
(20.3158 0.649825 -0.19777)
(20.9038 0.458896 -0.513969)
(22.9324 -0.0311223 -1.17919)
(26.8206 -0.712195 -1.95026)
(31.9395 -1.44335 -2.42836)
(36.9651 -2.24799 -2.38412)
(41.979 -4.06132 -1.79371)
(47.7277 -5.18322 -1.08288)
(52.654 -3.88564 -0.742047)
(55.6181 -0.938064 -0.686711)
(55.8353 3.04569 -0.408627)
(53.0071 6.83768 0.12768)
(47.6187 9.71867 1.47017)
(39.2056 14.2909 3.64751)
(30.9721 21.2298 3.27583)
(27.7278 25.9008 0.206251)
(28.5803 27.8871 -2.34435)
(30.7469 28.6217 -3.50793)
(32.5677 28.621 -3.73439)
(33.2767 28.0795 -3.44899)
(32.595 27.1048 -2.90384)
(30.5915 25.7563 -2.27245)
(27.5127 24.0617 -1.69902)
(24.0467 21.9964 -1.33398)
(20.5261 19.4789 -1.18926)
(18.4394 16.49 -1.46081)
(16.1341 12.1031 -1.16312)
(20.0091 0.164453 -0.0293488)
(20.0532 0.495671 -0.0703822)
(20.1042 0.836492 -0.104766)
(20.1562 1.15338 -0.219696)
(20.7688 1.26394 -0.658213)
(22.9954 1.10958 -1.48298)
(27.0533 0.616942 -2.32617)
(32.0937 -0.148855 -2.71763)
(36.4211 -1.59957 -2.38725)
(41.7639 -5.30565 -1.03903)
(47.5501 -7.50706 0.513888)
(51.9054 -5.48114 0.766592)
(54.7064 -0.89297 0.199527)
(55.6809 4.58944 -0.0254135)
(53.6879 8.68534 0.296432)
(49.0734 10.7783 1.26691)
(41.7944 12.9179 3.47047)
(33.547 18.9771 4.57304)
(28.8786 26.141 2.37546)
(28.3861 30.2645 -0.558944)
(29.7447 32.1038 -2.25908)
(31.1883 32.711 -2.83489)
(31.7924 32.431 -2.75703)
(31.1581 31.4793 -2.34133)
(29.2803 29.989 -1.79624)
(26.3536 28.0379 -1.28178)
(23.0132 25.6613 -0.950603)
(19.5629 22.7944 -0.83094)
(17.4444 19.4904 -1.12873)
(15.3269 14.5346 -0.992904)
(20.0098 0.204877 -0.026783)
(20.0493 0.635029 -0.0643965)
(20.0861 1.15431 -0.0946432)
(20.1153 1.78545 -0.233389)
(20.8184 2.35978 -0.76002)
(23.173 2.6816 -1.66086)
(27.2522 2.46636 -2.49105)
(31.7482 1.56779 -2.68126)
(35.2097 -1.29057 -1.85875)
(39.8213 -8.03337 1.07286)
(39.9785 -11.9443 3.20433)
(42.1977 -8.93717 1.93412)
(44.4529 -2.97505 0.350267)
(47.0776 4.40126 -0.387424)
(48.1688 9.22749 0.0278351)
(46.7124 11.2991 0.984035)
(42.2957 11.611 2.84121)
(35.5856 14.7245 5.03843)
(30.2169 22.5311 4.53327)
(28.4254 29.826 1.72999)
(28.7873 33.82 -0.624939)
(29.6078 35.3991 -1.7298)
(29.9229 35.6029 -1.93913)
(29.2281 34.8269 -1.68175)
(27.4163 33.3022 -1.23751)
(24.6192 31.1931 -0.791353)
(21.4143 28.5994 -0.509384)
(18.0734 25.487 -0.436993)
(15.9497 21.9969 -0.77385)
(14.0241 16.6693 -0.792582)
(20.0112 0.239704 -0.0238449)
(20.0658 0.75873 -0.0585137)
(20.1436 1.45676 -0.0799897)
(20.2457 2.44493 -0.214364)
(21.0796 3.58799 -0.753215)
(23.4778 4.48469 -1.64863)
(27.3117 4.67241 -2.39214)
(30.6608 3.74888 -2.32377)
(32.3049 -0.230691 -0.322833)
(31.6073 -9.08415 0.888658)
(22.4177 -18.0024 3.38016)
(25.5238 -14.7578 0.644903)
(26.4426 -6.78854 0.908)
(31.1973 2.41432 0.83873)
(36.7599 8.94842 0.778486)
(39.202 9.6988 1.37801)
(39.1354 9.39476 2.18953)
(35.7953 9.73831 4.19436)
(31.197 15.7296 5.72686)
(28.5338 25.4104 4.24082)
(27.9151 32.7553 1.56027)
(27.9945 36.4983 -0.228962)
(27.8275 37.5371 -0.87705)
(26.9228 37.0826 -0.845936)
(25.094 35.6435 -0.52712)
(22.3931 33.4153 -0.170517)
(19.3353 30.6774 0.0327868)
(16.1504 27.4667 0.0218683)
(14.0637 23.9154 -0.392608)
(12.3306 18.4364 -0.570032)
(20.0133 0.262992 -0.0207775)
(20.1011 0.844814 -0.0556502)
(20.2787 1.6806 -0.0680748)
(20.5539 2.99045 -0.157427)
(21.5431 4.70777 -0.618473)
(23.9175 6.23793 -1.42167)
(27.2663 6.96421 -2.04655)
(29.9529 6.31103 -1.77245)
(25.9286 2.1164 0.83021)
(14.8092 -11.5594 3.74704)
(-2.47684 -22.1554 -2.14147)
(12.6939 -10.2201 1.62244)
(4.40507 -8.39015 3.82765)
(2.66331 -3.35066 3.10586)
(17.2149 4.07771 1.27101)
(24.9583 4.46859 1.81782)
(30.4423 5.3707 1.90626)
(32.2651 5.59744 2.44218)
(30.5957 8.16539 4.68551)
(28.2542 17.531 5.76114)
(27.0142 28.2029 3.96034)
(26.3356 34.9433 1.7412)
(25.5608 37.6377 0.550449)
(24.3018 37.8188 0.257516)
(22.373 36.5355 0.393508)
(19.7664 34.3144 0.611689)
(16.8933 31.5794 0.698162)
(13.9356 28.4171 0.572599)
(11.8876 25.1505 0.0378564)
(10.3558 19.7814 -0.326452)
(20.0161 0.270321 -0.0182846)
(20.1498 0.876271 -0.0563046)
(20.4681 1.77602 -0.0660318)
(20.9941 3.28875 -0.0911225)
(22.1551 5.45887 -0.384769)
(24.4373 7.59893 -1.00352)
(27.3201 8.95636 -1.48005)
(28.9431 9.14478 -1.21323)
(23.6369 5.393 1.90907)
(-12.3688 -11.1688 -0.320474)
(-4.79322 -8.1209 1.39967)
(5.46316 -12.2087 -3.89319)
(7.2875 -13.4106 1.13729)
(-8.1227 -11.4163 0.116458)
(5.76542 -9.11588 -0.321785)
(17.7599 -7.89657 0.401981)
(26.4949 -4.4369 1.15949)
(30.5143 -0.138318 1.41942)
(29.8048 2.55602 2.18662)
(27.2317 8.52265 4.77444)
(25.7411 20.5028 5.43746)
(24.6292 30.6828 3.72569)
(23.2236 35.6465 2.16725)
(21.4947 36.8086 1.52198)
(19.3973 35.8884 1.42433)
(16.8735 33.8412 1.47009)
(14.2094 31.2623 1.42611)
(11.5385 28.301 1.18696)
(9.58219 25.4853 0.529222)
(8.22287 20.6422 -0.056496)
(20.0189 0.259999 -0.0166214)
(20.203 0.847898 -0.0611846)
(20.6739 1.72114 -0.0762834)
(21.4679 3.25527 -0.027251)
(22.8055 5.61866 -0.0961666)
(25.0013 8.22751 -0.446912)
(27.6226 10.2136 -0.768227)
(29.0388 11.3954 -0.721003)
(24.6849 10.584 1.93365)
(-12.1008 20.6082 -2.03891)
(16.3339 -3.63003 -7.49205)
(5.00991 -13.8564 0.500536)
(3.98715 -18.0251 0.212667)
(19.7688 -17.3475 -1.39261)
(31.3321 -15.4489 -0.76904)
(39.2162 -11.1312 0.152831)
(42.3544 -5.12733 1.06462)
(39.8225 0.48494 1.27419)
(31.6081 3.75137 2.28598)
(25.2324 11.9622 4.7794)
(22.8136 24.0655 4.93103)
(20.86 31.6927 3.59981)
(18.6294 34.1437 2.7165)
(16.3129 33.7459 2.40124)
(13.8614 32.0112 2.28053)
(11.4187 29.7399 2.1195)
(9.07995 27.1301 1.80107)
(7.27921 24.8985 1.06383)
(6.08756 20.9507 0.244275)
(20.0211 0.233953 -0.016313)
(20.2513 0.765573 -0.0670315)
(20.8535 1.53012 -0.0915985)
(21.8582 2.88566 0.0156673)
(23.3339 5.08418 0.20236)
(25.4127 7.81681 0.210093)
(27.9261 10.2219 0.0819062)
(29.6098 11.968 0.0105401)
(26.8424 12.4855 1.05001)
(15.2413 23.1923 2.38739)
(8.9647 12.6049 1.26576)
(-8.72409 3.5805 -2.15021)
(-3.09615 -6.73625 -7.94161)
(14.0753 -16.7699 -3.89975)
(35.1339 -21.0515 -1.68051)
(42.9564 -19.0754 -0.825569)
(48.5987 -14.1965 -0.132761)
(50.5551 -7.11751 0.6451)
(48.2784 0.772879 1.22298)
(39.7547 5.44442 1.18057)
(27.8763 8.03703 2.69314)
(21.3232 16.9248 4.65562)
(18.3879 26.2133 4.40362)
(15.7306 30.0877 3.59391)
(13.2182 30.2785 3.15696)
(10.8582 28.9315 2.91692)
(8.65914 27.0861 2.67361)
(6.68918 24.9723 2.32485)
(5.10356 23.4264 1.59878)
(4.17472 20.6057 0.572088)
(20.0224 0.196528 -0.0171939)
(20.2854 0.643863 -0.0724402)
(20.9808 1.25403 -0.106552)
(22.0882 2.28526 0.0259794)
(23.5092 3.91252 0.413239)
(25.321 6.14003 0.843257)
(27.5842 8.51449 1.05821)
(29.6747 10.3688 1.11213)
(31.3446 13.2623 1.58827)
(27.4627 17.3001 2.64529)
(28.766 19.2945 -0.111032)
(7.77246 9.7325 3.46462)
(15.9594 -5.3435 1.04182)
(31.0228 -16.963 -0.879521)
(42.9841 -23.5993 -0.784719)
(45.983 -21.5241 -0.477999)
(48.5553 -15.949 -0.00751802)
(49.4226 -7.77196 0.459526)
(48.03 1.51008 1.01805)
(42.0282 8.40089 0.974314)
(30.3072 9.6444 1.17901)
(20.1874 12.4866 3.17254)
(15.6335 20.3736 4.25333)
(12.6786 25.1029 3.94062)
(10.1267 25.8025 3.54675)
(7.95099 24.8397 3.26871)
(6.05458 23.4624 2.9996)
(4.48893 21.9228 2.66871)
(3.15182 21.1123 2.05385)
(2.68186 19.5564 0.90237)
(20.0237 0.153934 -0.0188425)
(20.301 0.501272 -0.0755126)
(21.0366 0.941965 -0.115975)
(22.1406 1.61245 0.0126561)
(23.2782 2.49171 0.476446)
(24.4567 3.57824 1.21673)
(26.0934 4.97571 1.87935)
(28.3306 6.45605 2.26379)
(31.0103 8.66141 2.29867)
(35.3988 12.4694 2.67624)
(40.3356 11.3449 2.21226)
(43.0668 0.24448 1.62792)
(42.5972 -12.549 0.850545)
(40.6089 -20.9209 -0.386209)
(39.1606 -23.738 -1.01978)
(37.981 -21.9212 -0.200408)
(36.3551 -16.1132 0.732796)
(34.9072 -7.16247 1.01382)
(35.4321 2.85498 1.16476)
(34.3889 11.0646 1.04304)
(26.8843 12.6409 0.646533)
(17.3467 11.459 1.63551)
(12.0558 15.598 3.27666)
(9.16546 19.9291 3.63824)
(6.89995 20.8313 3.4598)
(5.08148 20.1596 3.238)
(3.55935 19.2035 3.00753)
(2.39808 18.2629 2.73516)
(1.36928 18.1886 2.31749)
(1.65951 17.858 1.1675)
(20.0241 0.11151 -0.0199828)
(20.3009 0.359073 -0.078843)
(21.012 0.636477 -0.118485)
(22.0218 0.976767 0.0146721)
(22.7924 1.22558 0.460508)
(23.061 1.09547 1.20266)
(23.3961 0.67963 2.02239)
(24.7884 0.495137 2.69657)
(27.4539 1.45666 3.00411)
(31.9113 4.06484 3.07844)
(37.1636 3.06874 2.73886)
(38.783 -5.34415 2.28866)
(35.643 -14.5803 0.735031)
(30.5729 -19.2157 -1.87871)
(26.2518 -21.566 -1.03371)
(19.6275 -20.9143 1.61978)
(11.9895 -15.3055 1.98877)
(7.00452 -5.78954 0.988417)
(9.48276 4.01459 0.815989)
(16.7448 12.2721 0.839226)
(16.1348 14.0108 0.467571)
(10.4129 11.2976 0.614811)
(6.61123 12.2805 1.96938)
(4.62739 15.339 2.76534)
(3.10837 16.017 2.8652)
(1.89215 15.4943 2.77196)
(0.888228 14.8818 2.61048)
(0.230852 14.4857 2.44331)
(-0.149407 14.5781 2.33711)
(2.28053 15.2307 1.36168)
(20.0224 0.0742732 -0.0208151)
(20.2886 0.231364 -0.0822424)
(20.9341 0.3744 -0.113561)
(21.7424 0.448479 0.0300728)
(22.1073 0.234598 0.447051)
(21.5681 -0.631972 1.04013)
(20.4391 -2.39539 1.50779)
(20.2926 -4.70284 1.68162)
(21.7984 -5.79699 1.88201)
(24.6262 -4.33385 2.27124)
(27.6237 -4.32273 2.30198)
(26.3345 -8.53324 1.16955)
(20.4323 -12.0159 -2.49001)
(15.8201 -13.5312 -3.50521)
(8.53525 -18.7991 1.84021)
(-5.24515 -19.7965 3.33123)
(-15.0928 -13.996 0.436933)
(-17.7313 -5.04295 -1.37602)
(-14.0694 2.95685 -0.264032)
(-0.836107 10.1409 0.431731)
(1.76896 12.1098 0.348738)
(-0.691338 9.37745 -0.1349)
(-1.4698 9.81266 0.735555)
(-1.57271 11.6034 1.57452)
(-1.72436 11.759 1.87008)
(-1.89568 11.2614 1.93892)
(-2.06915 10.9011 1.94258)
(-2.1869 10.5518 2.02008)
(-1.43463 9.82281 2.13535)
(4.31167 11.0582 1.40238)
(20.0201 0.0447058 -0.0211177)
(20.2653 0.130938 -0.0853963)
(20.8335 0.177671 -0.105837)
(21.3891 0.0850051 0.0555144)
(21.2503 -0.426152 0.436053)
(19.9476 -1.67408 0.865164)
(17.7489 -4.04582 0.923626)
(16.8776 -7.34508 0.619643)
(16.3128 -9.09924 0.731807)
(15.2823 -7.88249 1.09407)
(13.4915 -6.38477 0.541697)
(9.28672 -6.01163 -2.42445)
(2.61877 -4.69125 -5.43903)
(6.18652 -8.4968 -0.128964)
(-10.6548 -17.868 4.42704)
(-25.5007 -18.038 1.40595)
(-30.5223 -13.6335 -1.14062)
(-29.9364 -7.05809 -1.64194)
(-27.0501 -0.0117917 -1.10833)
(-20.6012 5.6281 -0.574676)
(-15.9662 7.70554 -0.69845)
(-14.0898 6.94367 -0.940589)
(-11.7764 7.54121 -0.31853)
(-9.71726 8.24384 0.440018)
(-8.40102 8.08955 0.916827)
(-7.74539 7.74899 1.22524)
(-7.71242 7.50867 1.45959)
(-7.95172 6.92972 1.62553)
(-6.93298 6.15819 1.46946)
(-4.35443 6.81834 0.903568)
(20.0179 0.0234935 -0.0211177)
(20.2379 0.0621649 -0.0883345)
(20.7256 0.0538426 -0.100175)
(21.0429 -0.104245 0.0860967)
(20.4176 -0.687099 0.436988)
(18.3179 -1.96869 0.713869)
(15.3658 -4.50826 0.447059)
(13.6686 -7.71266 0.137422)
(9.35509 -8.79906 0.497957)
(4.4367 -6.03575 0.596072)
(-0.637868 -1.92138 -1.6794)
(-3.36704 1.13527 -4.10621)
(-2.31106 0.623593 -2.28888)
(-1.05027 -8.84163 3.6027)
(-25.0132 -14.5975 3.73171)
(-37.6029 -14.4741 0.43093)
(-42.4494 -12.0562 -1.65376)
(-43.4926 -7.84826 -2.1561)
(-41.5928 -2.73432 -1.95795)
(-37.0749 1.69513 -1.67747)
(-31.9665 3.83054 -1.56886)
(-27.7117 4.37969 -1.30915)
(-23.8887 5.01756 -0.65609)
(-20.8719 5.36622 0.0717285)
(-18.962 5.33329 0.645882)
(-17.9346 5.1669 1.02307)
(-17.4625 4.85694 1.21077)
(-16.8346 4.2075 1.20713)
(-14.8244 3.45095 0.922168)
(-12.2654 3.15639 0.554661)
(20.016 0.0109585 -0.0204913)
(20.2147 0.022941 -0.0893795)
(20.6364 -0.000684839 -0.0944903)
(20.7615 -0.13477 0.108104)
(19.7663 -0.576007 0.443371)
(16.9887 -1.54669 0.616726)
(13.5526 -3.52918 0.18146)
(10.1875 -5.66658 -0.129909)
(3.10246 -6.02296 -0.0710758)
(-1.35413 -2.68519 -0.163638)
(-3.53337 1.4752 -1.39009)
(-3.3316 4.14168 -2.69428)
(5.29429 1.70506 -0.330076)
(-7.6132 -6.53757 4.11775)
(-32.1463 -9.06075 3.69117)
(-45.2757 -9.03274 0.242609)
(-51.5933 -7.58104 -1.75807)
(-54.057 -5.24361 -2.15571)
(-53.3355 -2.43608 -2.00057)
(-50.0913 0.0306049 -1.71385)
(-45.9232 1.36287 -1.36587)
(-41.85 1.96633 -0.895805)
(-38.0576 2.4096 -0.337799)
(-34.9536 2.58985 0.159141)
(-32.6254 2.49028 0.466434)
(-30.8203 2.18026 0.541076)
(-29.2454 1.68732 0.413628)
(-27.3997 1.01587 0.140282)
(-24.6205 0.276632 -0.293479)
(-21.6911 -0.293782 -0.697878)
(20.0145 0.00347956 -0.0200761)
(20.1998 0.00520677 -0.0914272)
(20.5854 -0.00591768 -0.0914161)
(20.6061 -0.056266 0.118204)
(19.3977 -0.214293 0.448885)
(16.2385 -0.587739 0.537298)
(12.5963 -1.32033 0.0978723)
(7.79111 -2.03455 -0.416564)
(0.727909 -2.12294 -0.641352)
(-0.895076 -0.968907 -0.34327)
(0.90996 1.30101 -0.240183)
(1.67972 3.82765 -1.34461)
(13.5329 2.80494 -0.763367)
(-6.14136 -1.99147 4.29713)
(-34.6136 -3.09786 3.87726)
(-49.2008 -3.06341 0.238216)
(-56.3324 -2.61434 -1.7648)
(-59.6119 -1.88937 -2.17301)
(-59.8018 -0.992979 -2.08451)
(-57.5 -0.205864 -1.86928)
(-54.036 0.236932 -1.59224)
(-50.292 0.474341 -1.29831)
(-46.5925 0.64364 -1.03526)
(-43.028 0.722816 -0.86298)
(-39.6022 0.700203 -0.825568)
(-36.2924 0.600648 -0.927116)
(-33.0868 0.44737 -1.13351)
(-29.7352 0.247429 -1.40795)
(-25.7595 -0.000167455 -1.80391)
(-22.1946 -0.24477 -2.20544)
(20.0168 0.010324 -0.0981123)
(20.1735 0.0254405 -0.283943)
(20.6045 0.0343294 -0.430327)
(21.4159 0.0205673 -0.583618)
(22.9416 -0.0418894 -0.868116)
(25.9874 -0.164625 -1.46374)
(30.827 -0.327235 -2.32118)
(36.4545 -0.465129 -2.88935)
(41.6813 -0.570753 -2.74333)
(46.1179 -0.664999 -2.09504)
(49.4477 -0.69857 -1.15657)
(51.4166 -0.562219 -0.0371655)
(51.6703 -0.0863092 1.0982)
(48.6744 0.886575 2.39066)
(40.7548 2.02343 3.45684)
(32.3532 2.5774 0.981077)
(29.9012 2.67937 -4.77778)
(31.4099 2.72463 -9.54393)
(34.1435 2.82659 -11.742)
(36.7155 2.94929 -12.0051)
(38.346 3.05054 -11.1784)
(38.6356 3.10455 -9.81813)
(37.4927 3.10263 -8.26762)
(35.0342 3.04642 -6.76354)
(31.5396 2.93779 -5.50198)
(27.3591 2.77758 -4.61993)
(23.0777 2.5554 -4.1816)
(18.8921 2.25299 -3.90009)
(15.8643 1.86684 -3.62467)
(12.0908 1.38904 -1.75478)
(20.0151 0.0321264 -0.0984187)
(20.1688 0.0820011 -0.284977)
(20.5935 0.117527 -0.435727)
(21.3925 0.0863432 -0.626204)
(22.952 -0.0788042 -1.00521)
(25.9501 -0.395166 -1.71806)
(30.4764 -0.809344 -2.64133)
(35.6591 -1.18229 -3.17267)
(40.5973 -1.48689 -3.05664)
(44.9084 -1.77122 -2.4866)
(48.369 -1.8726 -1.70715)
(50.5986 -1.49962 -0.820574)
(51.3443 -0.348683 0.150925)
(49.8931 1.98842 1.43718)
(44.4819 4.96774 3.19287)
(36.6606 6.91917 2.89455)
(32.4966 7.47058 -1.48992)
(32.8732 7.68786 -6.71782)
(35.2121 8.02424 -9.93806)
(37.8065 8.44138 -11.0212)
(39.7003 8.81115 -10.7271)
(40.379 9.04301 -9.68256)
(39.6671 9.09978 -8.28843)
(37.6219 8.98171 -6.81678)
(34.4753 8.68939 -5.49408)
(30.5591 8.23834 -4.50004)
(26.4284 7.6069 -3.95384)
(22.3042 6.76147 -3.68009)
(19.2525 5.67665 -3.58458)
(15.4517 4.32959 -2.0925)
(20.0127 0.0570478 -0.0990261)
(20.1625 0.155821 -0.285635)
(20.569 0.24471 -0.445769)
(21.3565 0.225655 -0.704996)
(23.0185 0.0078347 -1.25696)
(26.1715 -0.425986 -2.22462)
(30.6774 -1.0045 -3.33464)
(35.6178 -1.53989 -3.85041)
(40.2936 -2.02491 -3.67761)
(44.4262 -2.55263 -2.99821)
(47.9735 -2.77247 -2.16535)
(50.5221 -2.16773 -1.36847)
(51.544 -0.461631 -0.532381)
(50.9156 2.72751 0.66744)
(47.4826 6.8523 2.732)
(40.738 10.1142 4.15187)
(35.202 11.3519 1.54775)
(34.19 11.8332 -3.6214)
(35.8644 12.4933 -7.6603)
(38.2341 13.3173 -9.52548)
(40.1663 14.0656 -9.77488)
(41.0453 14.5646 -9.07677)
(40.6229 14.7467 -7.88546)
(38.8943 14.5998 -6.51)
(36.0592 14.1592 -5.20804)
(32.4095 13.4385 -4.18227)
(28.4705 12.4296 -3.58704)
(24.4605 11.104 -3.32776)
(21.4469 9.42216 -3.38878)
(17.6855 7.31827 -2.23739)
(20.0112 0.087148 -0.100021)
(20.1575 0.256917 -0.285497)
(20.5313 0.431681 -0.45516)
(21.3216 0.485965 -0.817102)
(23.1456 0.304654 -1.62057)
(26.505 -0.14337 -2.93097)
(31.0179 -0.788824 -4.17989)
(35.8047 -1.44945 -4.67279)
(40.1757 -2.15921 -4.31759)
(44.1035 -3.14682 -3.30762)
(47.8817 -3.69326 -2.2722)
(50.9475 -2.856 -1.57725)
(52.3576 -0.528703 -0.990619)
(52.0251 3.35465 0.0304593)
(49.8016 8.16971 2.1262)
(44.4462 12.3536 4.67613)
(38.2254 14.5375 4.16654)
(35.6253 15.2057 -0.224473)
(36.306 16.1425 -4.82363)
(38.1653 17.4203 -7.48368)
(39.8989 18.6334 -8.33997)
(40.7965 19.4833 -8.04647)
(40.5365 19.8537 -7.11247)
(39.04 19.7471 -5.88956)
(36.4741 19.1997 -4.67206)
(33.0786 18.2529 -3.67537)
(29.3511 16.9205 -3.08272)
(25.4974 15.18 -2.85453)
(22.5776 13.0098 -3.04958)
(18.9541 10.2256 -2.2162)
(20.0114 0.123542 -0.101024)
(20.1527 0.387791 -0.278165)
(20.5004 0.692516 -0.473077)
(21.336 0.908921 -0.973534)
(23.3638 0.881018 -2.07572)
(26.9169 0.528794 -3.72415)
(31.3933 -0.112512 -5.03935)
(35.9552 -0.884672 -5.39385)
(39.8722 -1.9272 -4.65831)
(43.6215 -3.77368 -3.02447)
(48.007 -4.89677 -1.67502)
(51.8516 -3.6473 -1.26219)
(53.5798 -0.408986 -1.25988)
(53.0559 4.23036 -0.611729)
(51.2927 9.33333 1.37965)
(47.3893 13.8091 4.56872)
(41.3465 16.6688 6.13564)
(37.2916 17.7969 3.40774)
(36.659 18.8362 -1.28884)
(37.7232 20.5684 -4.77342)
(39.0344 22.3307 -6.37479)
(39.7889 23.6297 -6.59668)
(39.5766 24.2744 -5.99635)
(38.2536 24.2704 -4.99121)
(35.9195 23.6722 -3.90476)
(32.7722 22.5525 -2.98512)
(29.273 20.9584 -2.43757)
(25.615 18.8785 -2.26496)
(22.8318 16.33 -2.58458)
(19.4271 12.9781 -2.06622)
(20.0126 0.165223 -0.0999297)
(20.1542 0.54206 -0.264699)
(20.5043 1.0279 -0.50075)
(21.4444 1.49857 -1.15056)
(23.6981 1.74227 -2.54665)
(27.3746 1.58592 -4.42869)
(31.7325 1.01322 -5.69304)
(35.9218 0.126116 -5.76509)
(39.1316 -1.49015 -4.41133)
(42.8927 -4.68519 -1.64928)
(48.2862 -6.46186 0.118726)
(52.7264 -4.20569 -0.360158)
(54.2243 0.52583 -1.51125)
(53.0398 6.02221 -1.4064)
(51.2311 10.7837 0.547452)
(48.8345 14.8087 4.04986)
(44.0072 17.5131 7.25379)
(39.0578 19.2333 6.84604)
(36.9965 20.5203 2.898)
(37.0102 22.6044 -1.29625)
(37.6872 24.9935 -3.82753)
(38.14 26.8409 -4.72707)
(37.8657 27.8593 -4.55731)
(36.6537 28.0326 -3.82976)
(34.5198 27.4501 -2.91894)
(31.6173 26.2199 -2.11783)
(28.3646 24.4311 -1.65361)
(24.9428 22.0915 -1.56639)
(22.3344 19.2719 -2.01448)
(19.2113 15.4915 -1.81111)
(20.0145 0.207419 -0.0950421)
(20.1676 0.703197 -0.250056)
(20.568 1.40616 -0.525259)
(21.6746 2.20651 -1.28984)
(24.146 2.82507 -2.89941)
(27.843 2.96035 -4.82557)
(31.9863 2.52173 -5.94868)
(35.571 1.49108 -5.6127)
(37.8384 -1.00432 -3.32839)
(41.9298 -6.05939 1.60364)
(47.2659 -8.5787 2.87749)
(51.5454 -4.62374 -0.315836)
(51.9298 1.92108 -3.08095)
(49.5809 8.32124 -3.10869)
(47.588 11.9915 -0.547349)
(47.195 15.0925 3.31409)
(44.9364 17.0722 7.42074)
(40.533 18.7441 9.41275)
(37.3034 21.0227 7.24012)
(36.1713 23.6001 2.9088)
(36.011 26.5334 -0.640795)
(35.9769 29.033 -2.42659)
(35.5316 30.5111 -2.81977)
(34.3517 30.9367 -2.42705)
(32.3795 30.4359 -1.73062)
(29.7144 29.1591 -1.08015)
(26.7229 27.2452 -0.734069)
(23.5763 24.7254 -0.765379)
(21.1798 21.7365 -1.35561)
(18.3892 17.684 -1.4661)
(20.0169 0.243201 -0.0880024)
(20.1968 0.843326 -0.236588)
(20.7041 1.766 -0.516935)
(22.0286 2.93226 -1.32685)
(24.6892 3.98482 -2.99885)
(28.3315 4.48732 -4.82253)
(32.1323 4.28843 -5.72396)
(34.8467 3.23166 -4.89005)
(35.9579 0.281156 -1.12908)
(38.7227 -6.66467 4.11198)
(38.8413 -12.5415 6.64216)
(45.0414 -6.54851 -3.49721)
(46.0469 2.75427 -5.03497)
(44.3301 10.5689 -3.37448)
(39.1532 12.7506 0.61641)
(41.5937 13.6741 3.60061)
(42.7679 14.7106 6.97588)
(40.6397 15.6996 10.2258)
(37.3568 18.9857 10.6874)
(35.2755 23.4194 7.35841)
(34.2134 27.2707 3.14759)
(33.5184 30.2063 0.373978)
(32.7301 32.1796 -0.727857)
(31.477 32.9189 -0.74977)
(29.6108 32.5569 -0.309623)
(27.1581 31.3273 0.150403)
(24.4279 29.3637 0.337581)
(21.5966 26.7149 0.145941)
(19.4516 23.6474 -0.61689)
(17.0394 19.4859 -1.04369)
(20.019 0.26613 -0.0804796)
(20.2405 0.935721 -0.229529)
(20.8992 2.03249 -0.483628)
(22.4644 3.5349 -1.2244)
(25.2885 5.02637 -2.78299)
(28.8428 5.94974 -4.37253)
(32.2389 6.10027 -5.04092)
(34.5056 5.23057 -3.84643)
(33.9733 3.30776 -0.0754604)
(32.4851 -4.25738 10.6768)
(22.3208 -13.8697 -6.17345)
(29.5837 -4.83158 -9.93066)
(30.4995 7.59998 -4.72284)
(32.0968 14.2252 -0.42525)
(24.9492 10.7647 4.01567)
(30.6695 9.77469 5.03705)
(35.8021 10.3741 6.43316)
(37.5276 10.7905 8.76345)
(36.1652 13.8565 11.5033)
(34.0875 20.7043 10.9325)
(32.3905 26.9487 7.13696)
(30.9484 30.9438 3.57915)
(29.6258 33.2732 1.71675)
(28.1426 34.2524 1.21098)
(26.2736 34.0542 1.34189)
(23.9709 32.8617 1.56347)
(21.4943 30.8556 1.54996)
(19.015 28.1192 1.16594)
(17.2235 24.961 0.201356)
(15.2444 20.8416 -0.554856)
(20.0205 0.271738 -0.0744315)
(20.2917 0.96098 -0.231087)
(21.117 2.14506 -0.440707)
(22.9042 3.87954 -1.0018)
(25.8408 5.7452 -2.22599)
(29.3096 7.10721 -3.48398)
(32.36 7.67759 -3.94551)
(34.0884 7.32344 -2.66502)
(32.5089 6.4742 2.17692)
(24.6275 1.56778 10.2544)
(-15.03 0.684867 -10.6912)
(-38.3218 -6.20333 -2.9119)
(-13.8597 9.18468 -3.97407)
(11.5657 13.471 8.00197)
(9.38519 0.741367 4.52991)
(20.4161 -0.474648 4.43559)
(29.2683 1.26713 5.16139)
(33.9745 3.64698 6.1779)
(34.1625 6.70013 8.90674)
(32.1911 14.6914 11.7679)
(30.2822 24.5086 10.3591)
(28.2842 30.8019 6.80511)
(26.3035 33.8622 4.32082)
(24.4098 35.0272 3.32803)
(22.4257 34.878 3.11909)
(20.2322 33.6636 3.0711)
(18.0123 31.6167 2.83375)
(15.9199 28.8451 2.25149)
(14.5257 25.7074 1.08356)
(13.0924 21.7146 -0.0101287)
(20.0204 0.259515 -0.0704852)
(20.3418 0.914849 -0.243193)
(21.3142 2.0785 -0.408156)
(23.2761 3.88656 -0.711022)
(26.2801 5.98029 -1.44517)
(29.6801 7.70445 -2.25586)
(32.5693 8.69343 -2.52987)
(34.1255 9.02284 -1.47943)
(32.2671 10.7063 2.64996)
(22.6342 14.4647 3.03285)
(-4.11772 14.0383 -5.83355)
(16.6697 -11.7153 -0.17411)
(28.5962 -10.6793 0.898633)
(37.0101 -7.1495 2.34254)
(41.6554 -2.40865 3.89864)
(40.5017 2.0626 5.63852)
(33.8356 8.44276 9.30877)
(28.4675 19.7512 11.4373)
(25.4182 29.2105 9.40466)
(22.7633 33.6655 6.77365)
(20.3462 35.0827 5.39952)
(18.159 34.9006 4.87583)
(16.0453 33.6188 4.55977)
(14.0897 31.5446 4.09858)
(12.4227 28.8053 3.33353)
(11.4544 25.8247 1.99924)
(10.6794 22.0851 0.578685)
(20.0198 0.232447 -0.0685216)
(20.376 0.807171 -0.260599)
(21.4579 1.84359 -0.393911)
(23.5037 3.54786 -0.4216)
(26.4704 5.65801 -0.57077)
(29.7448 7.56053 -0.791529)
(32.6325 8.83826 -0.817873)
(34.3032 9.56307 -0.0928944)
(33.3824 12.7247 2.10179)
(30.919 19.2237 3.59728)
(-1.63376 -0.116915 13.0486)
(-29.8349 1.13757 -4.99348)
(-15.4331 -0.472607 -18.7385)
(8.3367 4.42804 -9.87249)
(32.6154 -19.0824 -2.12469)
(39.9634 -16.7996 -0.570378)
(45.1934 -11.5982 0.713391)
(48.1992 -4.8651 2.23677)
(47.6973 1.96542 3.77028)
(39.6412 7.35291 6.11366)
(28.6353 15.5745 9.89932)
(22.4638 26.1699 10.5643)
(18.8903 32.3836 8.64916)
(15.9573 34.2306 7.1683)
(13.551 33.9819 6.42993)
(11.5189 32.6133 5.89117)
(9.84547 30.5492 5.23662)
(8.647 27.9257 4.32601)
(8.12639 25.2382 2.89542)
(8.11605 21.9295 1.19134)
(20.0194 0.194758 -0.0679083)
(20.3921 0.664689 -0.277986)
(21.5319 1.49547 -0.391274)
(23.5163 2.89848 -0.191902)
(26.2706 4.76041 0.224354)
(29.3029 6.58067 0.707985)
(32.1412 7.9383 1.12149)
(34.1053 8.75679 1.76483)
(35.3677 11.8219 3.48996)
(36.5485 18.5464 4.46356)
(31.5112 15.8406 6.31808)
(20.9024 -0.866833 4.8117)
(27.3824 -11.6564 -1.74017)
(34.5365 -17.9058 -2.82869)
(41.4981 -23.028 -0.543502)
(43.505 -20.3215 0.253873)
(45.5599 -14.1517 0.823095)
(47.0162 -5.99445 1.44489)
(47.3174 2.80203 2.6098)
(41.742 9.47841 4.03176)
(29.1831 14.835 7.21161)
(19.3509 23.1986 9.93625)
(14.511 30.0387 9.48406)
(11.1942 32.2746 8.32352)
(8.66762 31.9651 7.55063)
(6.77481 30.5387 6.88615)
(5.41767 28.5439 6.11122)
(4.72148 26.1283 5.11766)
(4.65474 23.8594 3.69138)
(5.603 21.1505 1.79827)
(20.0198 0.151552 -0.0690162)
(20.3888 0.512403 -0.286686)
(21.5272 1.10563 -0.390795)
(23.3315 2.09152 -0.0633221)
(25.63 3.44806 0.782953)
(28.1546 4.84477 1.95246)
(30.7035 5.92339 2.98921)
(33.0614 6.57419 3.80126)
(35.2681 8.52082 4.57454)
(39.443 11.8356 5.53053)
(44.3641 9.83134 4.94507)
(46.2279 -1.07507 3.44627)
(44.4253 -13.1685 2.10573)
(41.3383 -21.2391 0.711701)
(36.9532 -24.0463 0.630858)
(33.9281 -21.4138 1.61135)
(33.6364 -14.6321 1.63444)
(34.3443 -5.49449 1.00649)
(36.4166 4.35728 1.48173)
(35.3197 12.1698 2.60553)
(25.7929 16.3027 4.95066)
(14.9657 21.3557 8.17205)
(9.26727 27.0933 9.07562)
(5.88146 29.2791 8.57345)
(3.48782 28.837 7.98999)
(1.86181 27.3642 7.33402)
(0.877739 25.4957 6.54504)
(0.701625 23.4258 5.56273)
(1.11756 21.6886 4.30087)
(3.42149 19.6629 2.37773)
(20.0199 0.109918 -0.0700231)
(20.3678 0.36009 -0.289003)
(21.4477 0.744155 -0.3738)
(23.0133 1.31702 0.0182057)
(24.6519 2.00019 1.06871)
(26.2146 2.56401 2.63781)
(27.8294 2.72624 4.18381)
(29.9266 2.5339 5.33196)
(32.6592 3.31312 5.99778)
(36.7697 5.4595 6.48377)
(41.5061 3.81727 6.19262)
(42.8683 -4.84913 5.30417)
(38.7338 -14.312 2.80431)
(28.9864 -20.2166 0.265468)
(17.7925 -23.0817 2.0349)
(12.1907 -20.7802 3.50283)
(11.5774 -13.0027 1.49585)
(12.6342 -3.26882 -1.17055)
(16.2263 6.26588 -0.709387)
(20.3334 14.0225 1.13683)
(16.0388 17.516 3.43242)
(7.50213 20.1285 6.22803)
(2.50371 23.9391 7.70103)
(-0.353331 25.4104 7.85838)
(-2.21923 24.707 7.5785)
(-3.32205 23.2241 7.05623)
(-3.76682 21.5454 6.36906)
(-3.41452 19.9035 5.56008)
(-2.24602 18.423 4.62069)
(2.0935 17.1793 2.89066)
(20.0195 0.0734112 -0.0700434)
(20.3381 0.226707 -0.290287)
(21.3061 0.442843 -0.337648)
(22.6013 0.688423 0.10188)
(23.5508 0.764009 1.184)
(23.8148 0.380921 2.71901)
(23.6874 -0.854069 4.15612)
(24.3379 -2.73825 5.11556)
(26.2978 -3.39707 5.77015)
(29.4695 -1.90192 6.3044)
(32.3568 -2.45174 6.14299)
(30.4309 -7.33572 4.03193)
(20.3317 -12.1729 -0.397761)
(3.2119 -16.9865 0.114958)
(-7.57817 -21.3687 5.01081)
(-10.8545 -18.1442 3.41568)
(-8.53084 -9.6316 -1.68078)
(-4.93114 -1.09423 -4.85761)
(-3.14044 6.3009 -2.73825)