/*--------------------------------*- C++ -*----------------------------------*\
| =========                 |                                                 |
| \\      /  F ield         | OpenFOAM: The Open Source CFD Toolbox           |
|  \\    /   O peration     | Version:  2512                                  |
|   \\  /    A nd           | Website:  www.openfoam.com                      |
|    \\/     M anipulation  |                                                 |
\*---------------------------------------------------------------------------*/
FoamFile
{
    version     2.0;
    format      ascii;
    arch        "LSB;label=32;scalar=64";
    class       volVectorField;
    location    "80";
    object      U;
}
// * * * * * * * * * * * * * * * * * * * * * * * * * * * * * * * * * * * * * //

dimensions      [0 1 -1 0 0 0 0];

internalField   nonuniform List<vector> 
84826
(
(20.0005 -0.000237093 0.000478974)
(20.0014 -0.000735907 0.0016089)
(19.9999 -0.00158619 0.00293551)
(19.9964 -0.00323093 0.00461557)
(19.9936 -0.0062311 0.00681812)
(19.995 -0.0113596 0.00964738)
(20.0066 -0.0197662 0.0131013)
(20.0383 -0.0325263 0.0170505)
(20.1055 -0.0508694 0.0209389)
(20.2241 -0.072563 0.0246965)
(20.4016 -0.0938084 0.028031)
(20.6224 -0.0982573 0.0316018)
(20.8222 -0.0771372 0.0383609)
(20.9199 -0.0461088 0.0483706)
(20.915 -0.019296 0.052089)
(20.8316 -0.00708326 0.0608932)
(20.5176 0.0231144 0.0875548)
(20.178 0.0909819 0.0320519)
(19.5914 0.175546 0.196303)
(17.6914 0.722063 0.521003)
(17.9214 1.34883 -0.790411)
(21.8326 1.24503 -2.48618)
(26.6642 0.691853 -2.71249)
(30.7304 0.09748 -2.05283)
(33.6277 -0.352253 -1.09259)
(34.7555 -0.572245 -0.119877)
(33.561 -0.604405 0.637328)
(31.5115 -0.452636 0.774664)
(28.3791 -0.369863 1.09389)
(25.8489 0.0142406 0.102027)
(20.0005 -0.000640918 0.000486722)
(20.0011 -0.0020095 0.00163054)
(19.9989 -0.00440061 0.00298098)
(19.9942 -0.00910192 0.00470386)
(19.9893 -0.0178249 0.00695836)
(19.9876 -0.0329061 0.00985843)
(19.9947 -0.0578898 0.0134119)
(20.0205 -0.096054 0.0175122)
(20.0824 -0.151648 0.0214916)
(20.1993 -0.217106 0.0255588)
(20.387 -0.284084 0.0288863)
(20.6332 -0.301052 0.0334502)
(20.8546 -0.240954 0.0421947)
(20.9565 -0.150941 0.0514837)
(20.939 -0.0668896 0.0538309)
(20.8554 -0.0154158 0.056637)
(20.5883 0.0664326 0.0858176)
(20.2598 0.24497 0.0490365)
(19.9312 0.384894 0.152912)
(18.4065 1.551 0.543234)
(18.13 3.21171 -0.119271)
(21.3382 3.29593 -1.58353)
(25.8744 2.12559 -2.19976)
(29.8178 0.715753 -1.98134)
(32.6533 -0.422407 -1.37312)
(34.1264 -1.05004 -0.556795)
(33.3785 -1.21605 0.216552)
(31.4997 -1.03404 0.581629)
(28.6258 -0.849887 0.868907)
(26.0131 -0.418909 0.274764)
(20.0004 -0.000901411 0.000500014)
(20.0005 -0.00285 0.00167682)
(19.997 -0.00640281 0.00307702)
(19.9897 -0.0135935 0.0048865)
(19.9808 -0.0273145 0.00729495)
(19.9726 -0.0516001 0.0104353)
(19.9705 -0.0926365 0.0142678)
(19.984 -0.156534 0.0186532)
(20.0348 -0.25202 0.0230392)
(20.1468 -0.364884 0.027531)
(20.3525 -0.489208 0.0305933)
(20.6499 -0.525108 0.0381036)
(20.9149 -0.427928 0.0505324)
(21.0275 -0.286605 0.0564606)
(20.9987 -0.147555 0.0551623)
(20.9033 -0.0366777 0.0507859)
(20.6896 0.0831847 0.082374)
(20.3778 0.346957 0.0737401)
(20.2115 0.505108 0.0801402)
(19.2803 1.46317 0.526601)
(18.6265 3.64689 0.407793)
(21.0355 4.39983 -0.687247)
(25.3107 3.31826 -1.58638)
(29.3705 1.62103 -1.77768)
(32.3624 0.115068 -1.48493)
(34.1298 -0.840046 -0.821581)
(33.7298 -1.21697 -0.0675912)
(32.0153 -1.33209 0.489738)
(29.1649 -1.0615 0.637802)
(26.4118 -1.08024 0.512086)
(20.0003 -0.000988724 0.000516691)
(19.9997 -0.00311663 0.00173995)
(19.9943 -0.00727894 0.00320681)
(19.9835 -0.0161067 0.00512405)
(19.9685 -0.0335634 0.00775862)
(19.9504 -0.0655009 0.0112828)
(19.934 -0.121391 0.0154976)
(19.9274 -0.211551 0.0203952)
(19.9597 -0.351496 0.0254819)
(20.0597 -0.522267 0.0300346)
(20.2919 -0.728443 0.0338688)
(20.6728 -0.778733 0.0502794)
(21.0024 -0.61995 0.0623372)
(21.1271 -0.43094 0.0482327)
(21.0891 -0.270271 0.0325458)
(20.9783 -0.144848 0.0287185)
(20.8054 -0.0284001 0.0630994)
(20.5467 0.246842 0.0985235)
(20.4453 0.500493 0.0433495)
(20.0146 1.07345 0.371731)
(19.2867 3.08417 0.66229)
(20.9039 4.54581 -0.00804206)
(24.8191 4.0474 -1.00501)
(28.9817 2.47751 -1.50923)
(32.2082 0.823853 -1.47335)
(34.2225 -0.384683 -0.96507)
(34.1872 -1.01928 -0.233352)
(32.7188 -1.55574 0.47136)
(29.864 -1.12749 0.468924)
(27.0558 -1.79724 0.797234)
(20.0003 -0.000854702 0.000535183)
(19.9987 -0.00262807 0.00181203)
(19.991 -0.0066378 0.00336951)
(19.9758 -0.0159292 0.00543592)
(19.9532 -0.0352256 0.00834643)
(19.9219 -0.0721096 0.0122967)
(19.8853 -0.140034 0.0169873)
(19.8488 -0.256063 0.0228588)
(19.8511 -0.445315 0.0278261)
(19.9234 -0.692183 0.0339451)
(20.2016 -1.02779 0.0444817)
(20.7223 -1.08607 0.073897)
(21.1317 -0.817133 0.0625332)
(21.235 -0.570364 -0.000101892)
(21.1621 -0.400957 -0.0387876)
(21.0487 -0.306869 -0.0249665)
(20.9574 -0.214324 0.0307297)
(20.8289 0.0507792 0.111205)
(20.7774 0.474332 0.0907036)
(20.6768 0.93071 0.244225)
(20.0952 2.34378 0.683165)
(20.9868 4.10194 0.417007)
(24.3786 4.3233 -0.497021)
(28.5432 3.17003 -1.19076)
(32.0121 1.57233 -1.35542)
(34.2371 0.219979 -0.988958)
(34.5466 -0.714068 -0.255088)
(33.272 -1.72005 0.472538)
(30.3233 -0.995486 0.42285)
(27.696 -2.80599 0.935387)
(20.0001 -0.00047317 0.000555395)
(19.9976 -0.00129319 0.00188466)
(19.9875 -0.00424725 0.0035509)
(19.9676 -0.0125376 0.00582239)
(19.9361 -0.0312387 0.00905663)
(19.889 -0.0692927 0.0134552)
(19.8255 -0.143541 0.0188029)
(19.7469 -0.282275 0.0259322)
(19.7002 -0.522925 0.0282418)
(19.7135 -0.877651 0.0429258)
(20.0695 -1.41316 0.0623025)
(20.8057 -1.43677 0.105874)
(21.2953 -1.02996 0.0776174)
(21.3464 -0.790949 -0.00790896)
(21.2813 -0.680218 -0.0396587)
(21.252 -0.724291 0.0303192)
(21.1937 -0.773036 0.182527)
(20.97 -0.634214 0.378525)
(20.6372 -0.198838 0.488117)
(20.2712 0.332598 0.540739)
(19.7867 1.42259 0.851377)
(20.4699 3.30087 0.76468)
(23.6127 4.2038 -0.0532271)
(27.8454 3.59136 -0.843198)
(31.5627 2.18609 -1.15003)
(34.0097 0.775596 -0.877159)
(34.6231 -0.490298 -0.152699)
(33.4124 -1.80945 0.486266)
(30.3967 -0.767932 0.502946)
(28.2583 -3.93913 0.902287)
(20.0001 0.000151768 0.000574806)
(19.9966 0.000877002 0.001954)
(19.9842 -0.000124898 0.00370969)
(19.9596 -0.00571906 0.00619401)
(19.9191 -0.0209753 0.00985013)
(19.855 -0.0547874 0.0148838)
(19.7576 -0.125999 0.0212756)
(19.6254 -0.275931 0.0292442)
(19.4877 -0.556268 0.0264584)
(19.4165 -1.09281 0.0601437)
(19.8308 -1.86268 0.0314965)
(20.901 -1.76405 0.208717)
(21.5058 -1.26425 0.350804)
(21.5246 -1.28978 0.30184)
(21.3325 -1.58888 0.248382)
(20.7148 -1.9271 0.38403)
(19.6292 -2.07185 0.611842)
(18.3418 -1.91239 0.741028)
(17.3634 -1.43256 0.723534)
(16.6539 -0.944214 0.675372)
(16.3492 -0.179374 0.848283)
(17.7945 1.74996 0.79587)
(21.6799 3.38341 0.106374)
(26.4549 3.47814 -0.64063)
(30.5806 2.45158 -0.977256)
(33.3265 1.09446 -0.723651)
(34.2155 -0.440519 -0.0490627)
(33.0667 -1.81485 0.493261)
(30.1649 -0.725946 0.56005)
(28.7842 -5.07757 0.79205)
(20 0.000984398 0.00058966)
(19.9958 0.00375983 0.00201639)
(19.9816 0.00549607 0.00383602)
(19.9531 0.00418152 0.00650059)
(19.9048 -0.00466569 0.0104918)
(19.8244 -0.027402 0.0166336)
(19.6905 -0.0844915 0.0247782)
(19.4951 -0.215873 0.0342486)
(19.1918 -0.501726 0.0345087)
(18.9928 -1.22269 0.0634388)
(19.3997 -1.82987 -0.0182789)
(20.7828 -2.69881 0.238617)
(21.9711 -2.30515 0.457943)
(21.5932 -1.89368 0.0890214)
(19.0723 -1.45983 -0.119691)
(16.9486 -1.65394 0.0438848)
(14.9667 -1.66949 0.0527165)
(13.8273 -1.42657 -0.214722)
(13.689 -1.17698 -0.465067)
(13.8485 -1.21445 -0.397646)
(13.9802 -1.09217 -0.0983095)
(15.6878 0.332479 0.0565761)
(19.8569 2.21467 -0.295216)
(24.9451 2.89833 -0.783848)
(29.3661 2.32629 -0.989842)
(32.3638 1.09238 -0.687063)
(33.4912 -0.571839 -0.0708993)
(32.5193 -1.83995 0.412931)
(29.9544 -1.05707 0.501944)
(29.3348 -6.09255 0.672262)
(19.9999 0.0019591 0.000599413)
(19.9953 0.0071193 0.00205261)
(19.9801 0.0122173 0.00393624)
(19.949 0.0162759 0.00669537)
(19.8964 0.0165364 0.0109878)
(19.801 0.0103447 0.0179365)
(19.6452 -0.0196474 0.0284778)
(19.3648 -0.0931708 0.0444667)
(18.888 -0.327306 0.0542172)
(18.2583 -0.931405 0.0884265)
(18.5339 -1.96454 -0.0161815)
(20.9143 -7.79774 -0.00304803)
(26.5557 -5.11767 -2.04078)
(23.1796 -0.235453 -1.74555)
(12.5369 2.48503 -1.38882)
(11.1062 1.70379 -1.54538)
(11.0069 1.13304 -1.84481)
(11.6461 0.812742 -2.01288)
(12.391 0.38743 -1.82289)
(12.8721 -0.375967 -1.30116)
(13.5044 -0.794964 -0.838099)
(15.4493 0.0913482 -0.722015)
(19.3233 1.64785 -0.8982)
(24.1525 2.45065 -1.13417)
(28.5042 2.12811 -1.15899)
(31.5551 0.963853 -0.791877)
(32.8207 -0.73127 -0.222626)
(32.103 -1.89325 0.239953)
(29.9199 -1.5953 0.399418)
(29.8402 -6.912 0.579325)
(19.9999 0.002984 0.000602842)
(19.9952 0.0106303 0.00206089)
(19.98 0.0193291 0.00396847)
(19.9483 0.0290883 0.00675206)
(19.895 0.0401427 0.0111986)
(19.7927 0.0514279 0.0188162)
(19.6287 0.0620376 0.0288328)
(19.2971 0.0574578 0.0617957)
(18.6669 0.00947938 0.0507427)
(17.7627 -0.219159 0.225408)
(16.8202 -1.50255 -0.1949)
(23.4166 -1.62755 -3.25153)
(28.1072 -0.763022 1.14243)
(20.1547 7.14491 -0.424589)
(7.99669 6.24574 -1.22463)
(7.83712 4.62288 -1.69121)
(8.78025 3.66811 -2.10012)
(9.87186 3.07878 -2.06765)
(10.494 2.23563 -1.5872)
(10.7139 0.818358 -0.953726)
(11.847 -0.259148 -0.729344)
(14.7622 0.25321 -0.963983)
(19.0162 1.56017 -1.2568)
(23.75 2.30619 -1.4109)
(27.9522 2.04119 -1.32563)
(30.9299 0.867536 -0.926087)
(32.2368 -0.823194 -0.40083)
(31.7778 -1.93728 0.0757653)
(29.8045 -2.15541 0.341777)
(30.166 -7.60233 0.53023)
(19.9999 0.00395921 0.000599174)
(19.9956 0.0139505 0.00204227)
(19.9813 0.0260907 0.00392216)
(19.9515 0.0414717 0.0066831)
(19.9005 0.0631171 0.0111705)
(19.8034 0.0928713 0.0185491)
(19.6455 0.147316 0.0317274)
(19.3126 0.220597 0.0581675)
(18.7189 0.398559 0.0784225)
(17.5584 0.703223 0.256345)
(15.9044 0.405769 -0.0535529)
(22.0272 -4.73897 -1.00621)
(5.38711 7.46839 -1.18315)
(6.11703 8.58317 0.176171)
(6.00822 6.79341 -0.43933)
(6.78644 5.42666 -1.01264)
(7.80719 4.5272 -1.0967)
(8.28867 3.31157 -0.58901)
(8.16337 1.26206 0.053351)
(9.77297 -0.500098 0.00170913)
(13.5189 -0.060129 -0.668851)
(18.3442 1.36447 -1.23899)
(23.2052 2.20982 -1.469)
(27.3369 2.00355 -1.37583)
(30.2189 0.817177 -0.989172)
(31.5265 -0.847283 -0.512256)
(31.268 -1.95975 -0.00225924)
(29.2739 -2.72529 0.403188)
(30.2543 -8.27897 0.513349)
(20 0.00478416 0.000587387)
(19.9964 0.0167273 0.00199998)
(19.9839 0.0317411 0.00381157)
(19.9579 0.0519556 0.0064661)
(19.9129 0.0823461 0.0108077)
(19.8306 0.128502 0.0181403)
(19.6922 0.213867 0.0309957)
(19.426 0.358211 0.0545876)
(18.9603 0.679108 0.0839431)
(18.1394 1.44651 0.181901)
(17.1358 2.26919 0.00719899)
(17.2512 5.98195 -1.74127)
(12.2866 5.68845 1.43279)
(1.00947 2.15846 0.830718)
(7.12611 4.97002 1.36329)
(7.80945 4.97158 0.998048)
(8.10637 4.47356 0.518611)
(8.63319 3.81072 0.216191)
(9.48413 2.62325 0.323069)
(10.5853 0.380667 0.709368)
(11.4017 -1.43176 0.741868)
(13.5761 -0.952097 0.0409889)
(17.7978 0.798242 -0.814876)
(22.4969 1.93749 -1.25473)
(26.4905 1.88172 -1.25437)
(29.2471 0.728703 -0.927385)
(30.5138 -0.869511 -0.515794)
(30.3242 -2.00393 0.0671956)
(28.1754 -3.42775 0.612431)
(30.2433 -9.06989 0.450193)
(20.0001 0.00537283 0.000569864)
(19.9975 0.0186513 0.00192921)
(19.9876 0.0356154 0.0036592)
(19.967 0.0591951 0.00620324)
(19.931 0.0953443 0.0102267)
(19.8687 0.152572 0.0168379)
(19.7636 0.255911 0.0278456)
(19.5893 0.438823 0.0474834)
(19.3162 0.818268 0.0722652)
(19.025 1.63917 0.141495)
(18.841 2.58498 -0.00749675)
(21.4561 5.55611 -0.109101)
(24.8877 2.23116 0.310961)
(21.6383 0.641545 0.67987)
(17.8445 0.266296 1.31889)
(16.3096 0.435507 1.40066)
(15.3268 0.619455 1.29058)
(14.9588 0.389998 1.09813)
(15.6575 -0.356499 0.853288)
(16.7453 -1.30414 0.663092)
(16.616 -1.99019 0.71447)
(16.3046 -1.49884 0.49359)
(18.2708 0.17949 -0.225616)
(21.9451 1.5187 -0.822339)
(25.4716 1.63963 -0.962493)
(27.9867 0.555538 -0.734667)
(29.0971 -0.919547 -0.388377)
(28.7814 -2.14588 0.35002)
(26.6172 -4.47573 0.887569)
(30.4153 -10.0245 0.202173)
(20.0002 0.00565624 0.000549577)
(19.9989 0.0195087 0.00184031)
(19.9921 0.037322 0.0034735)
(19.9776 0.0625112 0.00582087)
(19.9525 0.101097 0.00940479)
(19.9112 0.162898 0.0150354)
(19.8452 0.269557 0.0243392)
(19.7533 0.456601 0.0391374)
(19.6416 0.807442 0.0623785)
(19.6499 1.42033 0.09515)
(20.0226 2.52689 0.117715)
(21.5968 2.57389 0.107347)
(22.7262 0.979643 0.118839)
(22.3987 0.379992 0.172254)
(21.823 0.297809 0.369202)
(21.5212 0.18926 0.492848)
(21.3184 -0.0571995 0.512686)
(21.1133 -0.499511 0.477867)
(20.9392 -1.04287 0.359378)
(20.7936 -1.43955 0.198363)
(20.131 -1.56812 0.245553)
(19.0692 -1.16106 0.360162)
(19.3256 -0.00392508 0.106021)
(21.5698 1.13728 -0.35244)
(24.2916 1.29006 -0.55037)
(26.4086 0.27712 -0.428007)
(27.1662 -1.00035 -0.0919164)
(26.6222 -2.5988 0.831712)
(25.0401 -6.02543 0.962507)
(31.1007 -11.0166 -0.370025)
(20.0003 0.005602 0.000524422)
(20.0003 0.0191964 0.00174251)
(19.9967 0.0366934 0.00325586)
(19.9885 0.0615209 0.00534774)
(19.9745 0.0992707 0.008466)
(19.9528 0.159216 0.0132641)
(19.923 0.258347 0.0206717)
(19.8907 0.424317 0.03222)
(19.8863 0.699692 0.0488704)
(19.9776 1.11448 0.0697158)
(20.3825 1.68707 0.0867013)
(21.3326 1.8058 0.0967189)
(22.0401 0.795227 0.0824398)
(21.9214 0.0700041 0.0706987)
(21.6045 -0.133906 0.09906)
(21.4647 -0.299328 0.110767)
(21.398 -0.561249 0.0900865)
(21.2691 -0.887833 0.0575953)
(21.0611 -1.19922 0.0192498)
(20.841 -1.35484 -0.0254243)
(20.4398 -1.27342 0.0132999)
(19.7781 -0.906017 0.152055)
(19.6737 -0.135445 0.17793)
(20.9281 0.692264 -0.0034566)
(22.8109 0.758695 -0.129406)
(24.423 -0.133417 -0.0560556)
(24.6263 -1.21615 0.384797)
(24.2184 -3.70149 1.23862)
(24.0955 -7.85091 0.519042)
(32.5117 -11.7478 -1.29602)
(20.0004 0.00521053 0.000498742)
(20.0016 0.0177235 0.00164455)
(20.0012 0.0337635 0.00303053)
(19.9987 0.0564402 0.00490418)
(19.9948 0.0906174 0.00761543)
(19.99 0.143924 0.0116054)
(19.9879 0.228713 0.0173665)
(19.9975 0.361796 0.0259377)
(20.048 0.564598 0.0374646)
(20.186 0.836723 0.0509058)
(20.5268 1.15415 0.0593841)
(21.1481 1.2312 0.0604165)
(21.6594 0.651819 0.0473239)
(21.7101 0.124108 0.0284653)
(21.5388 -0.0870339 0.0277904)
(21.4034 -0.233605 0.027629)
(21.3034 -0.425997 0.0130131)
(21.1767 -0.638868 -0.0165675)
(21.014 -0.839417 -0.055487)
(20.8196 -0.975666 -0.0747403)
(20.5308 -0.948655 -0.0408918)
(20.1202 -0.723623 0.0476067)
(19.8855 -0.292405 0.148459)
(20.3349 0.159612 0.190224)
(21.3191 0.0617007 0.187183)
(22.2552 -0.597053 0.308316)
(21.8092 -1.78026 0.868083)
(22.4193 -5.36196 1.09392)
(24.1861 -9.34026 -0.493299)
(34.6273 -11.8905 -2.46899)
(20.0005 0.00450155 0.000474937)
(20.0028 0.0151686 0.00155308)
(20.005 0.0287536 0.00283427)
(20.0076 0.0478693 0.00452592)
(20.012 0.0763653 0.00687636)
(20.0206 0.119932 0.0101466)
(20.0383 0.186776 0.0146979)
(20.0758 0.286705 0.0209926)
(20.1562 0.429789 0.0290489)
(20.3143 0.606633 0.0371081)
(20.597 0.785812 0.0422756)
(21.021 0.796944 0.0399728)
(21.3975 0.474549 0.030263)
(21.5078 0.106941 0.0146985)
(21.4203 -0.111514 0.007195)
(21.3031 -0.262736 -8.92959e-05)
(21.1957 -0.41647 -0.0165205)
(21.0733 -0.563757 -0.0409514)
(20.9462 -0.696104 -0.0785574)
(20.8027 -0.810236 -0.102153)
(20.5786 -0.813958 -0.0713465)
(20.2924 -0.638894 -0.00921419)
(20.0676 -0.352499 0.0719966)
(20.0625 -0.208084 0.171503)
(20.2944 -0.456042 0.260238)
(20.3339 -0.919263 0.583187)
(19.446 -2.70854 0.994262)
(21.8235 -6.6976 0.256805)
(25.1698 -9.84508 -1.812)
(37.2509 -11.1868 -3.75653)
(20.0006 0.0035255 0.000454021)
(20.0037 0.0116745 0.00147462)
(20.0081 0.0219549 0.00267189)
(20.0145 0.0363916 0.004213)
(20.0253 0.0576966 0.00626445)
(20.0435 0.0896454 0.009001)
(20.0748 0.13736 0.0126859)
(20.1298 0.206527 0.0174619)
(20.2264 0.300701 0.0230624)
(20.3869 0.409328 0.0280617)
(20.6296 0.503453 0.0305388)
(20.9481 0.500867 0.02793)
(21.2366 0.324623 0.0205304)
(21.3576 0.0861707 0.00896296)
(21.321 -0.0833627 -0.000873118)
(21.2287 -0.196263 -0.0130116)
(21.1285 -0.293787 -0.0303973)
(21.0115 -0.379874 -0.0480594)
(20.8937 -0.456697 -0.0771208)
(20.7859 -0.546772 -0.114409)
(20.6163 -0.596692 -0.105626)
(20.3742 -0.509174 -0.0538803)
(20.1368 -0.323627 0.00391419)
(19.9659 -0.30498 0.0637275)
(19.7498 -0.524271 0.23929)
(18.8698 -1.18874 0.7048)
(18.0793 -3.54921 0.614551)
(22.3035 -6.97404 -0.983757)
(26.7354 -9.02389 -3.19911)
(40.1538 -9.45207 -5.09171)
(20.0006 0.00237084 0.000441172)
(20.0042 0.00759341 0.00142536)
(20.0101 0.0140297 0.00256508)
(20.0192 0.0230332 0.00399781)
(20.0341 0.0362068 0.00585459)
(20.0585 0.0556403 0.00826194)
(20.0983 0.0841571 0.0113545)
(20.1634 0.124761 0.0151431)
(20.2676 0.178031 0.0192516)
(20.4254 0.236063 0.0226297)
(20.6437 0.281754 0.0237562)
(20.9064 0.277935 0.0213232)
(21.1422 0.187718 0.0156662)
(21.2599 0.0539669 0.00673073)
(21.2502 -0.0506733 -0.00365138)
(21.1774 -0.119884 -0.0165313)
(21.0854 -0.174437 -0.0322554)
(20.9718 -0.223364 -0.0473468)
(20.8539 -0.268796 -0.0680721)
(20.7687 -0.322906 -0.106383)
(20.6462 -0.364321 -0.119273)
(20.422 -0.329647 -0.085322)
(20.1247 -0.235318 -0.0406572)
(19.8569 -0.211059 0.044992)
(19.2311 -0.386142 0.321806)
(17.647 -1.38256 0.623677)
(17.8009 -3.48833 -0.210683)
(23.5325 -5.64672 -2.35954)
(28.6591 -6.63994 -4.54513)
(43.0653 -6.54951 -6.40037)
(20.0006 0.00088129 0.000435346)
(20.0044 0.00273634 0.00140274)
(20.011 0.00495847 0.00251626)
(20.0215 0.00804188 0.00390461)
(20.0384 0.0125221 0.00569366)
(20.0657 0.0190624 0.00796431)
(20.1096 0.0285596 0.0107661)
(20.1792 0.0419779 0.0140761)
(20.2863 0.0592176 0.0175906)
(20.442 0.0774698 0.0203663)
(20.6486 0.0913412 0.0208691)
(20.8865 0.0897467 0.0184898)
(21.0975 0.0617335 0.0134671)
(21.2112 0.0185265 0.00608488)
(21.2137 -0.0166594 -0.00371999)
(21.1522 -0.0390944 -0.0162548)
(21.0648 -0.055288 -0.0313034)
(20.9498 -0.0706829 -0.0473009)
(20.8271 -0.0864499 -0.0662718)
(20.7569 -0.104517 -0.0996686)
(20.6553 -0.117262 -0.115162)
(20.4107 -0.103476 -0.0909735)
(20.0561 -0.0697691 -0.0410165)
(19.6924 -0.0434509 0.15387)
(18.4588 -0.146186 0.44893)
(16.7456 -0.683213 0.388537)
(18.4738 -1.55392 -1.30352)
(25.1983 -2.2815 -3.72234)
(30.5258 -2.54998 -5.63525)
(45.5237 -2.42461 -7.46009)
(20.0005 -0.000229273 0.0014713)
(20.0014 -0.000707265 0.00475997)
(19.9998 -0.00153471 0.00861108)
(19.9963 -0.0031522 0.01351)
(19.9936 -0.0061302 0.0199265)
(19.995 -0.0112428 0.0282446)
(20.0065 -0.019656 0.0385557)
(20.0377 -0.0324188 0.0507301)
(20.1043 -0.0510653 0.0640601)
(20.2226 -0.0730902 0.0774397)
(20.4016 -0.0945181 0.0884611)
(20.6286 -0.0987289 0.0976587)
(20.8356 -0.0769291 0.114764)
(20.943 -0.0475086 0.138618)
(20.9571 -0.0261993 0.156876)
(20.8376 -0.0126154 0.216042)
(20.5873 0.0234128 0.205406)
(20.3638 0.0571518 0.126804)
(19.1682 0.275311 0.834663)
(17.9066 0.931607 -0.272694)
(19.4826 1.06707 -4.45504)
(23.211 0.520942 -6.30775)
(26.995 -0.0858401 -5.11036)
(29.9654 -0.56465 -2.93024)
(31.9756 -0.881968 -0.74107)
(33.5492 -0.978548 1.22319)
(33.6176 -0.894327 2.67935)
(32.8892 -0.657174 3.04835)
(29.6378 -0.305211 3.52848)
(26.6101 -0.137182 1.1947)
(20.0005 -0.000623018 0.00148803)
(20.0011 -0.00193889 0.00480908)
(19.9989 -0.00426787 0.00870442)
(19.9943 -0.00888328 0.0136731)
(19.9897 -0.0174891 0.0201826)
(19.9881 -0.0324342 0.0286475)
(19.9953 -0.0573207 0.0391611)
(20.0208 -0.0954492 0.0517513)
(20.0822 -0.151703 0.0651971)
(20.1989 -0.217693 0.0789139)
(20.3883 -0.285034 0.0891271)
(20.6415 -0.30098 0.0991766)
(20.8694 -0.239767 0.119843)
(20.9754 -0.155433 0.147149)
(20.9764 -0.08511 0.16399)
(20.8774 -0.031823 0.209722)
(20.6455 0.0649909 0.244328)
(20.461 0.15824 0.170226)
(19.6462 0.587196 0.697512)
(18.501 1.97789 0.53398)
(19.6503 2.71146 -2.30094)
(22.9237 1.79871 -4.83754)
(26.4325 0.386398 -4.92439)
(29.206 -0.877608 -3.59256)
(30.8824 -1.78844 -1.86751)
(31.8881 -2.17813 -0.0481791)
(32.0608 -2.14359 1.55484)
(31.766 -1.84223 2.47403)
(29.2574 -1.01358 2.88404)
(27.0988 -1.20733 1.79361)
(20.0004 -0.000873828 0.00152266)
(20.0005 -0.00273677 0.00493381)
(19.997 -0.00619679 0.00896336)
(19.9899 -0.0132684 0.0141603)
(19.9813 -0.0267754 0.0210719)
(19.9732 -0.0507389 0.0301223)
(19.9712 -0.0915874 0.041404)
(19.9841 -0.155607 0.0552202)
(20.034 -0.251866 0.0692034)
(20.1455 -0.36546 0.0831913)
(20.3545 -0.490712 0.0913106)
(20.6597 -0.52243 0.106365)
(20.9283 -0.427901 0.134294)
(21.0405 -0.306762 0.162151)
(21.0322 -0.193431 0.179096)
(20.9443 -0.0873958 0.221316)
(20.7323 0.0722746 0.300817)
(20.5814 0.220502 0.235595)
(20.0883 0.622257 0.574152)
(19.0771 2.19828 0.979573)
(19.9297 3.49183 -0.693018)
(23.0255 2.94813 -3.34485)
(26.5668 1.33352 -4.48518)
(29.3491 -0.379126 -3.97333)
(30.9728 -1.75348 -2.6677)
(31.6872 -2.52002 -0.960429)
(31.8792 -2.78228 0.784506)
(31.6933 -2.7168 2.12799)
(29.1361 -1.48235 2.30699)
(27.5913 -3.06575 2.34504)
(20.0004 -0.000952202 0.00156922)
(19.9997 -0.00296809 0.00510472)
(19.9943 -0.00699636 0.00931331)
(19.9837 -0.0156625 0.0148222)
(19.9691 -0.0328282 0.0223313)
(19.9512 -0.064293 0.0322863)
(19.9346 -0.119973 0.0448077)
(19.9271 -0.210255 0.0602752)
(19.9582 -0.350874 0.0740004)
(20.0579 -0.52183 0.0885478)
(20.296 -0.727376 0.0932178)
(20.6829 -0.764545 0.121191)
(21.0041 -0.623973 0.157336)
(21.1219 -0.494725 0.174634)
(21.1141 -0.381958 0.193276)
(21.0446 -0.264062 0.248213)
(20.879 -0.0843884 0.358955)
(20.7729 0.127755 0.327143)
(20.5337 0.479205 0.462839)
(19.6575 1.95311 1.09376)
(20.1606 3.63741 0.334013)
(23.0645 3.78218 -2.06179)
(26.723 2.41022 -3.87944)
(29.6771 0.521317 -4.07017)
(31.4595 -1.23195 -3.1634)
(32.1962 -2.42929 -1.58331)
(32.5199 -3.09729 0.292261)
(32.2404 -3.20648 1.85386)
(29.7418 -1.83419 2.05062)
(28.4116 -4.97692 2.64664)
(20.0003 -0.000806612 0.00162532)
(19.9987 -0.00245305 0.0052966)
(19.9911 -0.00629391 0.00972663)
(19.9762 -0.0153527 0.0156445)
(19.954 -0.0342687 0.0238423)
(19.923 -0.0706119 0.0349349)
(19.886 -0.138317 0.0491685)
(19.8476 -0.253973 0.0661705)
(19.8499 -0.445166 0.0775495)
(19.9227 -0.689661 0.0966185)
(20.2111 -1.01709 0.09379)
(20.7306 -1.04265 0.154424)
(21.093 -0.809728 0.214716)
(21.1908 -0.663667 0.224294)
(21.2199 -0.55988 0.254746)
(21.2423 -0.470707 0.356077)
(21.1997 -0.323578 0.531234)
(21.1358 -0.0489826 0.618752)
(20.9848 0.359686 0.656999)
(20.1887 1.59415 1.18753)
(20.2795 3.47301 0.956832)
(22.9077 4.30071 -1.0745)
(26.6963 3.42191 -3.21587)
(29.928 1.57543 -3.93483)
(31.9867 -0.431019 -3.37952)
(32.9197 -2.04607 -1.92199)
(33.4013 -3.12514 0.0239141)
(32.8615 -3.40117 1.64447)
(30.5551 -2.28578 2.1007)
(29.1876 -6.79572 2.58156)
(20.0002 -0.000414686 0.00168419)
(19.9976 -0.00108332 0.0054969)
(19.9877 -0.00387183 0.0101477)
(19.9681 -0.0119057 0.0165079)
(19.9372 -0.0300658 0.0254864)
(19.8903 -0.0674398 0.0379439)
(19.8263 -0.141037 0.0543716)
(19.7445 -0.278838 0.0724825)
(19.7012 -0.524912 0.077786)
(19.7153 -0.871045 0.10099)
(20.102 -1.41609 0.0825891)
(20.8189 -1.35906 0.248937)
(21.2143 -0.955242 0.393705)
(21.3604 -0.789938 0.439391)
(21.5206 -0.702199 0.528067)
(21.4713 -0.701927 0.767465)
(21.13 -0.658045 1.0837)
(20.6554 -0.391185 1.27768)
(20.1682 0.0906472 1.28468)
(19.4267 1.14832 1.56766)
(19.5682 3.13256 1.38715)
(22.2797 4.57885 -0.433641)
(26.3436 4.27347 -2.66294)
(29.9473 2.59825 -3.67174)
(32.3456 0.449843 -3.35331)
(33.5493 -1.51061 -1.99265)
(34.1147 -2.94156 -0.0779795)
(33.2999 -3.39905 1.54292)
(31.2069 -2.89025 2.20028)
(29.8033 -8.21378 2.27727)
(20.0001 0.000222707 0.00173844)
(19.9966 0.00110092 0.00569333)
(19.9845 0.000285049 0.0105698)
(19.9604 -0.00510138 0.0172476)
(19.9206 -0.0197705 0.0271793)
(19.8568 -0.0525321 0.0411283)
(19.7588 -0.121555 0.0607469)
(19.621 -0.269896 0.0794612)
(19.4914 -0.553503 0.0772636)
(19.4139 -1.08158 0.0804213)
(19.9061 -1.95814 0.037009)
(20.9609 -1.52624 0.406119)
(21.5199 -0.960467 0.74294)
(21.7176 -1.12962 0.937743)
(20.8309 -1.31113 1.05297)
(19.3029 -1.44915 1.26032)
(17.7977 -1.39729 1.3805)
(16.7363 -1.02039 1.22144)
(16.1731 -0.520648 1.00713)
(16.06 0.291646 1.2787)
(17.3932 2.37458 1.17663)
(20.9939 4.47066 -0.408424)
(25.5987 4.79461 -2.43766)
(29.6423 3.41424 -3.43628)
(32.4129 1.25337 -3.19423)
(33.8839 -0.930622 -1.90847)
(34.4474 -2.62024 -0.115719)
(33.4554 -3.30661 1.48396)
(31.6056 -3.64078 2.15358)
(30.2865 -9.15917 1.90477)
(20 0.00106501 0.00178303)
(19.9958 0.00399111 0.0058551)
(19.9819 0.00589576 0.0109524)
(19.9541 0.00478624 0.0179805)
(19.907 -0.0034374 0.0285896)
(19.8276 -0.0257454 0.0441356)
(19.6927 -0.0780431 0.0666189)
(19.4943 -0.207976 0.0939867)
(19.1857 -0.47475 0.0833853)
(18.9747 -1.22167 0.0755214)
(19.1894 -2.12502 0.0301251)
(21.0193 -2.42359 0.222936)
(21.9834 -0.558088 1.27582)
(21.5623 -1.01857 0.680477)
(14.2854 -0.669646 -0.290934)
(12.7285 -0.889445 -0.352665)
(12.4805 -0.924676 -0.650661)
(13.0254 -0.814301 -1.1117)
(13.9029 -0.804527 -1.16282)
(14.7452 -0.395834 -0.453049)
(16.4643 1.5762 -0.0670915)
(20.1675 4.05171 -1.09183)
(24.9152 4.91719 -2.59657)
(29.2024 3.90848 -3.33429)
(32.2595 1.85606 -3.03387)
(33.9205 -0.42291 -1.81149)
(34.4302 -2.27832 -0.176885)
(33.4089 -3.27253 1.38641)
(31.8484 -4.43942 1.9801)
(30.6751 -9.69297 1.5393)
(19.9999 0.00204889 0.00181239)
(19.9954 0.00734298 0.00595559)
(19.9805 0.0125747 0.0112185)
(19.9503 0.0167745 0.0184968)
(19.8987 0.0175883 0.030191)
(19.8072 0.0118574 0.0459877)
(19.648 -0.0118251 0.0747983)
(19.382 -0.0870596 0.111048)
(18.8666 -0.272849 0.122074)
(18.1792 -0.898906 0.229263)
(18.1278 -2.63783 -0.149714)
(23.5147 -3.73366 1.17564)
(21.6522 1.06623 1.56239)
(13.7578 2.24419 -2.16234)
(7.16484 0.48834 -4.19405)
(9.00594 -0.448867 -4.0305)
(10.676 -0.761232 -3.90536)
(11.9671 -0.902795 -3.52143)
(13.0562 -1.18772 -2.71932)
(14.3168 -0.95375 -1.75941)
(16.4223 0.947013 -1.34115)
(20.0431 3.54668 -1.95568)
(24.5893 4.76138 -2.91403)
(28.8636 4.09677 -3.3305)
(32.0355 2.2148 -2.92088)
(33.7726 -0.0637112 -1.75689)
(34.2151 -2.01438 -0.266704)
(33.2806 -3.35536 1.26546)
(31.9572 -5.17205 1.78018)
(30.9791 -9.92625 1.19615)
(19.9999 0.00308112 0.00182056)
(19.9953 0.0108439 0.00598977)
(19.9804 0.0196161 0.0113027)
(19.9498 0.0295114 0.0187455)
(19.8973 0.0408428 0.0309839)
(19.8007 0.0529989 0.0483921)
(19.6348 0.0662875 0.081321)
(19.3258 0.0741807 0.129572)
(18.6893 0.0368236 0.196933)
(17.4599 -0.188137 0.429833)
(15.5757 -1.44513 0.0350262)
(-0.339258 -5.07923 -8.86912)
(5.93622 5.05052 -1.06709)
(6.71352 5.53251 -0.70876)
(3.70768 1.45372 -3.59219)
(6.34663 0.16921 -3.96481)
(8.4272 -0.170331 -3.83827)
(9.70042 -0.409431 -3.0066)
(10.742 -1.05862 -1.9156)
(12.674 -1.29452 -1.41955)
(15.7962 0.357617 -1.71048)
(19.8711 2.95608 -2.45921)
(24.3906 4.39746 -3.14895)
(28.5893 4.02094 -3.32177)
(31.7518 2.33201 -2.8168)
(33.4781 0.121689 -1.70645)
(33.86 -1.87515 -0.326759)
(33.0273 -3.5513 1.19487)
(31.8504 -5.79722 1.6093)
(31.1929 -9.92588 0.868193)
(19.9999 0.00406044 0.00180799)
(19.9957 0.0141444 0.0059404)
(19.9817 0.0262838 0.0112062)
(19.9529 0.041686 0.0186554)
(19.9035 0.0632456 0.0306841)
(19.8111 0.0941682 0.0484458)
(19.6555 0.146452 0.0844073)
(19.3481 0.23325 0.136259)
(18.7366 0.384381 0.246258)
(17.4099 0.779177 0.532146)
(14.3232 0.878358 0.225081)
(-0.726385 -3.00053 -5.28228)
(1.0714 3.2497 0.903582)
(3.41062 1.18024 -0.176346)
(5.61185 0.309484 -0.820353)
(7.02615 -0.0601541 -0.523587)
(8.25174 -1.06703 0.176953)
(10.8061 -1.95293 -0.0123673)
(14.6487 -0.58351 -1.13322)
(19.3277 2.10038 -2.35997)
(24.0222 3.79249 -3.10268)
(28.1946 3.70666 -3.19735)
(31.2985 2.24299 -2.65894)
(32.969 0.152444 -1.60643)
(33.2854 -1.86822 -0.301127)
(32.5136 -3.83983 1.22478)
(31.4813 -6.30175 1.47752)
(31.3619 -9.77095 0.509616)
(20 0.00488782 0.00177624)
(19.9965 0.0168784 0.00579716)
(19.9844 0.0319186 0.0109476)
(19.9593 0.0520903 0.0182085)
(19.9161 0.0822029 0.0296909)
(19.8377 0.128234 0.0473938)
(19.7045 0.21198 0.0813943)
(19.4511 0.359285 0.135829)
(18.9947 0.671041 0.248544)
(18.0283 1.43865 0.466328)
(16.2019 2.74924 0.334909)
(14.7519 5.54415 -2.14465)
(-7.55355 -2.74498 0.180954)
(-1.73149 -2.25406 3.57591)
(2.60011 1.91293 4.18641)
(3.8646 1.41583 2.94918)
(5.54554 0.732861 2.01969)
(7.52911 -0.0741049 1.55634)
(9.70907 -1.52302 1.44662)
(11.6748 -2.6849 1.09133)
(14.5145 -1.68777 -0.0865835)
(18.8106 0.985252 -1.64279)
(23.4639 2.94969 -2.66226)
(27.5638 3.17456 -2.86643)
(30.5593 1.96797 -2.38584)
(32.1334 0.0320568 -1.40851)
(32.3584 -1.99684 -0.145978)
(31.6401 -4.19177 1.37404)
(30.9053 -6.6866 1.3205)
(31.5615 -9.49596 0.0334996)
(20.0001 0.00547685 0.00172687)
(19.9976 0.0187911 0.00560868)
(19.9881 0.0356727 0.0105257)
(19.9683 0.0590433 0.0174361)
(19.934 0.0947686 0.0281985)
(19.8746 0.15179 0.045486)
(19.7745 0.252716 0.0757817)
(19.6078 0.432894 0.126426)
(19.3471 0.802109 0.219603)
(19.0006 1.63341 0.36092)
(18.4884 3.09787 0.410793)
(20.9991 7.276 -0.232083)
(20.5733 2.33 2.56532)
(16.4628 -0.522777 2.16771)
(16.4018 -1.02484 3.06076)
(15.5022 -1.37577 3.18175)
(15.2168 -1.55308 2.747)
(15.8143 -1.92368 2.01198)
(16.7279 -2.52414 1.30199)
(16.5422 -2.93501 1.00673)
(16.5928 -2.10209 0.484549)
(18.9836 0.127963 -0.74248)
(22.873 2.07033 -1.8942)
(26.6553 2.51642 -2.29223)
(29.4446 1.55068 -1.94954)
(30.867 -0.228873 -1.06733)
(30.9774 -2.24229 0.172122)
(30.4341 -4.57348 1.58019)
(30.3137 -6.9569 0.972793)
(31.9324 -9.13747 -0.67537)
(20.0002 0.00575336 0.00166091)
(19.9989 0.0196158 0.00537316)
(19.9925 0.0373111 0.00995586)
(19.9787 0.062286 0.0164148)
(19.955 0.100419 0.0263193)
(19.9161 0.161357 0.0420223)
(19.8538 0.265817 0.0679306)
(19.7688 0.447737 0.108996)
(19.6618 0.7919 0.177567)
(19.6731 1.39401 0.274879)
(19.9876 2.59825 0.40458)
(21.6981 2.59196 0.488203)
(22.9395 1.08208 0.458145)
(22.6657 0.347398 0.526886)
(22.0892 0.068994 0.891111)
(21.7905 -0.192034 1.06219)
(21.5801 -0.581504 1.01143)