/*--------------------------------*- C++ -*----------------------------------*\
| =========                 |                                                 |
| \\      /  F ield         | OpenFOAM: The Open Source CFD Toolbox           |
|  \\    /   O peration     | Version:  2512                                  |
|   \\  /    A nd           | Website:  www.openfoam.com                      |
|    \\/     M anipulation  |                                                 |
\*---------------------------------------------------------------------------*/
FoamFile
{
    version     2.0;
    format      ascii;
    arch        "LSB;label=32;scalar=64";
    class       volScalarField;
    location    "280";
    object      k;
}
// * * * * * * * * * * * * * * * * * * * * * * * * * * * * * * * * * * * * * //

dimensions      [0 2 -2 0 0 0 0];

internalField   nonuniform List<scalar> 
90398
(
0.231945
0.224241
0.216999
0.210171
0.203744
0.197688
0.191962
0.18657
0.181497
0.176717
0.172235
0.168017
0.163993
0.160162
0.156481
0.152929
0.149481
0.146173
0.142988
0.139919
0.136961
0.134113
0.131373
0.128734
0.126189
0.123736
0.121367
0.11908
0.116871
0.114738
0.231945
0.224242
0.217005
0.210183
0.203761
0.197709
0.191991
0.186606
0.18154
0.176769
0.172299
0.168093
0.16408
0.160262
0.156587
0.153036
0.149584
0.146274
0.143087
0.140014
0.137051
0.134197
0.13145
0.128805
0.126255
0.123796
0.121422
0.11913
0.116916
0.114778
0.231946
0.224245
0.217015
0.210199
0.203784
0.197742
0.192029
0.186659
0.181611
0.176858
0.172417
0.168237
0.164253
0.160458
0.156797
0.153245
0.149781
0.146463
0.143263
0.140175
0.137198
0.134333
0.131578
0.128925
0.126368
0.123901
0.12152
0.119219
0.116996
0.11485
0.231947
0.224248
0.217023
0.210215
0.203807
0.197774
0.19207
0.186718
0.181699
0.176985
0.172594
0.168459
0.164525
0.160778
0.157145
0.153599
0.150127
0.146798
0.143579
0.140466
0.137466
0.134584
0.131811
0.129141
0.126567
0.124083
0.121685
0.119369
0.117132
0.114974
0.231947
0.22425
0.217029
0.210229
0.203827
0.197806
0.192114
0.18679
0.181815
0.177175
0.172872
0.168804
0.164997
0.161334
0.157753
0.154215
0.150732
0.147396
0.14417
0.141047
0.138029
0.135119
0.132314
0.129622
0.127038
0.124557
0.122177
0.119899
0.117724
0.115659
0.231952
0.224251
0.217032
0.210242
0.203846
0.197831
0.192173
0.186877
0.18197
0.177425
0.173177
0.169258
0.165637
0.16216
0.158702
0.155207
0.1517
0.148297
0.144974
0.141767
0.138708
0.135812
0.133096
0.130588
0.128325
0.126345
0.124683
0.12336
0.122415
0.121835
0.231957
0.22426
0.217033
0.21025
0.203863
0.197859
0.19223
0.186973
0.182093
0.177583
0.173409
0.169521
0.166212
0.163057
0.159926
0.156726
0.153592
0.150601
0.147756
0.145191
0.143149
0.141913
0.141885
0.143253
0.146047
0.150213
0.155583
0.162043
0.169213
0.177573
0.231957
0.224268
0.217047
0.210272
0.203885
0.197891
0.192287
0.187078
0.182196
0.177406
0.168893
0.16159
0.155617
0.150867
0.178466
0.183617
0.189672
0.197196
0.207371
0.221387
0.240709
0.263777
0.288735
0.314254
0.339381
0.363419
0.385645
0.405663
0.421607
0.436349
0.231957
0.224268
0.217059
0.210294
0.203919
0.197919
0.192337
0.187094
0.181861
0.173495
0.169652
0.166673
0.170577
0.210459
1.44068
1.41005
1.36413
1.32056
1.2819
1.24471
1.20334
1.15752
1.10799
1.05537
1.0005
0.944424
0.888334
0.83327
0.780451
0.729149
0.231957
0.224267
0.217055
0.210286
0.203928
0.197937
0.192377
0.187166
0.182144
0.174603
0.231442
0.345719
0.848511
1.51363
2.86347
2.47737
2.1484
1.88484
1.67403
1.49863
1.34781
1.21667
1.10171
1.0003
0.910591
0.83123
0.761102
0.699219
0.644702
0.59641
0.231957
0.224266
0.217053
0.210284
0.203925
0.197935
0.192378
0.187179
0.182251
0.17585
4.38439
4.00293
2.97658
2.66404
2.27496
1.95063
1.68763
1.47695
1.30589
1.1651
1.04645
0.944822
0.855516
0.777292
0.70899
0.649502
0.597791
0.552937
0.513729
0.231956
0.224265
0.217054
0.210286
0.203911
0.197913
0.19234
0.187102
0.182022
0.175107
0.232844
2.82704
3.46134
2.76152
1.92328
1.71169
1.52245
1.34945
1.19155
1.04989
0.924537
0.815115
0.720179
0.638844
0.569898
0.511872
0.463286
0.422767
0.389043
0.361107
0.231956
0.224264
0.217039
0.210262
0.203873
0.197881
0.192287
0.187042
0.182216
0.177456
0.175382
0.317728
0.503005
0.519268
0.336907
0.350795
0.350886
0.337949
0.318803
0.296696
0.273882
0.252228
0.233044
0.217131
0.203779
0.192562
0.183092
0.175055
0.168197
0.162326
0.231955
0.224255
0.217025
0.210238
0.20385
0.197846
0.192223
0.186987
0.182077
0.177744
0.174647
0.173503
0.172193
0.168528
0.164767
0.162226
0.159575
0.156119
0.152459
0.148781
0.145329
0.142138
0.139208
0.136497
0.133966
0.1316
0.129372
0.127272
0.125288
0.123423
0.231951
0.224247
0.217023
0.21023
0.203832
0.197816
0.192162
0.186879
0.181996
0.177427
0.173304
0.169565
0.166049
0.162401
0.158744
0.155167
0.151726
0.14845
0.14531
0.142314
0.139469
0.136774
0.134238
0.13184
0.129561
0.127391
0.125313
0.123328
0.121425
0.11961
0.231946
0.224246
0.217021
0.210218
0.203813
0.19779
0.192099
0.18678
0.181825
0.177225
0.172939
0.168972
0.165227
0.161529
0.157889
0.154342
0.150917
0.147654
0.144531
0.141545
0.138698
0.135989
0.133403
0.130929
0.128557
0.12628
0.124093
0.121989
0.119965
0.118022
0.231946
0.224245
0.217017
0.210205
0.203794
0.197758
0.19205
0.186697
0.181682
0.176987
0.17264
0.168561
0.164682
0.160936
0.157289
0.15375
0.150328
0.14706
0.143924
0.140917
0.138034
0.135278
0.13264
0.130111
0.127682
0.125347
0.123102
0.12094
0.118858
0.116856
0.231945
0.224243
0.21701
0.210191
0.203773
0.197725
0.192003
0.186624
0.181567
0.176811
0.172382
0.16823
0.164289
0.160515
0.156867
0.153338
0.149927
0.146664
0.143534
0.14053
0.13765
0.13489
0.13224
0.129694
0.127245
0.124887
0.122618
0.12043
0.118322
0.116292
0.231945
0.224241
0.217002
0.210177
0.20375
0.19769
0.191958
0.186554
0.181467
0.176679
0.172205
0.168014
0.164041
0.160254
0.156607
0.153088
0.149686
0.146429
0.143302
0.140301
0.137419
0.134652
0.131995
0.129438
0.126976
0.124606
0.122321
0.120119
0.117994
0.115947
0.231945
0.224241
0.216998
0.210167
0.203732
0.197662
0.191914
0.186494
0.181392
0.176588
0.172095
0.16789
0.163903
0.160112
0.156467
0.152954
0.149561
0.14631
0.143193
0.140201
0.137327
0.134567
0.131913
0.129359
0.126899
0.124528
0.122243
0.120039
0.117912
0.115862
0.23884
0.237497
0.236018
0.234428
0.232753
0.231018
0.229233
0.22743
0.225631
0.223842
0.222026
0.220166
0.218272
0.216395
0.214537
0.212676
0.210809
0.208935
0.207073
0.205218
0.203371
0.201534
0.199704
0.19788
0.196061
0.194256
0.192462
0.19068
0.188911
0.187165
0.23884
0.237497
0.236018
0.234429
0.232755
0.23102
0.229234
0.227436
0.225648
0.223884
0.222102
0.22027
0.218405
0.216546
0.2147
0.212843
0.210979
0.209106
0.207243
0.205388
0.20354
0.201701
0.199868
0.198039
0.196216
0.194403
0.192598
0.190804
0.189021
0.187259
0.23884
0.237497
0.236019
0.234431
0.232757
0.231023
0.229237
0.227453
0.225699
0.224002
0.222309
0.220544
0.218752
0.216942
0.215121
0.213273
0.211406
0.209534
0.207669
0.205809
0.203953
0.202105
0.200259
0.198417
0.196582
0.194754
0.192931
0.191115
0.189307
0.187516
0.23884
0.237497
0.23602
0.234433
0.232759
0.231028
0.229249
0.227495
0.225826
0.224297
0.222816
0.221237
0.219604
0.217899
0.216133
0.214297
0.212423
0.210546
0.208671
0.206797
0.204917
0.203032
0.20114
0.199253
0.197367
0.195483
0.193604
0.19173
0.189864
0.188014
0.23884
0.237497
0.236021
0.234434
0.232768
0.231042
0.22928
0.227594
0.226128
0.225013
0.224039
0.222891
0.221562
0.220069
0.218409
0.216575
0.214658
0.212733
0.210814
0.208905
0.207006
0.205115
0.203229
0.201335
0.199432
0.197521
0.195607
0.193692
0.191787
0.189899
0.23884
0.237497
0.236021
0.234437
0.232773
0.231074
0.229359
0.22781
0.226842
0.226524
0.226475
0.226099
0.225383
0.224323
0.222786
0.220955
0.21896
0.216924
0.214866
0.212793
0.210728
0.208701
0.206727
0.204818
0.202989
0.20126
0.199638
0.198142
0.196824
0.195691
0.238841
0.237497
0.236023
0.234442
0.232779
0.231105
0.229505
0.228291
0.228135
0.228968
0.230436
0.231579
0.231919
0.231687
0.230353
0.228532
0.226732
0.225138
0.22391
0.223257
0.223155
0.223552
0.224439
0.225804
0.227783
0.230519
0.233917
0.238141
0.243204
0.249748
0.238842
0.2375
0.236028
0.234456
0.232787
0.231125
0.229685
0.229101
0.230101
0.230242
0.231769
0.235049
0.235602
0.235315
0.260621
0.270373
0.279566
0.290289
0.305291
0.325188
0.347345
0.370051
0.392656
0.414999
0.437676
0.462104
0.487885
0.514425
0.541063
0.567844
0.238842
0.237502
0.236032
0.234463
0.232803
0.231145
0.229877
0.229821
0.229762
0.23457
0.243168
0.253022
0.264157
0.357221
1.51912
1.52583
1.51029
1.50792
1.52581
1.56016
1.6053
1.65041
1.69292
1.72813
1.75054
1.7541
1.73659
1.69743
1.64245
1.56167
0.238842
0.237502
0.236033
0.234468
0.232832
0.231191
0.230132
0.230575
0.231645
0.238388
0.312296
1.21425
3.64694
3.70605
2.07028
1.59588
1.33939
1.18627
1.08639
1.01391
0.955625
0.903971
0.855008
0.80733
0.760994
0.717471
0.678313
0.643205
0.612504
0.584184
0.238842
0.237502
0.236032
0.234468
0.232833
0.231195
0.23018
0.230662
0.232285
0.243151
2.46629
2.15205
1.63967
1.36512
1.19495
1.07774
0.988814
0.917214
0.857833
0.808089
0.766388
0.731673
0.703039
0.679723
0.660686
0.646049
0.633187
0.238842
0.237502
0.236032
0.234464
0.232806
0.231159
0.229968
0.230017
0.230735
0.240626
0.347209
1.98183
2.74919
4.64572
1.02682
0.952981
0.872172
0.793514
0.725367
0.667011
0.617698
0.575848
0.541768
0.514353
0.49284
0.476489
0.464564
0.456282
0.451093
0.448165
0.238842
0.2375
0.236028
0.234456
0.232788
0.231139
0.229759
0.229381
0.230855
0.232969
0.243053
0.26933
0.302659
0.317054
0.280904
0.277551
0.273905
0.269547
0.264893
0.260261
0.255857
0.251773
0.248092
0.244779
0.241803
0.239099
0.23663
0.234375
0.232336
0.230454
0.238841
0.237497
0.236022
0.234441
0.232778
0.231112
0.229556
0.228542
0.228755
0.230391
0.233165
0.235221
0.236034
0.235303
0.233111
0.230748
0.22847
0.226245
0.22412
0.222098
0.220175
0.218341
0.216568
0.214871
0.213249
0.211704
0.210224
0.20881
0.207451
0.206149
0.23884
0.237497
0.23602
0.234435
0.23277
0.231074
0.22938
0.227945
0.227358
0.227597
0.228349
0.228484
0.22819
0.226702
0.224704
0.222616
0.220504
0.218479
0.216534
0.21466
0.212843
0.211082
0.209354
0.207664
0.206013
0.204399
0.202812
0.201261
0.199746
0.198273
0.23884
0.237497
0.23602
0.234432
0.232763
0.231035
0.22928
0.227644
0.226378
0.225787
0.225484
0.224905
0.223697
0.222012
0.220128
0.218179
0.216224
0.214335
0.212486
0.210672
0.208885
0.20712
0.205382
0.203675
0.201998
0.200351
0.19873
0.19713
0.195557
0.194018
0.23884
0.237497
0.236019
0.234429
0.232753
0.231017
0.229235
0.227498
0.225915
0.22463
0.223542
0.22225
0.220682
0.218887
0.217007
0.215113
0.213216
0.211369
0.209554
0.207768
0.206006
0.204266
0.202542
0.200844
0.199168
0.197514
0.195883
0.194272
0.192681
0.191119
0.23884
0.237497
0.236018
0.234427
0.232749
0.231009
0.229215
0.227432
0.225712
0.224124
0.222617
0.220983
0.219203
0.217334
0.215455
0.213586
0.211716
0.209886
0.20808
0.206295
0.204527
0.202779
0.201047
0.199336
0.197647
0.19598
0.194333
0.192708
0.191104
0.189526
0.23884
0.237497
0.236017
0.234425
0.232746
0.231004
0.229208
0.227403
0.225628
0.223918
0.222236
0.220471
0.21859
0.216678
0.214791
0.212924
0.211063
0.209231
0.207419
0.205625
0.203847
0.202089
0.20035
0.198628
0.196925
0.195245
0.193586
0.191947
0.19033
0.188738
0.23884
0.237497
0.236016
0.234424
0.232744
0.231001
0.229204
0.227391
0.225595
0.223843
0.222099
0.220285
0.218369
0.216442
0.214552
0.212688
0.210833
0.209
0.207185
0.205389
0.20361
0.20185
0.20011
0.198388
0.196681
0.194997
0.193335
0.191692
0.190069
0.188474
0.239048
0.238077
0.237092
0.236092
0.235077
0.234056
0.233037
0.232038
0.231075
0.230142
0.22918
0.22813
0.227008
0.225886
0.224771
0.223636
0.22248
0.221307
0.220127
0.218941
0.21775
0.216552
0.215349
0.214141
0.212924
0.211704
0.210485
0.209264
0.208042
0.206829
0.239048
0.238077
0.237093
0.236093
0.235077
0.234058
0.233044
0.232056
0.231117
0.230224
0.229315
0.228315
0.227226
0.22613
0.22503
0.223902
0.222749
0.221577
0.2204
0.219216
0.218027
0.216832
0.215632
0.214424
0.213209
0.211993
0.210776
0.209556
0.208334
0.20712
0.239049
0.238077
0.237093
0.236094
0.235079
0.234064
0.233061
0.232101
0.231222
0.230437
0.229667
0.228779
0.227791
0.226759
0.225691
0.224575
0.223424
0.222257
0.221082
0.219902
0.218717
0.217526
0.216328
0.215126
0.213916
0.212709
0.211498
0.210283
0.209065
0.207854
0.239049
0.238078
0.237094
0.236096
0.235083
0.234075
0.233093
0.23219
0.231444
0.230907
0.230457
0.229852
0.229054
0.228161
0.227162
0.226058
0.224899
0.223724
0.222544
0.221359
0.220169
0.218974
0.217769
0.216564
0.215357
0.214151
0.212942
0.21173
0.210516
0.209309
0.239049
0.238078
0.237095
0.236099
0.235095
0.234093
0.233151
0.23236
0.231896
0.231866
0.231977
0.231924
0.231595
0.230964
0.230086
0.228967
0.227744
0.226509
0.225284
0.224073
0.222876
0.221686
0.220501
0.219328
0.218165
0.217007
0.215851
0.214695
0.213539
0.212386
0.239048
0.238079
0.237098
0.236102
0.235107
0.234123
0.233251
0.232681
0.232719
0.233351
0.234336
0.234902
0.235208
0.235197
0.234572
0.233502
0.232231
0.230941
0.229682
0.228454
0.22725
0.226076
0.22493
0.223827
0.222764
0.221747
0.220783
0.219876
0.219039
0.218269
0.239049
0.238078
0.2371
0.236107
0.23512
0.234171
0.233417
0.233248
0.233951
0.235614
0.238192
0.240426
0.241529
0.241965
0.241593
0.240767
0.239855
0.239018
0.238373
0.237973
0.237753
0.237675
0.237736
0.237953
0.238337
0.238904
0.239671
0.240643
0.24188
0.243416
0.23905
0.238079
0.237099
0.236108
0.235137
0.234233
0.233647
0.233922
0.235519
0.239365
0.241037
0.247521
0.250306
0.251411
0.265749
0.272824
0.277899
0.281753
0.285078
0.2882
0.291498
0.295229
0.299698
0.305129
0.311787
0.319963
0.329908
0.341831
0.355738
0.372418
0.23905
0.23808
0.237102
0.23611
0.235146
0.234292
0.233939
0.234608
0.235516
0.24099
0.251698
0.280233
0.2907
0.297574
1.0342
1.04917
1.03846
1.02615
1.01828
1.01525
1.01588
1.01936
1.02387
1.02748
1.02845
1.02541
1.01759
1.00451
0.986537
0.963404
0.239051
0.238082
0.237106
0.236121
0.235163
0.234351
0.234227
0.235296
0.236997
0.243787
0.277819
1.47429
1.52411
2.80482
1.96862
1.52847
1.27336
1.11459
1.01128
0.941248
0.892262
0.857429
0.832102
0.813015
0.797989
0.785527
0.774623
0.764296
0.754827
0.743882
0.239051
0.238082
0.237106
0.236122
0.235165
0.234359
0.234272
0.235396
0.237398
0.245931
1.42125
4.4441
1.96112
1.50309
1.23409
1.06161
0.943565
0.858833
0.795529
0.747553
0.710479
0.681517
0.658814
0.641064
0.627317
0.616682
0.608928
0.602568
0.23905
0.23808
0.237102
0.236112
0.235152
0.234316
0.234051
0.234832
0.236338
0.245685
0.279702
1.11213
14.4279
4.39278
0.603626
0.543313
0.49347
0.45302
0.421078
0.395777
0.375753
0.359829
0.347433
0.337774
0.330514
0.3252
0.321548
0.319335
0.318424
0.31864
0.23905
0.238079
0.237099
0.23611
0.235144
0.234261
0.233765
0.234207
0.236317
0.241763
0.247557
0.266546
0.277159
0.28318
0.27628
0.276214
0.274648
0.272328
0.269604
0.26672
0.263827
0.260956
0.258215
0.255575
0.253089
0.25077
0.248621
0.24663
0.244791
0.243093
0.239049
0.238078
0.237101
0.236109
0.235126
0.234196
0.23351
0.233525
0.234575
0.237134
0.241044
0.244575
0.246651
0.247661
0.247409
0.246208
0.244929
0.243653
0.242376
0.241097
0.23983
0.238573
0.237329
0.236081
0.234844
0.233613
0.232396
0.231195
0.230009
0.228849
0.239048
0.238079
0.237098
0.236104
0.235112
0.23414
0.233314
0.232908
0.233198
0.234377
0.236241
0.237571
0.238328
0.238303
0.237529
0.236451
0.235278
0.234082
0.232865
0.231639
0.230409
0.229184
0.227963
0.226757
0.225568
0.224393
0.223224
0.222069
0.220929
0.219821
0.239049
0.238078
0.237096
0.2361
0.235097
0.234103
0.233186
0.23249
0.232311
0.232621
0.233278
0.233718
0.233758
0.233201
0.23228
0.231166
0.229985
0.228791
0.227593
0.226394
0.225198
0.224005
0.222813
0.22163
0.220456
0.219293
0.218134
0.216976
0.215825
0.214697
0.239049
0.238078
0.237095
0.236097
0.235084
0.234079
0.23311
0.232256
0.231664
0.231483
0.231491
0.231372
0.230767
0.229858
0.228779
0.227625
0.226446
0.225268
0.224093
0.222917
0.221743
0.22057
0.219392
0.21822
0.217049
0.215884
0.214726
0.213567
0.212413
0.211274
0.239049
0.238078
0.237094
0.236094
0.235079
0.234064
0.233065
0.23213
0.231333
0.230743
0.230283
0.229661
0.228776
0.227726
0.22661
0.225466
0.224307
0.223143
0.22198
0.220817
0.219651
0.218484
0.217317
0.21615
0.214984
0.213823
0.212664
0.211508
0.210357
0.209216
0.239049
0.238078
0.237093
0.236092
0.235076
0.234055
0.233041
0.232066
0.231175
0.2304
0.22968
0.228837
0.227797
0.226673
0.225536
0.224389
0.223236
0.222066
0.220903
0.21974
0.218575
0.217409
0.216244
0.215077
0.213909
0.212745
0.211584
0.210427
0.209273
0.20813
0.239049
0.238078
0.237092
0.236091
0.235075
0.234051
0.233031
0.232039
0.23111
0.230266
0.229445
0.228514
0.227418
0.226264
0.225118
0.223971
0.222817
0.221649
0.220488
0.219326
0.218161
0.216996
0.215831
0.214666
0.213498
0.212332
0.211171
0.210011
0.208855
0.207711
0.239057
0.238109
0.237167
0.236229
0.235299
0.234381
0.233485
0.232625
0.231813
0.231042
0.230264
0.229418
0.228517
0.227616
0.226726
0.225826
0.224912
0.223989
0.223064
0.222138
0.221208
0.220276
0.219342
0.218406
0.217467
0.216522
0.215578
0.214633
0.213687
0.21275
0.239057
0.238109
0.237167
0.23623
0.2353
0.234384
0.233492
0.232642
0.231853
0.231119
0.23039
0.229592
0.228724
0.227848
0.226974
0.226082
0.225173
0.224253
0.223334
0.222412
0.221488
0.220562
0.219634
0.218703
0.217769
0.216833
0.215895
0.214957
0.214018
0.213087
0.239057
0.238109
0.237167
0.236231
0.235302
0.23439
0.233509
0.232685
0.23195
0.231313
0.230712
0.230028
0.229253
0.228436
0.227596
0.226721
0.225819
0.224909
0.223999
0.223088
0.222176
0.221263
0.220349
0.219435
0.218516
0.217597
0.216678
0.21576
0.214839
0.213926
0.239057
0.23811
0.237168
0.236232
0.235305
0.234401
0.23354
0.232767
0.232146
0.231725
0.231418
0.230991
0.230399
0.229705
0.228932
0.228079
0.227183
0.226281
0.225382
0.224484
0.223586
0.222689
0.221793
0.220896
0.22
0.219105
0.218214
0.217324
0.216434
0.215552
0.239057
0.23811
0.237169
0.236235
0.235311
0.234418
0.233592
0.232915
0.23253
0.232565
0.232766
0.232827
0.232636
0.232163
0.231492
0.230642
0.22971
0.228789
0.227878
0.226981
0.226098
0.225228
0.224371
0.223527
0.222697
0.221876
0.221065
0.220257
0.219451
0.218649
0.239057
0.238111
0.237171
0.236237
0.235321
0.234445
0.233678
0.233182
0.233244
0.233795
0.234668
0.235303
0.235642
0.235685
0.235265
0.234475
0.233545
0.232633
0.23175
0.230895
0.230064
0.229256
0.228465
0.227703
0.226964
0.226255
0.225572
0.224913
0.22428
0.223674
0.239057
0.238111
0.237173
0.236241
0.235333
0.234483
0.233814
0.233628
0.234166
0.235601
0.237821
0.239749
0.240788
0.241176
0.241061
0.240371
0.239532
0.238751
0.238078
0.237512
0.237031
0.236624
0.23629
0.236037
0.235866
0.235787
0.235797
0.235886
0.236068
0.236311
0.239057
0.238111
0.237174
0.236243
0.235346
0.234532
0.234002
0.234197
0.235452
0.23837
0.240244
0.24596
0.249091
0.250377
0.254965
0.255662
0.256217
0.256819
0.257531
0.258291
0.259019
0.259692
0.26036
0.261068
0.261907
0.262949
0.26427
0.265924
0.268025
0.270545
0.239058
0.238113
0.237176
0.236251
0.235357
0.234583
0.234211
0.234745
0.236893
0.242526
0.247357
0.263251
0.27461
0.275017
0.342161
0.352368
0.361316
0.368575
0.37494
0.379839
0.382671
0.383324
0.381974
0.378965
0.3746
0.369242
0.363195
0.356681
0.349873
0.342736
0.23906
0.238114
0.237179
0.236258
0.235372
0.23463
0.234394
0.235223
0.238276
0.242269
0.258925
0.561323
0.69485
2.60592
0.901924
0.844316
0.788068
0.740934
0.702282
0.670081
0.64129
0.615169
0.591677
0.569942
0.549644
0.530608
0.512722
0.495836
0.480031
0.464759
0.23906
0.238114
0.237179
0.236258
0.235374
0.234637
0.234424
0.235309
0.23851
0.243399
0.265803
0.832665
11.1874
4.96949
0.88212
0.800766
0.732467
0.677962
0.635084
0.599792
0.570196
0.545263
0.524106
0.505889
0.490402
0.47711
0.465742
0.456057
0.447925
0.441097
0.239058
0.238113
0.237177
0.236252
0.235363
0.234603
0.234293
0.234935
0.23741
0.244108
0.253854
0.48031
0.689256
0.427187
0.305534
0.301787
0.297288
0.292768
0.288636
0.285421
0.282666
0.280119
0.277648
0.275172
0.272704
0.270221
0.267749
0.265301
0.2629
0.260577
0.239057
0.238111
0.237174
0.236245
0.235353
0.234556
0.234095
0.23442
0.235999
0.239822
0.244057
0.258015
0.265837
0.26924
0.26375
0.262899
0.261666
0.260435
0.259174
0.257914
0.256683
0.255463
0.254263
0.253058
0.251855
0.25064
0.249414
0.248161
0.246888
0.245621
0.239057
0.238111
0.237174
0.236243
0.235339
0.234505
0.233893
0.23391
0.2347
0.236716
0.239837
0.242706
0.2446
0.24548
0.245571
0.244967
0.244238
0.243496
0.242694
0.241851
0.240989
0.240111
0.239222
0.238329
0.237435
0.236532
0.235625
0.234706
0.23379
0.232927
0.239057
0.238111
0.237171
0.236239
0.235326
0.234461
0.233734
0.23337
0.23363
0.23458
0.236081
0.237335
0.238065
0.23827
0.23792
0.23722
0.236406
0.235567
0.23469
0.233791
0.232883
0.231975
0.231065
0.230166
0.229273
0.22839
0.227505
0.226621
0.225747
0.224931
0.239057
0.23811
0.237169
0.236236
0.235314
0.234428
0.233626
0.233029
0.232863
0.233169
0.233781
0.234244
0.234411
0.234065
0.233416
0.232601
0.231717
0.23083
0.229932
0.229027
0.228118
0.227208
0.226296
0.225384
0.224476
0.223571
0.222668
0.221762
0.220863
0.220003
0.239057
0.23811
0.237169
0.236233
0.235307
0.234406
0.233558
0.232829
0.232334
0.232191
0.232286
0.232273
0.231875
0.231214
0.230419
0.22955
0.22865
0.227745
0.226841
0.225933
0.22502
0.224106
0.223191
0.222273
0.221356
0.220437
0.219524
0.218608
0.217696
0.216807
0.239057
0.23811
0.237168
0.236231
0.235302
0.234391
0.233516
0.232716
0.232051
0.231572
0.231224
0.230771
0.230115
0.229315
0.228465
0.227584
0.226687
0.225781
0.224878
0.223971
0.223061
0.222149
0.221236
0.220322
0.219402
0.218485
0.217567
0.21665
0.215736
0.214834
0.239057
0.23811
0.237167
0.23623
0.235299
0.234383
0.233493
0.232656
0.231909
0.231273
0.230699
0.23004
0.229234
0.228359
0.227474
0.22658
0.225677
0.224765
0.223856
0.222944
0.22203
0.221115
0.220198
0.219281
0.21836
0.217438
0.216516
0.215597
0.214678
0.213769
0.239057
0.23811
0.237167
0.236229
0.235298
0.234379
0.233483
0.23263
0.23185
0.231154
0.230493
0.229753
0.228892
0.227987
0.227087
0.226185
0.225277
0.224363
0.223451
0.222537
0.221621
0.220703
0.219785
0.218865
0.217944
0.217019
0.216097
0.215174
0.214253
0.213341
0.239057
0.238111
0.237172
0.236239
0.235317
0.23441
0.233526
0.232676
0.23187
0.2311
0.230332
0.22952
0.228669
0.227818
0.226977
0.226135
0.225287
0.224436
0.22359
0.222746
0.221905
0.221066
0.220229
0.219394
0.218561
0.21773
0.216899
0.21607
0.215242
0.214427
0.239057
0.238111
0.237172
0.23624
0.235318
0.234412
0.233532
0.23269
0.231901
0.23116
0.23043
0.229654
0.228832
0.228001
0.227174
0.226338
0.225496
0.224648
0.223808
0.222969
0.222134
0.221301
0.220471
0.219643
0.218817
0.217994
0.21717
0.216349
0.215531
0.214723
0.239057
0.238111
0.237172
0.23624
0.235319
0.234417
0.233545
0.232724
0.231977
0.231307
0.230674
0.22999
0.229237
0.228456
0.227658
0.226839
0.226007
0.22517
0.224341
0.223515
0.222692
0.221874
0.221059
0.220249
0.219441
0.218635
0.217832
0.217031
0.216234
0.215447
0.239057
0.238111
0.237173
0.236242
0.235323
0.234426
0.23357
0.232787
0.232123
0.231608
0.231192
0.230706
0.230102
0.22942
0.22868
0.227888
0.227072
0.226249
0.225437
0.224629
0.223826
0.223029
0.222237
0.221451
0.220669
0.219891
0.219119
0.218351
0.217588
0.216836
0.239057
0.238112
0.237173
0.236243
0.235327
0.23444
0.233611
0.232897
0.232398
0.2322
0.232237
0.232135
0.231808
0.231304
0.23065
0.229879
0.229058
0.228241
0.227435
0.226637
0.225851
0.225077
0.224317
0.223571
0.222837
0.222117
0.221407
0.220709
0.220018
0.219341
0.239057
0.238111
0.237174
0.236246
0.235334
0.234461
0.233674
0.233086
0.232895
0.233171
0.233724
0.234141
0.234307
0.234169
0.23371
0.232984
0.232157
0.23135
0.23056
0.22979
0.229044
0.228319
0.227617
0.226936
0.226272
0.225632
0.225009
0.224405
0.223815
0.223251
0.239058
0.238111
0.237174
0.236248
0.235342
0.23449
0.233769
0.233393
0.233626
0.234526
0.235963
0.237006
0.237712
0.238036
0.237907
0.237333
0.23662
0.235916
0.23522
0.23455
0.233918
0.233325
0.232773
0.232263
0.231798
0.231378
0.231006
0.230673
0.230381
0.230139
0.239059
0.238113
0.237174
0.23625
0.235352
0.234524
0.233898
0.233828
0.23454
0.236371
0.23957
0.242508
0.244065
0.244804
0.244937
0.244452
0.243919
0.243472
0.243094
0.242783
0.242532
0.242335
0.242167
0.242029
0.24193
0.24187
0.241854
0.241872
0.241942
0.242051
0.239059
0.238116
0.237178
0.236255
0.235362
0.234559
0.234036
0.234248
0.235524
0.238724
0.241501
0.250507
0.255172
0.257391
0.26046
0.261345
0.261782
0.261948
0.26195
0.261916
0.26168
0.261205
0.26046
0.259494
0.258333
0.257032
0.255627
0.254143
0.252617
0.251078
0.23906
0.238116
0.237182
0.236262
0.235374
0.234587
0.234144
0.234545
0.236306
0.240803
0.246095
0.2669
0.275824
0.28048
0.28483
0.287119
0.287334
0.286729
0.285637
0.28418
0.28244
0.2805
0.278328
0.276015
0.273604
0.271089
0.268489
0.265809
0.263079
0.260323
0.239059
0.238116
0.237182
0.236262
0.235376
0.234592
0.234165
0.234599
0.236464
0.241253
0.247806
0.283758
0.299185
0.309863
0.288947
0.289285
0.287751
0.285591
0.283147
0.280542
0.277817
0.275051
0.272231
0.269422
0.266631
0.263888
0.261191
0.258546
0.255973
0.25355
0.239059
0.238116
0.237178
0.236256
0.235365
0.234573
0.23409
0.23438
0.23585
0.239622
0.244304
0.261164
0.269174
0.271945
0.265861
0.265353
0.26447
0.263476
0.262387
0.26127
0.260148
0.259005
0.257815
0.256569
0.25526
0.253891
0.252448
0.250934
0.249369
0.247885
0.239059
0.238113
0.237174
0.236251
0.235357
0.234541
0.233962
0.234038
0.234949
0.23725
0.241232
0.245225
0.24767
0.249016
0.249367
0.248957
0.248419
0.247885
0.247292
0.24667
0.246045
0.245414
0.244772
0.244115
0.243441
0.242741
0.242007
0.241239
0.240465
0.239884
0.239058
0.238111
0.237175
0.23625
0.235347
0.234505
0.233824
0.233577
0.233986
0.235247
0.237254
0.238876
0.240092
0.240694
0.240792
0.240401
0.239858
0.239276
0.238618
0.23791
0.237178
0.236432
0.235679
0.234923
0.234166
0.233408
0.232648
0.231889
0.231168
0.230682
0.239057
0.238112
0.237174
0.236247
0.235338
0.234473
0.233714
0.233215
0.233259
0.233785
0.23473
0.235555
0.235996
0.236094
0.235759
0.235132
0.234402
0.233663
0.232895
0.232111
0.231322
0.230533
0.229747
0.228966
0.228188
0.227417
0.226648
0.225885
0.225156
0.224609
0.239057
0.238112
0.237174
0.236244
0.23533
0.234448
0.233635
0.232977
0.232627
0.232727
0.233051
0.2333
0.233251
0.232845
0.232216
0.231469
0.230675
0.229882
0.229087
0.228286
0.227482
0.226679
0.225876
0.225075
0.224274
0.223475
0.222679
0.221884
0.22111
0.220452
0.239058
0.238112
0.237173
0.236242
0.235324
0.23443
0.233583
0.232831
0.232253
0.231924
0.231797
0.231587
0.231139
0.230509
0.22978
0.228997
0.228193
0.227381
0.226574
0.225763
0.224951
0.224139
0.223328
0.222517
0.221706
0.220894
0.220087
0.219279
0.218483
0.217749
0.239058
0.238112
0.237173
0.236241
0.23532
0.234418
0.233551
0.232746
0.232046
0.231482
0.231016
0.230496
0.229836
0.229086
0.228299
0.227491
0.226673
0.225849
0.22503
0.22421
0.22339
0.22257
0.221752
0.220933
0.220116
0.219297
0.21848
0.217664
0.216857
0.216079
0.239058
0.238111
0.237172
0.23624
0.235318
0.234412
0.233532
0.232699
0.231939
0.231264
0.230637
0.229961
0.229191
0.228377
0.227557
0.226731
0.2259
0.225064
0.224234
0.223405
0.222576
0.221747
0.220921
0.220095
0.21927
0.218446
0.217621
0.2168
0.215984
0.215184
0.239058
0.238111
0.237172
0.236239
0.235316
0.234408
0.233524
0.232678
0.231893
0.231173
0.230484
0.229747
0.228935
0.228095
0.22726
0.226426
0.225589
0.22475
0.223915
0.223081
0.222248
0.221416
0.220586
0.219756
0.218928
0.218101
0.217274
0.21645
0.215627
0.214819
0.239057
0.238111
0.237172
0.236239
0.235318
0.23441
0.233523
0.232664
0.23184
0.231046
0.230256
0.229439
0.228595
0.227749
0.226911
0.226076
0.22524
0.224403
0.223574
0.22275
0.221931
0.221116
0.220306
0.2195
0.218699
0.217901
0.217108
0.216318
0.215531
0.214758
0.239057
0.238111
0.237172
0.236239
0.235318
0.234412
0.233527
0.232675
0.231864
0.23109
0.230327
0.229537
0.228714
0.227884
0.227055
0.226225
0.225392
0.224559
0.223734
0.222914
0.222099
0.221289
0.220484
0.219684
0.218889
0.218099
0.217312
0.216529
0.21575
0.214985
0.239057
0.238111
0.237173
0.23624
0.23532
0.234416
0.233538
0.232701
0.231919
0.231195
0.230499
0.229773
0.229
0.228205
0.227398
0.22658
0.225756
0.224931
0.224116
0.223306
0.222502
0.221704
0.220913
0.220128
0.219348
0.218574
0.217804
0.217039
0.216279
0.215532
0.239058
0.238112
0.237173
0.23624
0.235322
0.234423
0.233556
0.232746
0.232022
0.231399
0.230846
0.230257
0.229589
0.228864
0.228099
0.227303
0.226494
0.225683
0.224884
0.224092
0.223306
0.222529
0.221759
0.220997
0.220242
0.219494
0.218751
0.218015
0.217285
0.216571
0.239057
0.238112
0.237174
0.236242
0.235326
0.234433
0.233586
0.232823
0.232205
0.231785
0.231524
0.2312
0.230728
0.230129
0.229431
0.228664
0.227869
0.227073
0.226291
0.225515
0.22475
0.223996
0.223254
0.222525
0.221807
0.221101
0.220404
0.219718
0.219042
0.21839
0.239057
0.238111
0.237174
0.236243
0.235331
0.234449
0.23363
0.232948
0.232524
0.232479
0.23269
0.232817
0.23267
0.232277
0.231673
0.230926
0.230118
0.229334
0.228557
0.227796
0.227052
0.226326
0.22562
0.224933
0.224263
0.223609
0.222972
0.222348
0.221744
0.221184
0.239058
0.238111
0.237173
0.236245
0.235337
0.234469
0.233693
0.23314
0.233043
0.233437
0.234209
0.234813
0.235127
0.235193
0.234842
0.234175
0.233395
0.232623
0.231854
0.231103
0.230377
0.229683
0.229018
0.228383
0.227777
0.227198
0.226648
0.226123
0.225633
0.22524
0.23906
0.238113
0.237173
0.236247
0.235344
0.234492
0.233774
0.233409
0.23367
0.234664
0.236338
0.237576
0.238425
0.238824
0.238734
0.238145
0.237425
0.236722
0.236029
0.235357
0.234712
0.234104
0.233537
0.23301
0.232515
0.23205
0.23161
0.231193
0.230815
0.230586
0.23906
0.238116
0.237178
0.236249
0.235351
0.234515
0.23386
0.233704
0.234314
0.236019
0.239016
0.241635
0.243258
0.244028
0.244295
0.244035
0.243508
0.2429
0.24226
0.241599
0.240916
0.240221
0.239506
0.238778
0.238024
0.237253
0.236466
0.235664
0.234886
0.234322
0.23906
0.238116
0.237182
0.236256
0.23536
0.234533
0.233924
0.233945
0.234839
0.237209
0.241613
0.24553
0.248184
0.249543
0.250244
0.250533
0.250283
0.249752
0.249022
0.248138
0.247156
0.24611
0.244991
0.243824
0.242601