/*--------------------------------*- C++ -*----------------------------------*\
| =========                 |                                                 |
| \\      /  F ield         | OpenFOAM: The Open Source CFD Toolbox           |
|  \\    /   O peration     | Version:  2512                                  |
|   \\  /    A nd           | Website:  www.openfoam.com                      |
|    \\/     M anipulation  |                                                 |
\*---------------------------------------------------------------------------*/
FoamFile
{
    version     2.0;
    format      ascii;
    arch        "LSB;label=32;scalar=64";
    class       volScalarField;
    location    "280";
    object      k;
}
// * * * * * * * * * * * * * * * * * * * * * * * * * * * * * * * * * * * * * //

dimensions      [0 2 -2 0 0 0 0];

internalField   nonuniform List<scalar> 
84826
(
0.231932
0.224217
0.216974
0.21016
0.203736
0.19767
0.191941
0.186516
0.18143
0.176656
0.172192
0.168028
0.1641
0.160375
0.156784
0.153315
0.149932
0.146662
0.143494
0.140426
0.137454
0.134582
0.131812
0.129145
0.126577
0.124105
0.121724
0.119431
0.117219
0.115088
0.231933
0.224219
0.216979
0.210169
0.203751
0.197694
0.191974
0.18656
0.181488
0.17673
0.172284
0.16814
0.164232
0.16052
0.156935
0.153466
0.150077
0.146803
0.143629
0.140553
0.137574
0.134694
0.131918
0.129245
0.126671
0.124194
0.121807
0.119508
0.117291
0.115153
0.231933
0.224221
0.216984
0.210178
0.203767
0.19772
0.192014
0.186617
0.181569
0.176844
0.172443
0.168345
0.164485
0.160803
0.157234
0.153769
0.150371
0.147085
0.143894
0.140798
0.137798
0.134902
0.132114
0.12943
0.126847
0.12436
0.121964
0.119656
0.11743
0.115282
0.231934
0.224223
0.216988
0.210186
0.203781
0.197745
0.192054
0.186679
0.181667
0.176996
0.172673
0.168661
0.164881
0.161257
0.157718
0.154262
0.150854
0.147552
0.144336
0.14121
0.138186
0.13527
0.132462
0.129758
0.127154
0.124646
0.12223
0.119902
0.117658
0.115494
0.231934
0.224224
0.216991
0.210192
0.203793
0.197767
0.192092
0.186743
0.18178
0.177189
0.172893
0.168924
0.165293
0.161773
0.158301
0.154867
0.151453
0.148132
0.144893
0.141743
0.138698
0.135765
0.132944
0.130231
0.127625
0.125123
0.122726
0.120433
0.118243
0.116153
0.231934
0.224225
0.216993
0.210196
0.203802
0.197785
0.192128
0.186812
0.181913
0.17731
0.173111
0.169332
0.165797
0.162335
0.158952
0.155536
0.152109
0.148763
0.145501
0.142325
0.139251
0.136322
0.133572
0.131039
0.128764
0.126785
0.12513
0.123802
0.122838
0.122136
0.231934
0.224225
0.216993
0.210198
0.203808
0.1978
0.192161
0.186901
0.181994
0.177453
0.173721
0.170592
0.167887
0.164815
0.161359
0.15786
0.154321
0.150909
0.147665
0.144749
0.143005
0.142619
0.143656
0.146133
0.149985
0.155049
0.161101
0.16788
0.175237
0.182547
0.231934
0.224224
0.216993
0.210199
0.203812
0.197812
0.192192
0.186986
0.182046
0.177656
0.173566
0.167217
0.162462
0.160979
0.223371
0.217175
0.212854
0.222993
0.241447
0.264933
0.289928
0.31438
0.337419
0.358777
0.378368
0.396268
0.412488
0.427664
0.440522
0.454615
0.231934
0.224223
0.216991
0.210199
0.203815
0.197821
0.192218
0.187039
0.182149
0.177934
0.174404
0.1763
0.219829
0.668221
2.08172
1.8562
1.69982
1.56646
1.45245
1.35525
1.27199
1.20037
1.13871
1.08559
1.03974
1.00002
0.965508
0.935442
0.90854
0.885112
0.231935
0.224225
0.216994
0.210203
0.20382
0.19783
0.192237
0.18704
0.182204
0.178256
0.175878
0.181669
1.26637
3.20757
2.94043
2.50287
2.24226
2.02892
1.85487
1.71228
1.5931
1.49174
1.40368
1.32621
1.25726
1.19535
1.13949
1.08872
1.04307
0.999595
0.231936
0.224228
0.216998
0.210207
0.203825
0.197827
0.192234
0.187037
0.182201
0.178253
0.176301
0.18066
3.50926
2.9059
2.44303
2.17655
1.95651
1.7724
1.61704
1.48409
1.36935
1.27021
1.18385
1.108
1.04088
0.981073
0.927358
0.878987
0.833994
0.231936
0.224225
0.216993
0.210201
0.203817
0.197815
0.192212
0.187032
0.182142
0.177921
0.174802
0.175647
0.3075
1.17603
2.0113
1.88691
1.76808
1.64844
1.52917
1.40992
1.29277
1.18267
1.08163
0.989905
0.906852
0.831687
0.763596
0.701944
0.645974
0.594772
0.231935
0.224222
0.216989
0.210195
0.203807
0.197805
0.192184
0.186975
0.182033
0.177634
0.173751
0.169319
0.174819
0.265848
0.353237
0.376959
0.413524
0.444055
0.463607
0.47208
0.47055
0.460544
0.443949
0.42251
0.397862
0.371365
0.344043
0.316829
0.290024
0.264387
0.231934
0.224223
0.21699
0.210194
0.203802
0.197791
0.19215
0.186887
0.181977
0.177427
0.173671
0.170516
0.168231
0.166844
0.163734
0.160487
0.158726
0.158205
0.157874
0.157262
0.156077
0.154148
0.151474
0.148204
0.144531
0.140651
0.136781
0.133078
0.129801
0.126933
0.231934
0.224223
0.216989
0.210191
0.203795
0.197776
0.192116
0.186796
0.181892
0.177281
0.17307
0.169275
0.16575
0.162312
0.158882
0.155421
0.151974
0.148667
0.14551
0.142496
0.139614
0.136853
0.1342
0.131645
0.129189
0.12683
0.124569
0.122408
0.120347
0.118388
0.231934
0.224222
0.216988
0.210187
0.203786
0.197757
0.19208
0.186726
0.181756
0.177157
0.172847
0.168858
0.165204
0.161656
0.158157
0.154692
0.15127
0.147973
0.144799
0.141752
0.138832
0.136041
0.133374
0.130828
0.128401
0.126091
0.12391
0.121844
0.119877
0.118
0.231933
0.224221
0.216985
0.210182
0.203775
0.197736
0.192041
0.18666
0.18164
0.176959
0.172623
0.168593
0.164793
0.161152
0.157606
0.154131
0.150724
0.147441
0.144277
0.141233
0.13831
0.135506
0.132818
0.13024
0.127767
0.125395
0.123121
0.120939
0.118844
0.116839
0.231933
0.22422
0.216982
0.210175
0.203762
0.197712
0.192001
0.186596
0.181538
0.1768
0.172383
0.168266
0.164389
0.160697
0.157127
0.153654
0.150263
0.146995
0.143846
0.140815
0.137901
0.135103
0.132418
0.129841
0.127369
0.124996
0.122722
0.120543
0.11845
0.116441
0.231932
0.224218
0.216978
0.210167
0.203747
0.197687
0.19196
0.186536
0.18145
0.176675
0.172211
0.168047
0.164123
0.160402
0.156822
0.153351
0.149972
0.146717
0.143578
0.140556
0.137649
0.134855
0.132171
0.129592
0.127113
0.124731
0.12244
0.120239
0.118123
0.116085
0.231932
0.224216
0.216974
0.210158
0.203732
0.197661
0.191923
0.186485
0.181382
0.176589
0.172104
0.16792
0.163977
0.160245
0.156662
0.153195
0.149824
0.146576
0.143445
0.140432
0.137533
0.134747
0.13207
0.1295
0.12703
0.124656
0.122375
0.120179
0.118064
0.116026
0.238838
0.237493
0.236013
0.234426
0.232752
0.231011
0.229227
0.227426
0.225646
0.223924
0.222252
0.220528
0.218655
0.216731
0.214875
0.213067
0.211257
0.209419
0.207577
0.205733
0.203888
0.202048
0.200211
0.198377
0.196544
0.194724
0.192916
0.191121
0.18934
0.187584
0.238838
0.237493
0.236013
0.234426
0.232752
0.231012
0.229229
0.227436
0.225674
0.223994
0.222396
0.220752
0.21895
0.21707
0.215238
0.213443
0.211638
0.209801
0.207956
0.206107
0.204257
0.202408
0.20056
0.198712
0.196868
0.195033
0.193209
0.191396
0.189597
0.187819
0.238839
0.237493
0.236013
0.234426
0.232753
0.231013
0.229234
0.227459
0.225745
0.224175
0.222781
0.221352
0.219736
0.217968
0.216195
0.214429
0.212627
0.210785
0.208926
0.207059
0.205186
0.203307
0.20142
0.199533
0.19765
0.195773
0.193902
0.192042
0.190193
0.188365
0.238839
0.237493
0.236013
0.234426
0.232753
0.231017
0.229248
0.227509
0.225897
0.224583
0.223658
0.222732
0.221501
0.219954
0.218291
0.216568
0.214752
0.212876
0.210971
0.209048
0.207101
0.20514
0.203165
0.201194
0.199223
0.197255
0.195293
0.193339
0.191397
0.189473
0.238839
0.237494
0.236013
0.234426
0.232754
0.231023
0.229274
0.227606
0.226208
0.225439
0.225341
0.225265
0.224803
0.223667
0.222227
0.220596
0.21875
0.216792
0.214784
0.212744
0.210666
0.208564
0.20645
0.204335
0.20222
0.200108
0.198005
0.195918
0.193853
0.191813
0.238839
0.237496
0.236016
0.234427
0.232757
0.231035
0.229322
0.227787
0.226801
0.226857
0.228101
0.22895
0.229498
0.229133
0.228144
0.226572
0.224608
0.22242
0.22013
0.2178
0.215445
0.213097
0.210795
0.208567
0.20644
0.20444
0.20259
0.2009
0.19941
0.198035
0.238839
0.237496
0.236018
0.234431
0.232761
0.231053
0.229399
0.228099
0.227814
0.229113
0.232729
0.236582
0.238488
0.238921
0.238665
0.237632
0.235967
0.233892
0.231683
0.229503
0.227397
0.22544
0.223783
0.222728
0.222576
0.223653
0.226255
0.23061
0.236514
0.243815
0.238839
0.237496
0.236018
0.234434
0.23277
0.231081
0.229505
0.228568
0.229093
0.232601
0.234669
0.244854
0.250836
0.255368
0.288744
0.287377
0.283756
0.279846
0.27719
0.276822
0.279584
0.286319
0.297857
0.314334
0.336752
0.366555
0.403201
0.446075
0.492316
0.544652
0.238839
0.237496
0.236018
0.234435
0.232778
0.231107
0.229625
0.229111
0.230526
0.238002
0.247067
0.283583
0.351767
0.524125
1.72931
1.48528
1.32306
1.20936
1.13382
1.08976
1.07208
1.07714
1.10185
1.14181
1.18897
1.23612
1.28041
1.31952
1.35221
1.3748
0.238839
0.237496
0.236018
0.234436
0.232781
0.23112
0.229706
0.229402
0.231739
0.243036
0.266574
0.842559
5.60504
4.35626
3.31827
2.74694
2.40704
2.15098
1.96234
1.82716
1.73075
1.6624
1.61424
1.57968
1.55338
1.53117
1.51029
1.48882
1.46624
1.43685
0.23884
0.237496
0.236018
0.234436
0.232781
0.23112
0.229708
0.229402
0.231736
0.243002
0.268348
4.03405
3.25109
2.68047
2.33124
2.05785
1.84093
1.66776
1.52722
1.41155
1.31535
1.23442
1.16535
1.10585
1.05437
1.00864
0.968031
0.928653
0.238839
0.237496
0.236015
0.234435
0.232778
0.231107
0.229624
0.229106
0.230505
0.237907
0.25516
0.628234
5.80581
4.81038
1.80416
1.55564
1.39963
1.27735
1.17126
1.07662
0.992454
0.915077
0.845719
0.783346
0.72763
0.678206
0.634685
0.596578
0.563722
0.534434
0.238839
0.237495
0.236015
0.234434
0.232769
0.231079
0.2295
0.228555
0.229061
0.232511
0.237651
0.261106
0.281877
0.395484
0.35026
0.34452
0.33831
0.33113
0.323127
0.31479
0.306411
0.29794
0.289507
0.281066
0.272782
0.264787
0.257178
0.25005
0.243501
0.237535
0.238838
0.237495
0.236017
0.23443
0.23276
0.23105
0.229392
0.228086
0.227785
0.22904
0.232547
0.236251
0.238235
0.239084
0.238719
0.237084
0.235257
0.233504
0.231805
0.230061
0.228168
0.226121
0.223963
0.221744
0.219516
0.217316
0.21516
0.21306
0.210997
0.208986
0.238839
0.237495
0.236015
0.234426
0.232755
0.231031
0.229314
0.227771
0.226776
0.226807
0.227993
0.22874
0.229165
0.228749
0.227429
0.225606
0.223484
0.221231
0.218952
0.216708
0.214518
0.212411
0.210402
0.208494
0.206689
0.204982
0.203355
0.201815
0.200344
0.198953
0.238839
0.237494
0.236013
0.234425
0.232752
0.231018
0.229264
0.227588
0.226179
0.225402
0.225282
0.22516
0.224609
0.223337
0.221638
0.219747
0.217743
0.215744
0.213777
0.211856
0.209982
0.20816
0.206392
0.204681
0.203017
0.201397
0.199803
0.19823
0.196685
0.195169
0.238839
0.237493
0.236013
0.234425
0.23275
0.231011
0.229236
0.227489
0.225865
0.224544
0.223619
0.222697
0.221438
0.219809
0.217989
0.216117
0.214203
0.212306
0.210426
0.208574
0.206753
0.204966
0.203208
0.201491
0.199807
0.198156
0.196536
0.194946
0.193383
0.191843
0.238839
0.237493
0.236013
0.234424
0.232749
0.231007
0.229222
0.227437
0.22571
0.22413
0.222739
0.221327
0.219714
0.217904
0.216034
0.214177
0.212307
0.210456
0.20862
0.206806
0.205015
0.20325
0.201509
0.199794
0.198106
0.196445
0.194808
0.193193
0.191603
0.190038
0.238838
0.237492
0.236012
0.234424
0.232749
0.231005
0.229215
0.227413
0.225638
0.223947
0.22235
0.220722
0.218932
0.217027
0.215126
0.213263
0.211405
0.209565
0.207739
0.20593
0.20414
0.202372
0.200626
0.1989
0.197196
0.195519
0.193865
0.192233
0.190623
0.18904
0.238838
0.237492
0.236012
0.234424
0.232748
0.231004
0.229213
0.227402
0.225609
0.223875
0.222203
0.220496
0.218638
0.216697
0.214785
0.212921
0.211068
0.209233
0.207413
0.205609
0.203822
0.202055
0.20031
0.198584
0.196875
0.195192
0.193531
0.191893
0.190276
0.188687
0.239048
0.238077
0.237093
0.236095
0.235084
0.234064
0.23305
0.232065
0.231157
0.230363
0.229648
0.228846
0.227808
0.226657
0.225555
0.224489
0.223396
0.222255
0.221082
0.219886
0.218673
0.217449
0.216215
0.214975
0.213728
0.212478
0.211233
0.209989
0.208745
0.207512
0.239048
0.238077
0.237093
0.236096
0.235085
0.234067
0.233059
0.232087
0.231215
0.230492
0.229898
0.229231
0.228303
0.227228
0.226169
0.225125
0.224039
0.222896
0.221717
0.220514
0.219293
0.218058
0.216813
0.215559
0.214298
0.213039
0.211781
0.210524
0.209268
0.208023
0.239049
0.238077
0.237094
0.236097
0.235087
0.234074
0.233078
0.232142
0.231355
0.230814
0.23053
0.2302
0.229544
0.228652
0.227695
0.226698
0.225618
0.224463
0.223261
0.222031
0.220781
0.219516
0.218237
0.216951
0.215659
0.21437
0.213081
0.211793
0.210505
0.209228
0.239049
0.238078
0.237094
0.236098
0.235092
0.234086
0.233113
0.232245
0.23163
0.23147
0.231628
0.231828
0.231709
0.231229
0.230519
0.229628
0.228559
0.227377
0.226131
0.224848
0.223538
0.222208
0.220861
0.21951
0.218158
0.216809
0.21546
0.214113
0.212766
0.21143
0.23905
0.238079
0.237095
0.2361
0.235098
0.234105
0.233171
0.232424
0.232135
0.232412
0.233301
0.234254
0.234879
0.235022
0.234879
0.234311
0.233313
0.232096
0.230786
0.229434
0.228054
0.226652
0.225236
0.223822
0.222413
0.221007
0.219602
0.2182
0.216804
0.215417
0.239051
0.23808
0.237097
0.236102
0.235106
0.234132
0.233262
0.232724
0.232851
0.233883
0.236198
0.238332
0.23999
0.240899
0.241223
0.24105
0.240274
0.239073
0.237701
0.236246
0.23474
0.2332
0.231645
0.230113
0.22862
0.227179
0.225794
0.224467
0.223219
0.222023
0.239051
0.238081
0.237099
0.236107
0.235116
0.234168
0.233394
0.2332
0.233867
0.236208
0.241049
0.246508
0.249886
0.252296
0.253677
0.253833
0.25322
0.251951
0.25046
0.24892
0.247411
0.245989
0.2447
0.243624
0.242836
0.242383
0.242319
0.242675
0.24356
0.244832
0.239051
0.238082
0.237102
0.236112
0.23513
0.234213
0.233558
0.233692
0.235166
0.239838
0.243352
0.257524
0.267909
0.273643
0.300792
0.304954
0.305191
0.302663
0.299017
0.295015
0.291104
0.287742
0.285485
0.28493
0.286815
0.291997
0.301278
0.315269
0.334175
0.358849
0.239051
0.238082
0.237104
0.236117
0.235145
0.234254
0.233735
0.234169
0.236602
0.245272
0.255068
0.298066
0.468912
0.452905
1.58114
1.31831
1.13155
0.996098
0.896059
0.824003
0.773996
0.743627
0.730742
0.734629
0.754073
0.788773
0.837531
0.897245
0.964071
1.02795
0.239051
0.238083
0.237105
0.236121
0.235153
0.23428
0.233854
0.234495
0.237902
0.250644
0.272586
0.778937
11.5575
6.32408
3.32465
2.55264
2.10057
1.7913
1.56492
1.39772
1.27115
1.17457
1.10067
1.04418
1.00103
0.968087
0.943012
0.923684
0.90897
0.894433
0.239051
0.238083
0.237105
0.236119
0.235151
0.234279
0.233853
0.234494
0.237902
0.250636
0.274109
4.37465
3.39044
2.57649
2.11223
1.79873
1.57048
1.39943
1.26673
1.16187
1.07678
1.00643
0.947257
0.89674
0.852964
0.814342
0.779775
0.747109
0.23905
0.238081
0.237101
0.236115
0.235142
0.234253
0.233735
0.234167
0.236594
0.245228
0.260074
0.667642
13.3134
6.7392
1.45135
1.21562
1.04564
0.915543
0.814228
0.734788
0.671972
0.621763
0.581472
0.548459
0.521262
0.498211
0.478202
0.460374
0.444233
0.428992
0.239049
0.238081
0.237098
0.236112
0.235129
0.234213
0.233557
0.233688
0.235153
0.239801
0.246456
0.276951
0.30852
0.32611
0.309795
0.313145
0.312612
0.310284
0.306979
0.303018
0.298606
0.293852
0.288979
0.283998
0.279071
0.274278
0.269666
0.265235
0.260993
0.256857
0.239049
0.238081
0.237099
0.236107
0.235116
0.234167
0.233391
0.233195
0.233857
0.236183
0.240992
0.246469
0.249884
0.252365
0.25333
0.252864
0.251712
0.250456
0.249187
0.247895
0.246544
0.245155
0.243729
0.24225
0.240725
0.239136
0.237509
0.235863
0.234212
0.232568
0.23905
0.238079
0.237097
0.236102
0.235105
0.234131
0.233258
0.232717
0.232841
0.233868
0.236174
0.238297
0.239909
0.240687
0.240747
0.240302
0.2394
0.238265
0.237013
0.235693
0.234329
0.232953
0.231584
0.230248
0.228943
0.227665
0.226401
0.225158
0.223934
0.222724
0.23905
0.238078
0.237095
0.236099
0.235096
0.234102
0.233165
0.232413
0.232121
0.2324
0.233294
0.234252
0.234839
0.234894
0.234535
0.233721
0.23263
0.231428
0.230189
0.228941
0.227694
0.226449
0.22521
0.223985
0.222773
0.221574
0.220377
0.21918
0.21799
0.216812
0.239049
0.238077
0.237094
0.236097
0.23509
0.234083
0.233106
0.232231
0.231611
0.231455
0.231623
0.231839
0.231716
0.23116
0.230297
0.22927
0.228141
0.226966
0.225774
0.224578
0.223382
0.222188
0.220991
0.219803
0.218619
0.217444
0.216277
0.215111
0.213949
0.212797
0.239049
0.238077
0.237093
0.236096
0.235085
0.23407
0.233069
0.232126
0.231331
0.23079
0.230529
0.230247
0.229625
0.22871
0.227667
0.226583
0.225459
0.2243
0.223129
0.221952
0.220773
0.219594
0.218414
0.217238
0.216062
0.214896
0.213733
0.212575
0.211421
0.210277
0.239048
0.238077
0.237093
0.236095
0.235083
0.234062
0.233049
0.23207
0.231188
0.230463
0.229886
0.229264
0.22838
0.227302
0.226187
0.22508
0.22396
0.222801
0.221639
0.220472
0.2193
0.218129
0.216958
0.215787
0.214616
0.213451
0.212292
0.211136
0.209984
0.208843
0.239048
0.238077
0.237093
0.236094
0.235081
0.234059
0.23304
0.232046
0.23113
0.230332
0.229633
0.228874
0.227883
0.226738
0.225592
0.224473
0.223349
0.222192
0.221033
0.219869
0.218702
0.217533
0.216364
0.215197
0.214027
0.21286
0.2117
0.210543
0.209389
0.208249
0.239057
0.23811
0.237169
0.236233
0.235305
0.23439
0.233497
0.232656
0.231903
0.231266
0.230709
0.230086
0.229277
0.228378
0.227523
0.226699
0.225852
0.224966
0.224052
0.223119
0.222172
0.221215
0.220252
0.219286
0.218318
0.217347
0.216379
0.215412
0.214448
0.213493
0.239057
0.23811
0.237169
0.236233
0.235306
0.234393
0.233507
0.232679
0.231959
0.231387
0.230941
0.230444
0.229742
0.228917
0.228111
0.227315
0.22648
0.225595
0.224682
0.223746
0.222795
0.221833
0.220864
0.219891
0.218914
0.217938
0.216962
0.21599
0.215019
0.214059
0.239057
0.23811
0.237169
0.236234
0.235309
0.2344
0.233527
0.232732
0.23209
0.231684
0.231517
0.231327
0.230885
0.230239
0.229544
0.228805
0.227987
0.227104
0.226181
0.225231
0.224264
0.223285
0.222299
0.221308
0.220314
0.219321
0.218332
0.217346
0.216361
0.215387
0.239057
0.23811
0.23717
0.236236
0.235313
0.234412
0.233562
0.232828
0.232343
0.232273
0.232528
0.232819
0.232873
0.232613
0.232156
0.231529
0.230739
0.22985
0.228906
0.227927
0.226925
0.225908
0.224883
0.223854
0.222825
0.221799
0.220781
0.219767
0.218756
0.217756
0.239058
0.238111
0.23717
0.236238
0.235319
0.23443
0.233617
0.232993
0.232794
0.233133
0.233991
0.234909
0.235592
0.235881
0.235905
0.235549
0.23484
0.233972
0.233024
0.232036
0.231026
0.229998
0.228959
0.227917
0.226878
0.225846
0.224822
0.223803
0.222789
0.221783
0.239059
0.238111
0.237171
0.23624
0.235327
0.234456
0.233701
0.23326
0.233456
0.234408
0.236356
0.238366
0.23987
0.240848
0.241353
0.24144
0.241028
0.240264
0.239351
0.238375
0.237359
0.23631
0.235229
0.234134
0.233031
0.231934
0.230844
0.229768
0.228718
0.227686
0.239059
0.238112
0.237172
0.236243
0.235336
0.234489
0.233817
0.233667
0.234317
0.236292
0.240212
0.24456
0.247656
0.249782
0.251073
0.251564
0.251547
0.250895
0.249951
0.248877
0.247737
0.24656
0.245384
0.244252
0.243202
0.242262
0.241446
0.240759
0.240234
0.23983
0.239059
0.238114
0.237174
0.236246
0.235347
0.234526
0.233958
0.234132
0.235398
0.239205
0.242447
0.253784
0.262194
0.266798
0.278849
0.279883
0.279717
0.278009
0.275826
0.273512
0.271253
0.269095
0.267109
0.265372
0.264051
0.263301
0.263295
0.264175
0.266153
0.269188
0.23906
0.238115
0.237177
0.236251
0.235361
0.234559
0.234101
0.234525
0.236544
0.243159
0.250679
0.279383
0.325248
0.336001
0.520196
0.484483
0.453337
0.427272
0.405381
0.387201
0.372036
0.359991
0.351445
0.346937
0.347454
0.352339
0.360848
0.371985
0.384918
0.396398
0.23906
0.238116
0.237179
0.236257
0.235372
0.234587
0.234206
0.234794
0.237511
0.247188
0.26135
0.653331
18.3887
10.524
2.46778
1.97019
1.64213
1.41197
1.24136
1.11287
1.01074
0.927423
0.858779
0.80089
0.751594
0.709343
0.672969
0.64144
0.613915
0.589212
0.239059
0.238115
0.237179
0.236255
0.235366
0.234586
0.234205
0.234792
0.23751
0.2472
0.262807
0.725697
10.2425
10.2295
2.32867
1.8888
1.59788
1.39793
1.25499
1.14938
1.06857
1.0047
0.951631
0.905035
0.862411
0.822429
0.784511
0.748272
0.7136
0.679765
0.239058
0.238113
0.237175
0.236249
0.235355
0.234559
0.234101
0.234523
0.236541
0.243152
0.253145
0.509656
8.15957
4.42936
0.463002
0.443279
0.424164
0.407448
0.393225
0.38122
0.371181
0.362994
0.356681
0.35215
0.349462
0.347363
0.345102
0.342093
0.338055
0.332634
0.239058
0.238112
0.237173
0.236246
0.235347
0.234526
0.233957
0.23413
0.235392
0.239197
0.244679
0.265028
0.281396
0.289917
0.280535
0.281261
0.280659
0.278895
0.276661
0.274184
0.271573
0.268897
0.266257
0.263671
0.261195
0.25881
0.256533
0.25431
0.252116
0.249901
0.239058
0.238112
0.237172
0.236243
0.235336
0.234488
0.233815
0.233664
0.234311
0.236287
0.240225
0.244644
0.247722
0.249874
0.250961
0.251221
0.251083
0.250595
0.249939
0.249152
0.24823
0.247176
0.246006
0.244749
0.243429
0.242062
0.240679
0.239285
0.237898
0.236514
0.239059
0.238111
0.237171
0.23624
0.235326
0.234455
0.233697
0.233255
0.23345
0.234403
0.236364
0.238397
0.239875
0.240768
0.24108
0.240994
0.240505
0.239856
0.239094
0.238233
0.237286
0.236276
0.235225
0.234162
0.233098
0.232047
0.231004
0.229974
0.228955
0.227947
0.239058
0.238111
0.23717
0.236237
0.235318
0.234428
0.233612
0.232984
0.232783
0.233127
0.233996
0.234929
0.235587
0.235795
0.23566
0.23515
0.234412
0.233593
0.232721
0.231819
0.230895
0.229957
0.229006
0.228049
0.22709
0.226133
0.225178
0.22422
0.223263
0.222312
0.239057
0.23811
0.237169
0.236235
0.235311
0.234409
0.233556
0.232817
0.232327
0.232261
0.232528
0.232838
0.232891
0.232558
0.23199
0.231273
0.230454
0.229584
0.228693
0.227788
0.226872
0.22595
0.225023
0.224091
0.223157
0.222223
0.221295
0.220365
0.219437
0.218516
0.239057
0.23811
0.237169
0.236234
0.235307
0.234397
0.23352
0.232718
0.23207
0.231664
0.231516
0.231366
0.230951
0.230286
0.22953
0.228733
0.227891
0.227014
0.226123
0.225221
0.224312
0.223397
0.22248
0.22156
0.220636
0.219713
0.218792
0.217872
0.216955
0.216043
0.239057
0.23811
0.237168
0.236233
0.235304
0.234389
0.233498
0.232664
0.231936
0.231362
0.23093
0.23047
0.229803
0.22898
0.228136
0.227298
0.226441
0.225557
0.224662
0.223759
0.22285
0.221937
0.221022
0.220105
0.219186
0.218267
0.217348
0.216432
0.215517
0.21461
0.239057
0.23811
0.237168
0.236232
0.235303
0.234385
0.233488
0.23264
0.231879
0.231239
0.230695
0.230108
0.229339
0.22845
0.227568
0.226708
0.225841
0.224952
0.224053
0.223148
0.222237
0.221323
0.220407
0.219489
0.218571
0.217649
0.21673
0.215813
0.214897
0.21399
0.239058
0.238112
0.237173
0.236243
0.235324
0.23442
0.233537
0.232706
0.231949
0.231284
0.230683
0.230039
0.229268
0.228439
0.227642
0.226869
0.226081
0.225266
0.224434
0.22359
0.222738
0.221882
0.221025
0.220169
0.219315
0.218464
0.217616
0.216771
0.215931
0.215104
0.239058
0.238112
0.237174
0.236244
0.235325
0.234422
0.233545
0.232725
0.231994
0.231381
0.230863
0.230318
0.229631
0.228864
0.228109
0.22736
0.226585
0.225775
0.224947
0.224104
0.223252
0.222395
0.221536
0.220678
0.219821
0.218967
0.218116
0.21727
0.216429
0.215601
0.239058
0.238112
0.237174
0.236244
0.235327
0.234428
0.233562
0.232769
0.2321
0.231612
0.231306
0.231002
0.230518
0.229899
0.229241
0.228547
0.227798
0.226996
0.226171
0.225324
0.224466
0.223601
0.222734
0.221868
0.221004
0.220144
0.219288
0.218437
0.217593
0.216762
0.239058
0.238112
0.237174
0.236246
0.23533
0.234438
0.233592
0.232847
0.232299
0.232066
0.232174
0.23231
0.232217
0.231884
0.231405
0.230804
0.23009
0.229292
0.228459
0.227595
0.226713
0.225823
0.22493
0.224038
0.223151
0.222268
0.221395
0.220529
0.219672
0.218829
0.239058
0.238112
0.237175
0.236247
0.235335
0.234453
0.233638
0.232977
0.232648
0.232821
0.233375
0.234018
0.23443
0.234611
0.234531
0.23413
0.233495
0.232738
0.231915
0.231049
0.230157
0.229252
0.228343
0.227437
0.226538
0.22565
0.224775
0.223914
0.223065
0.222232
0.239058
0.238113
0.237176
0.236249
0.235342
0.234474
0.233704
0.233182
0.233228
0.233843
0.235178
0.236654
0.237747
0.23848
0.238855
0.238894
0.238511
0.237899
0.237149
0.23632
0.235442
0.234533
0.233607
0.232673
0.231737
0.230811
0.229896
0.228993
0.228105
0.22723
0.239058
0.238113
0.237176
0.236252
0.23535
0.234501
0.233794
0.233489
0.233883
0.235245
0.238012
0.240687
0.242871
0.244415
0.245368
0.245873
0.246015
0.245897
0.2454
0.244668
0.243773
0.242774
0.241716
0.240634
0.239558
0.238513
0.237518
0.236576
0.235697
0.234872
0.239059
0.238113
0.237178
0.236254
0.235358
0.23453
0.233903
0.233888
0.234738
0.237249
0.242503
0.248833
0.253054
0.25596
0.257582
0.258248
0.25851
0.258358
0.257672
0.256673
0.255466
0.254145
0.252767
0.251424
0.250169
0.249024
0.248019
0.247163
0.246486
0.24595
0.239059
0.238114
0.237181
0.236258
0.235368
0.234556
0.234005
0.234213
0.235565
0.23973
0.244246
0.260093
0.272995
0.279054
0.286841
0.28773
0.287036
0.284747
0.28188
0.278762
0.275547
0.272374
0.269242
0.266264
0.263538
0.26115
0.259108
0.257431
0.256044
0.254589
0.23906
0.238116
0.237183
0.236264
0.235377
0.234577
0.234076
0.234405
0.236198
0.241989
0.249777
0.296219
0.392544
0.39565
0.399647
0.393497
0.383573
0.373463
0.363907
0.355184
0.34728
0.340077
0.333241
0.326797
0.320678
0.314744
0.308955
0.303279
0.297713
0.29217
0.239059
0.238114
0.237181
0.236262
0.235375
0.234576
0.234075
0.234404
0.236198
0.241999
0.250211
0.321738
0.540667
0.534047
0.382376
0.378131
0.370953
0.363729
0.357283
0.35194
0.347535
0.343937
0.340747
0.337846
0.334857
0.331677
0.328144
0.324168
0.319749
0.314727
0.239058
0.238113
0.237177
0.236256
0.235365
0.234556
0.234005
0.234213
0.235564
0.239737
0.245979
0.27243
0.296882
0.300537
0.285703
0.286247
0.285631
0.283526
0.280944
0.27821
0.275488
0.27288
0.270449
0.268204
0.266189
0.264308
0.262461
0.260569
0.258563
0.256383
0.239058
0.238113
0.237177
0.236254
0.235358
0.23453
0.233903
0.233888
0.234734
0.237256
0.242561
0.249106
0.253333
0.25625
0.257732
0.258227
0.258398
0.258273
0.257836
0.257172
0.25631
0.255278
0.254106
0.252827
0.251477
0.250084
0.248664
0.247218
0.245748
0.244232
0.239058
0.238113
0.237176
0.236252
0.235349
0.2345
0.233792
0.233486
0.233881
0.235243
0.238039
0.240749
0.2429
0.24442
0.245237
0.24564
0.245815
0.245848
0.245576
0.245025
0.244259
0.243334
0.242302
0.241201
0.240068
0.238926
0.237792
0.23667
0.235562
0.23447
0.239058
0.238113
0.237175
0.236249
0.235341
0.234473
0.233701
0.233178
0.233224
0.233844
0.235192
0.236687
0.237743
0.238398
0.238657
0.238602
0.238187
0.237639
0.236973
0.23622
0.235405
0.234549
0.233667
0.232773
0.231876
0.230987
0.230106
0.229233
0.228365
0.227506
0.239058
0.238112
0.237175
0.236247
0.235334
0.234451
0.233634
0.232969
0.232639
0.232815
0.233381
0.234037
0.234427
0.23454
0.234298
0.233804
0.233155
0.232441
0.231684
0.230895
0.230085
0.229261
0.228427
0.227588
0.226746
0.225906
0.22507
0.224235
0.223402
0.222578
0.239058
0.238112
0.237174
0.236245
0.235329
0.234436
0.233586
0.232837
0.232284
0.232053
0.232171
0.23232
0.23222
0.231837
0.231285
0.230631
0.229904
0.229128
0.228338
0.227531
0.226715
0.225893
0.225069
0.224244
0.223419
0.222593
0.221773
0.220954
0.220138
0.219331
0.239058
0.238112
0.237174
0.236244
0.235325
0.234425
0.233555
0.232757
0.232082
0.231592
0.231296
0.231016
0.230548
0.229914
0.22922
0.228494
0.227735
0.226946
0.226149
0.225342
0.224529
0.223713
0.222895
0.222077
0.221259
0.22044
0.219624
0.218809
0.217999
0.217196
0.239058
0.238112
0.237173
0.236243
0.235323
0.234418
0.233538
0.232712
0.231974
0.231357
0.230846
0.230322
0.229657
0.228891
0.228116
0.227346
0.226563
0.225761
0.224952
0.224137
0.223319
0.222498
0.221677
0.220857
0.220037
0.219218
0.2184
0.217585
0.216773
0.215971
0.239058
0.238112
0.237173
0.236242
0.235321
0.234415
0.233529
0.232692
0.231928
0.231259
0.230664
0.230041
0.229296
0.228475
0.227666
0.226876
0.22608
0.22527
0.224454
0.223634
0.22281
0.221986
0.221161
0.220338
0.219515
0.218694
0.217874
0.217056
0.216241
0.215437
0.239058
0.238112
0.237174
0.236244
0.235325
0.23442
0.233535
0.232692
0.231908
0.231193
0.230523
0.229825
0.229047
0.228231
0.227436
0.226656
0.225868
0.225061
0.224246
0.223424
0.222598
0.221772
0.220948
0.220127
0.219311
0.2185
0.217695
0.216895
0.216101
0.215321
0.239058
0.238112
0.237174
0.236244
0.235325
0.234422
0.233541
0.232708
0.231943
0.231265
0.230652
0.230024
0.229307
0.228538
0.227774
0.227013
0.226235
0.225433
0.224622
0.223802
0.222978
0.222152
0.221328
0.220507
0.219691
0.218881
0.218075
0.217276
0.216483
0.215705
0.239058
0.238112
0.237174
0.236245
0.235327
0.234427
0.233554
0.232741
0.232022
0.231431
0.230963
0.230505
0.229935
0.229275
0.228583
0.227864
0.227109
0.226317
0.225511
0.224692
0.223866
0.223039
0.222214
0.221392
0.220576
0.219765
0.218962
0.218164
0.217374
0.2166
0.239058
0.238112
0.237175
0.236246
0.23533
0.234435
0.233576
0.2328
0.232166
0.23175
0.231575
0.231451
0.231162
0.230708
0.230146
0.229499
0.228777
0.227996
0.227191
0.226367
0.225531
0.224692
0.223855
0.223022
0.222196
0.221378
0.220567
0.219765
0.218973
0.218198
0.239058
0.238113
0.237175
0.236247
0.235334
0.234447
0.233612
0.232894
0.232411
0.232315
0.232561
0.232872
0.233033
0.232964
0.232632
0.23211
0.231439
0.230677
0.22987
0.229031
0.228175
0.227314
0.226455
0.225605
0.224765
0.223937
0.223122
0.222321
0.221534
0.220768
0.239058
0.238113
0.237175
0.236249
0.235339
0.234463
0.233661
0.233038
0.23281
0.233102
0.233859
0.234747
0.235385
0.235761
0.235856
0.23561
0.235077
0.234408
0.233641
0.23282
0.231969
0.231102
0.230234
0.229373
0.228522
0.227683
0.226859
0.22605
0.225257
0.224484
0.239058
0.238113
0.237176
0.236251
0.235345
0.234482
0.233725
0.233246
0.233373
0.234131
0.235744
0.237518
0.238868
0.239833
0.240386
0.240583
0.240476
0.240024
0.239355
0.238558
0.237681
0.236754
0.235804
0.234851
0.233907
0.232978
0.232073
0.231195
0.230347
0.229532
0.239059
0.238114
0.237178
0.236253
0.235351
0.234503
0.2338
0.233511
0.23394
0.2354
0.23845
0.241414
0.243793
0.245432
0.246492
0.24716
0.24745
0.247472
0.247069
0.246327
0.245367
0.244268
0.243098
0.241907
0.240725
0.239591
0.238511
0.237496
0.236545
0.235658
0.239059
0.238115
0.237182
0.236256
0.235357
0.234522
0.233871
0.233775
0.23453
0.236847
0.241715
0.247528
0.251449
0.253908
0.25556
0.256569
0.257087
0.257027
0.256325
0.255181
0.253771
0.252219
0.250596
0.248958
0.247323
0.245734
0.244207
0.242746
0.241348
0.23999
0.23906
0.238115
0.237184
0.236261
0.235363
0.234534
0.233917
0.233967
0.234942
0.238094
0.245076
0.254512
0.260813
0.264163
0.266452
0.267538
0.267601
0.266499
0.264848
0.262908
0.260833
0.258717
0.256563
0.254423
0.252285
0.25017
0.248082