/*--------------------------------*- C++ -*----------------------------------*\
| =========                 |                                                 |
| \\      /  F ield         | OpenFOAM: The Open Source CFD Toolbox           |
|  \\    /   O peration     | Version:  2512                                  |
|   \\  /    A nd           | Website:  www.openfoam.com                      |
|    \\/     M anipulation  |                                                 |
\*---------------------------------------------------------------------------*/
FoamFile
{
    version     2.0;
    format      ascii;
    arch        "LSB;label=32;scalar=64";
    class       volScalarField;
    location    "280";
    object      nut;
}
// * * * * * * * * * * * * * * * * * * * * * * * * * * * * * * * * * * * * * //

dimensions      [0 2 -1 0 0 0 0];

internalField   nonuniform List<scalar> 
84826
(
0.0144196
0.0141771
0.0139458
0.0137246
0.0135127
0.0133099
0.0131159
0.0129302
0.0127536
0.0125848
0.0124248
0.0122691
0.012125
0.0119913
0.0118566
0.0117249
0.0115943
0.0114667
0.0113422
0.0112206
0.0111015
0.010985
0.0108714
0.0107609
0.0106534
0.0105488
0.010447
0.010348
0.0102516
0.0101578
0.0144196
0.0141772
0.0139459
0.0137248
0.0135131
0.0133105
0.0131169
0.0129318
0.0127557
0.0125874
0.0124282
0.0122731
0.0121298
0.0119968
0.0118623
0.0117307
0.0116
0.0114722
0.0113475
0.0112257
0.0111063
0.0109896
0.0108758
0.0107651
0.0106574
0.0105526
0.0104507
0.0103515
0.0102549
0.0101609
0.0144195
0.0141772
0.013946
0.013725
0.0135136
0.0133113
0.0131177
0.0129333
0.0127586
0.0125915
0.0124339
0.0122802
0.0121387
0.0120074
0.0118736
0.0117424
0.0116111
0.0114829
0.0113582
0.0112358
0.0111156
0.0109983
0.0108841
0.0107731
0.010665
0.0105599
0.0104577
0.0103581
0.0102612
0.0101668
0.0144196
0.0141773
0.0139461
0.0137253
0.013514
0.013312
0.0131189
0.0129354
0.012762
0.012597
0.0124423
0.0122926
0.0121542
0.0120244
0.011892
0.0117613
0.0116299
0.0115014
0.011376
0.0112525
0.0111315
0.0110137
0.0108988
0.0107871
0.0106784
0.0105725
0.0104694
0.0103692
0.0102715
0.0101764
0.0144196
0.0141773
0.0139462
0.0137254
0.0135143
0.0133126
0.01312
0.0129376
0.012766
0.0126039
0.0124502
0.012326
0.0121929
0.0120435
0.0119139
0.0117843
0.0116531
0.0115242
0.0113983
0.0112741
0.0111526
0.0110342
0.0109189
0.0108069
0.0106978
0.0105919
0.0104892
0.0103898
0.0102938
0.0102013
0.0144195
0.0141773
0.0139462
0.0137254
0.0135146
0.0133131
0.013121
0.0129399
0.0127707
0.0126081
0.0124581
0.0123208
0.0121919
0.0120648
0.0119387
0.0118101
0.0116784
0.0115484
0.0114219
0.0112971
0.0111743
0.0110548
0.0109397
0.0108301
0.0107279
0.0106351
0.0105539
0.0104855
0.0104322
0.010392
0.0144195
0.0141773
0.0139462
0.0137255
0.0135148
0.0133135
0.0131222
0.0129423
0.0127729
0.0126132
0.0103263
0.00964202
0.0104344
0.011928
0.0120333
0.0119019
0.0117665
0.0116349
0.0115076
0.0113782
0.0112803
0.0112248
0.0112172
0.011262
0.0113599
0.0115069
0.0116952
0.0119149
0.0121595
0.0122121
0.0144196
0.0141772
0.0139461
0.0137256
0.0135149
0.0133139
0.0131233
0.0129441
0.0127739
0.0115203
0.00455896
0.00331923
0.00389575
0.00438215
0.0099765
0.00917908
0.00895836
0.0093911
0.0098605
0.01033
0.0107658
0.0110923
0.0112871
0.0113869
0.0114153
0.0113758
0.0112469
0.0110598
0.0108282
0.0103404
0.0144196
0.0141772
0.0139461
0.0137255
0.0135149
0.0133142
0.0131241
0.012946
0.0127765
0.00793885
0.00298591
0.00206416
0.00251538
0.00679226
0.0180537
0.0187434
0.0204228
0.021856
0.0221649
0.0216091
0.0206629
0.0195171
0.0182848
0.0170746
0.0159432
0.0149067
0.0139485
0.013142
0.0124011
0.0118339
0.0144195
0.0141771
0.0139458
0.0137251
0.0135144
0.0133138
0.013124
0.0129452
0.0127753
0.00601885
0.00203802
0.000827962
0.00291882
0.00368079
0.0130754
0.013894
0.0157676
0.0176663
0.0189004
0.0194471
0.0195616
0.0193855
0.0190049
0.0185293
0.0180378
0.0175668
0.0171111
0.0167268
0.0162843
0.0163217
0.0144195
0.0141769
0.0139456
0.0137248
0.013514
0.0133134
0.0131239
0.0129451
0.0127752
0.00602249
0.00193773
0.00130352
0.00285014
0.013214
0.0140642
0.0159291
0.0178042
0.0191054
0.0198565
0.0202844
0.0204833
0.0205144
0.0204498
0.0203458
0.0202098
0.0200153
0.0197904
0.0194596
0.019574
0.0144195
0.014177
0.0139459
0.0137252
0.0135144
0.0133137
0.0131239
0.0129457
0.0127762
0.00795875
0.00248254
0.000912688
0.00107404
0.00343936
0.0158594
0.015807
0.0165377
0.017473
0.0182046
0.0188379
0.0194402
0.0200003
0.0205058
0.0209742
0.0214177
0.0218159
0.0221282
0.0223164
0.0223099
0.023052
0.0144195
0.0141771
0.0139461
0.0137255
0.0135147
0.0133137
0.0131229
0.0129437
0.0127733
0.01157
0.00388799
0.00293513
0.00324422
0.00479325
0.00954532
0.00826575
0.00819381
0.00865953
0.00918614
0.00985241
0.0106187
0.0114082
0.0121721
0.0129403
0.0137049
0.0144531
0.0151819
0.0158808
0.0164161
0.0169608
0.0144195
0.0141772
0.0139461
0.0137254
0.0135146
0.0133132
0.0131218
0.0129417
0.0127722
0.0126121
0.0104251
0.00983825
0.0107339
0.0121773
0.0121038
0.0119867
0.0119591
0.0119968
0.0120463
0.0120795
0.01208
0.0120385
0.0119528
0.0118261
0.0116665
0.0114816
0.0112798
0.0110784
0.0109018
0.0107518
0.0144195
0.0141773
0.0139461
0.0137253
0.0135144
0.0133127
0.0131206
0.0129393
0.0127698
0.0126069
0.0124562
0.0123181
0.0121886
0.0120615
0.0119328
0.0118014
0.0116677
0.0115384
0.0114159
0.0112979
0.011184
0.0110733
0.0109654
0.0108598
0.0107565
0.0106558
0.0105578
0.010463
0.0103718
0.010285
0.0144196
0.0141772
0.0139461
0.0137252
0.0135141
0.0133122
0.0131195
0.0129369
0.012765
0.0126024
0.0124481
0.0123231
0.012189
0.0120379
0.0119063
0.0117746
0.0116416
0.011512
0.0113871
0.0112659
0.0111484
0.0110348
0.0109248
0.0108186
0.0107157
0.0106166
0.0105227
0.0104337
0.0103489
0.0102679
0.0144195
0.0141772
0.013946
0.0137251
0.0135138
0.0133117
0.0131184
0.0129346
0.0127609
0.0125954
0.01244
0.0122894
0.01215
0.012019
0.0118856
0.0117535
0.0116211
0.0114921
0.0113676
0.0112465
0.0111289
0.011015
0.0109046
0.0107977
0.010694
0.0105936
0.0104963
0.0104021
0.010311
0.0102236
0.0144195
0.0141772
0.013946
0.0137249
0.0135134
0.013311
0.0131172
0.0129325
0.0127573
0.0125897
0.0124314
0.0122768
0.0121343
0.0120021
0.0118677
0.0117355
0.0116037
0.0114754
0.0113513
0.0112306
0.0111132
0.0109994
0.0108891
0.010782
0.0106782
0.0105776
0.0104804
0.0103866
0.0102961
0.0102086
0.0144196
0.0141772
0.0139458
0.0137247
0.013513
0.0133103
0.0131164
0.0129309
0.0127542
0.0125852
0.0124251
0.0122691
0.0121249
0.0119911
0.0118562
0.0117241
0.011593
0.0114652
0.0113412
0.0112207
0.0111035
0.0109898
0.0108795
0.0107726
0.0106687
0.0105679
0.0104701
0.0103754
0.0102838
0.010195
0.0144196
0.0141771
0.0139458
0.0137246
0.0135126
0.0133096
0.0131152
0.012929
0.0127519
0.0125822
0.0124213
0.0122646
0.0121195
0.0119852
0.0118502
0.0117181
0.0115873
0.0114599
0.0113361
0.0112157
0.0110988
0.0109853
0.0108752
0.0107686
0.0106652
0.0105649
0.0104678
0.0103736
0.0102822
0.0101934
0.12312
0.114076
0.106856
0.100904
0.0958678
0.0915155
0.0876986
0.0842936
0.0811645
0.0783275
0.0757796
0.0735349
0.0715771
0.0699435
0.0685918
0.0673841
0.0662669
0.0651777
0.064156
0.0631827
0.0622481
0.0613447
0.0604601
0.059584
0.0587189
0.0578715
0.057045
0.0562416
0.0554631
0.0547134
0.123119
0.114072
0.106849
0.100892
0.0958482
0.0914819
0.0876408
0.0842113
0.0810377
0.0781441
0.075535
0.0732312
0.0712409
0.0695998
0.068269
0.0670912
0.0660027
0.0649384
0.0639361
0.0629785
0.062056
0.0611599
0.0602752
0.0593953
0.0585239
0.0576666
0.0568261
0.0560053
0.0552069
0.0544332
0.123122
0.114066
0.106838
0.100871
0.0958106
0.0914141
0.0875163
0.0840359
0.0807661
0.0777503
0.0750074
0.0725804
0.070519
0.0688637
0.0675791
0.06647
0.0654316
0.0644229
0.0634603
0.0625307
0.0616226
0.0607184
0.0598107
0.0589046
0.058003
0.0571116
0.0562339
0.0553739
0.0545348
0.0537185
0.123126
0.11406
0.106822
0.100843
0.0957578
0.0913204
0.0873525
0.0837758
0.0803525
0.0771347
0.0741152
0.071483
0.0692477
0.0675626
0.0663531
0.0653738
0.064437
0.0635187
0.062623
0.061735
0.0608128
0.0598651
0.0588989
0.0579243
0.0569468
0.055973
0.0550091
0.0540619
0.0531352
0.0522321
0.123124
0.11406
0.106805
0.100807
0.0956928
0.091202
0.0871435
0.0834264
0.0797807
0.076203
0.0579285
0.0553593
0.0635419
0.0656162
0.064461
0.0636721
0.0628809
0.062077
0.0612624
0.0604174
0.0595006
0.0585329
0.0575244
0.0564824
0.0554155
0.0543324
0.0532421
0.0521564
0.0510812
0.0500203
0.123121
0.114059
0.106794
0.100768
0.0956197
0.0910679
0.0868989
0.0829932
0.0790122
0.0555269
0.0368666
0.0392743
0.0411166
0.0505399
0.0606696
0.0600876
0.0594335
0.0586363
0.0577225
0.0567313
0.0556666
0.0545467
0.0533694
0.052135
0.050847
0.0495157
0.0481533
0.0467834
0.0454142
0.0440823
0.12312
0.114052
0.106783
0.100739
0.0955468
0.0909308
0.0866377
0.0824756
0.066372
0.036076
0.0225622
0.0211915
0.026633
0.030429
0.0385616
0.0499584
0.0493983
0.048704
0.0478743
0.0469108
0.0458087
0.0445685
0.0431724
0.0415801
0.0398804
0.0381812
0.0365661
0.0351158
0.0337919
0.026936
0.123118
0.114044
0.106767
0.100714
0.0954896
0.090813
0.0863917
0.0819204
0.0465421
0.022667
0.0161837
0.0115992
0.0135526
0.0121107
0.0186396
0.0199312
0.0195825
0.019293
0.0190769
0.0189429
0.0189142
0.0190295
0.0193192
0.0197668
0.0185675
0.0175076
0.0169213
0.0167906
0.0169151
0.0171366
0.123117
0.114037
0.106754
0.100688
0.0954452
0.0907181
0.0861962
0.0777571
0.0349774
0.0139196
0.00779036
0.0046206
0.00777467
0.0091607
0.0165194
0.0176087
0.0186403
0.0196374
0.0206943
0.0218976
0.0233064
0.0249622
0.0268842
0.029041
0.0313
0.0326245
0.0342663
0.0362283
0.0382133
0.0411272
0.12311
0.114024
0.106733
0.100657
0.0954
0.0906434
0.0860661
0.0689525
0.0274904
0.0103118
0.00387902
0.00152182
0.00414406
0.00593462
0.0261119
0.0277639
0.0290566
0.0300288
0.0309556
0.0319693
0.033096
0.0343253
0.035633
0.0369752
0.0383003
0.0395545
0.0406934
0.041689
0.042521
0.0431163
0.123103
0.114014
0.106719
0.100643
0.0953847
0.0906466
0.0860685
0.0689536
0.0274945
0.0103301
0.00362689
0.0158897
0.0239439
0.0257357
0.0269544
0.027675
0.0281477
0.0285023
0.0287969
0.0290588
0.0293099
0.0295623
0.0298194
0.0300887
0.0303787
0.0306729
0.0309719
0.0312207
0.123103
0.114028
0.106734
0.100675
0.0954271
0.0907147
0.0861849
0.0777999
0.0350398
0.013985
0.00499202
0.00185689
0.00606468
0.00780018
0.0154087
0.0164222
0.0173476
0.0179956
0.0183734
0.018608
0.018819
0.0190051
0.019184
0.0193616
0.0195466
0.019745
0.0199625
0.0202025
0.0204759
0.020753
0.123101
0.114042
0.106758
0.100711
0.0954797
0.090795
0.08636
0.0818641
0.0466742
0.0227492
0.0111612
0.00842632
0.00958721
0.00878178
0.017172
0.0170872
0.0171175
0.0172074
0.0173408
0.0175069
0.0177015
0.0179157
0.0181516
0.0183973
0.0186341
0.018867
0.0191027
0.019348
0.0196111
0.0198953
0.123109
0.114048
0.106779
0.10073
0.0955314
0.0909056
0.0865964
0.0824069
0.0664542
0.036221
0.0227579
0.0214879
0.0266218
0.0290792
0.0390502
0.0449451
0.0436575
0.0426117
0.0418334
0.0412937
0.0409548
0.04079
0.0407804
0.0409022
0.0411152
0.0414054
0.0417349
0.0420704
0.0423688
0.0426324
0.12312
0.114056
0.106788
0.100757
0.0956014
0.0910385
0.0868515
0.0829158
0.0788854
0.0555412
0.0369954
0.039709
0.0414563
0.0498494
0.0582564
0.0570939
0.0559463
0.0548842
0.0539384
0.0531267
0.0524403
0.0518796
0.0514384
0.05111
0.0508808
0.0507423
0.0506752
0.0506769
0.050725
0.050832
0.123123
0.114057
0.106798
0.100794
0.0956721
0.091169
0.0870914
0.0833441
0.0796515
0.0759984
0.0576973
0.0552363
0.0639871
0.0643607
0.0628165
0.0616527
0.0605765
0.0596397
0.0588179
0.0581103
0.0575014
0.056987
0.0565568
0.056199
0.0558932
0.0556272
0.0553626
0.0551007
0.0548438
0.0545938
0.123125
0.114057
0.106814
0.100829
0.0957353
0.0912849
0.0872976
0.0836914
0.0802243
0.0769409
0.0738211
0.0710407
0.0685802
0.0666083
0.0651091
0.0639214
0.0628349
0.0618798
0.0610086
0.0602181
0.0594988
0.0588479
0.0582578
0.0577229
0.0572333
0.0567833
0.0563648
0.0559746
0.0556051
0.0552409
0.123121
0.114063
0.106829
0.100857
0.0957867
0.0913769
0.0874598
0.0839509
0.0806403
0.0775663
0.074742
0.072203
0.0699818
0.0681281
0.0666418
0.0654145
0.0642922
0.0633025
0.0623964
0.0615657
0.0607992
0.0600905
0.0594318
0.0588173
0.0582395
0.0576958
0.0571771
0.0566787
0.0562003
0.0557407
0.123118
0.114068
0.10684
0.100877
0.0958234
0.0914436
0.0875833
0.0841261
0.0809138
0.0779674
0.0752877
0.0728918
0.0707801
0.0689928
0.0675131
0.0662616
0.0651243
0.0641052
0.0631691
0.0622999
0.0614866
0.0607244
0.0600083
0.0593323
0.0586922
0.0580869
0.0575128
0.0569618
0.0564333
0.0559274
0.123119
0.114072
0.106847
0.100888
0.0958427
0.0914768
0.0876406
0.0842083
0.0810418
0.0781548
0.0755419
0.0732152
0.0711547
0.0694007
0.0679271
0.0666689
0.0655296
0.0645012
0.0635552
0.062673
0.0618442
0.0610651
0.0603305
0.0596325
0.0589662
0.058332
0.0577292
0.0571535
0.0566024
0.0560768
0.134469
0.133881
0.133115
0.132201
0.131164
0.130026
0.128825
0.127476
0.126091
0.124682
0.123266
0.121862
0.120443
0.119129
0.117948
0.116824
0.115727
0.114622
0.113525
0.11244
0.111363
0.110287
0.1092
0.108105
0.106998
0.105891
0.104797
0.103715
0.102646
0.101601
0.134469
0.133881
0.133114
0.132199
0.13116
0.130017
0.128806
0.127442
0.126046
0.124616
0.123179
0.121771
0.120308
0.118985
0.117812
0.116699
0.115609
0.11451
0.113417
0.112335
0.111258
0.11018
0.109086
0.107977
0.106855
0.105734
0.104618
0.103509
0.10241
0.101329
0.13447
0.133881
0.133113
0.132196
0.131152
0.129999
0.128758
0.127391
0.125965
0.124491
0.123011
0.121569
0.120055
0.118721
0.117566
0.116475
0.115404
0.114304
0.113214
0.112128
0.111039
0.10993
0.108795
0.107639
0.106466
0.105291
0.104115
0.102941
0.101774
0.100624
0.13447
0.13388
0.133111
0.132191
0.131142
0.129976
0.128704
0.127314
0.125839
0.124309
0.0953358
0.0922743
0.110575
0.118247
0.117134
0.116079
0.115014
0.113918
0.112821
0.111717
0.110584
0.109401
0.108168
0.106903
0.105611
0.104301
0.10298
0.101654
0.100332
0.0990245
0.13447
0.13388
0.133109
0.132186
0.131129
0.129948
0.128644
0.127217
0.125684
0.0907442
0.0642916
0.0616053
0.071633
0.0882195
0.103557
0.114725
0.113698
0.112615
0.111509
0.110377
0.109189
0.107918
0.106575
0.105176
0.103719
0.102211
0.100662
0.099087
0.0974973
0.0959133
0.13447
0.133881
0.133108
0.13218
0.131115
0.129918
0.128583
0.12711
0.102666
0.0614154
0.0404831
0.0431609
0.0467902
0.0572001
0.0721483
0.0956894
0.108516
0.107459
0.106277
0.104933
0.103447
0.101838
0.100113
0.0982744
0.0962954
0.0941969
0.092002
0.089737
0.0873921
0.0850467
0.13447
0.13388
0.133107
0.132176
0.131101
0.129888
0.128523
0.12701
0.0729358
0.0395201
0.0243642
0.0233263
0.0294172
0.0332193
0.0426811
0.0658332
0.089231
0.0873934
0.0854437
0.0833674
0.0812164
0.0790022
0.0767122
0.0742444
0.0715042
0.0686291
0.0657235
0.0628247
0.0597857
0.0568636
0.13447
0.13388
0.133106
0.132174
0.131093
0.129866
0.128473
0.103677
0.0509899
0.0244133
0.0173284
0.0118791
0.0180465
0.017886
0.0181744
0.0255465
0.0301576
0.0292947
0.0284942
0.0276897
0.0269025
0.0261462
0.0254322
0.0247976
0.0242892
0.0239426
0.0237909
0.0238647
0.0241637
0.0247308
0.134469
0.133879
0.133105
0.13217
0.131088
0.129851
0.128446
0.0843824
0.0377007
0.0148168
0.00758263
0.00411351
0.0113306
0.0108288
0.0195529
0.0198277
0.0199414
0.0199954
0.0200617
0.0201993
0.020464
0.0209151
0.0216154
0.0226298
0.024005
0.0257663
0.0279035
0.0303442
0.0329818
0.0355215
0.134469
0.133878
0.133103
0.132167
0.131081
0.129839
0.128434
0.0745207
0.0295006
0.0105838
0.00360382
0.0013883
0.0285943
0.0145261
0.0255483
0.0262143
0.0265453
0.0266714
0.0267414
0.0268347
0.0269862
0.0272172
0.0275415
0.0279646
0.0284844
0.0290933
0.0297813
0.030529
0.0313244
0.0320738
0.134469
0.133878
0.133103
0.132165
0.131078
0.129835
0.128429
0.0745356
0.0294889
0.0105884
0.00336736
0.0129111
0.0254734
0.0258386
0.0260781
0.0262098
0.0263228
0.0264585
0.0266236
0.0268138
0.0270266
0.0272571
0.0275
0.0277505
0.028003
0.0282487
0.0284826
0.0286665
0.134469
0.133878
0.133102
0.132168
0.131082
0.129843
0.128435
0.0844184
0.0377156
0.0148503
0.00476841
0.00179555
0.030305
0.0232877
0.0168243
0.0170903
0.0173043
0.0174735
0.0176355
0.0178131
0.0180194
0.0182563
0.0185256
0.0188214
0.0191354
0.0194581
0.0197812
0.0200958
0.0204023
0.0206804
0.134469
0.133879
0.133104
0.132172
0.131089
0.129859
0.128459
0.103786
0.0510986
0.0244482
0.0112238
0.00789742
0.0116639
0.010581
0.0186525
0.0273372
0.0265036
0.0259458
0.0256281
0.0254706
0.0254371
0.0255016
0.0256591
0.0258879
0.0261751
0.0265136
0.026906
0.027341
0.0278026
0.028279
0.134469
0.13388
0.133108
0.132174
0.131097
0.12988
0.128508
0.126981
0.0730167
0.0395593
0.0244515
0.0233907
0.0295491
0.0323095
0.0483977
0.0843914
0.0819801
0.0798447
0.0780678
0.076603
0.0754046
0.0743028
0.0733588
0.0725614
0.0719189
0.071423
0.0710949
0.0709141
0.0708072
0.0707078
0.13447
0.13388
0.133107
0.132178
0.131111
0.12991
0.128566
0.127078
0.10258
0.0613876
0.040447
0.0432682
0.0474903
0.0587457
0.082668
0.106099
0.10473
0.103394
0.102163
0.101041
0.100011
0.099073
0.098225
0.0974812
0.0968201
0.0962298
0.0956877
0.0951986
0.0947517
0.0943183
0.13447
0.13388
0.133108
0.132184
0.131124
0.129939
0.128626
0.127183
0.125623
0.0904754
0.0639877
0.0613658
0.0727885
0.0934655
0.114017
0.11275
0.111528
0.110347
0.109246
0.108228
0.107285
0.106411
0.105601
0.104864
0.104178
0.103534
0.102898
0.102276
0.101672
0.101088
0.13447
0.13388
0.13311
0.132189
0.131137
0.129965
0.128684
0.127279
0.125779
0.124208
0.0946337
0.0911189
0.110922
0.117505
0.116099
0.114854
0.113684
0.11254
0.11146
0.110439
0.109473
0.108559
0.107687
0.106865
0.106083
0.105339
0.104627
0.103929
0.103243
0.102575
0.134469
0.13388
0.133111
0.132193
0.131147
0.129988
0.128738
0.127356
0.125906
0.124397
0.122864
0.121346
0.119711
0.11821
0.11687
0.115659
0.114543
0.113418
0.112359
0.111348
0.110378
0.109447
0.10855
0.107686
0.106852
0.106052
0.105272
0.104511
0.103768
0.103045
0.134469
0.133881
0.133113
0.132196
0.131154
0.130006
0.128786
0.127407
0.125988
0.124525
0.123045
0.121577
0.120027
0.118587
0.117281
0.116091
0.115002
0.11386
0.1128
0.111785
0.110803
0.109853
0.108933
0.108039
0.10717
0.10633
0.105517
0.104721
0.103944
0.103189
0.134469
0.133881
0.133113
0.132198
0.131158
0.130014
0.128805
0.127441
0.126034
0.124594
0.123138
0.121682
0.120194
0.118785
0.117498
0.116326
0.115239
0.114102
0.113048
0.112036
0.111053
0.110097
0.109169
0.108267
0.107382
0.106523
0.105684
0.104868
0.104071
0.103299
0.134739
0.134632
0.134511
0.134371
0.134211
0.134029
0.133825
0.133595
0.133357
0.133113
0.132856
0.132558
0.132203
0.131829
0.131474
0.131118
0.130744
0.130349
0.129931
0.129496
0.129045
0.128575
0.128081
0.127566
0.127031
0.126476
0.125906
0.125325
0.124734
0.124142
0.134739
0.134632
0.134511
0.134371
0.13421
0.134029
0.133825
0.133596
0.133362
0.133127
0.132886
0.13262
0.132266
0.131904
0.131559
0.131208
0.130835
0.130438
0.130018
0.12958
0.129124
0.12865
0.12815
0.127627
0.127082
0.126515
0.12593
0.125333
0.124725
0.124111
0.134739
0.134632
0.134511
0.134371
0.13421
0.134028
0.133828
0.133599
0.133375
0.133165
0.132967
0.132762
0.132421
0.132088
0.131766
0.131424
0.131049
0.130646
0.130217
0.129767
0.129297
0.128802
0.128278
0.127725
0.127147
0.126543
0.12592
0.125281
0.124627
0.123967
0.134739
0.134632
0.134511
0.134371
0.13421
0.134028
0.133828
0.133609
0.133409
0.13325
0.109201
0.105821
0.125181
0.132317
0.132036
0.131706
0.131324
0.130901
0.130449
0.129973
0.12947
0.128929
0.12835
0.127734
0.127081
0.126397
0.125686
0.124951
0.124195
0.123428
0.134739
0.134632
0.134511
0.134371
0.13421
0.134029
0.133831
0.133632
0.133477
0.103378
0.0750618
0.0713222
0.0825605
0.0998849
0.119645
0.131229
0.130859
0.130421
0.129945
0.129436
0.128888
0.128282
0.127621
0.126906
0.126136
0.125318
0.124453
0.123544
0.122598
0.121632
0.134739
0.134632
0.134511
0.134371
0.134211
0.134031
0.133841
0.133673
0.11621
0.0714031
0.0488363
0.048857
0.0540673
0.0656716
0.0805412
0.105462
0.127519
0.127033
0.126459
0.125802
0.125029
0.124147
0.12316
0.122072
0.120884
0.119604
0.118236
0.116787
0.115257
0.113697
0.134739
0.134633
0.134511
0.134371
0.134212
0.134035
0.133859
0.133743
0.0838687
0.0477148
0.0299781
0.0291421
0.0341794
0.0416293
0.0516616
0.0735357
0.107476
0.112278
0.110717
0.109039
0.107201
0.105226
0.103144
0.100952
0.098651
0.096248
0.0937592
0.0912025
0.0885722
0.0859279
0.134739
0.134633
0.134511
0.134371
0.134213
0.134041
0.133883
0.117839
0.0608553
0.0300858
0.0200875
0.0137833
0.0203134
0.0233426
0.0254563
0.039364
0.0590506
0.0571062
0.0553914
0.0537817
0.0520025
0.0500665
0.0479957
0.0458703
0.0437294
0.0416302
0.0396387
0.0378231
0.0362117
0.0348889
0.134739
0.134633
0.134512
0.134372
0.134215
0.134046
0.13391
0.0969399
0.0457628
0.0194612
0.00949218
0.0049695
0.0125026
0.0127772
0.0162305
0.0167898
0.0172172
0.0175439
0.0178038
0.0180047
0.0181651
0.0183049
0.0184547
0.0186463
0.0189358
0.0193479
0.0198935
0.0205664
0.021344
0.0221108
0.134739
0.134633
0.134512
0.134373
0.134217
0.134051
0.13393
0.0866117
0.0373373
0.0142042
0.00487705
0.00249646
0.0173255
0.0251287
0.0259354
0.0260546
0.0260548
0.0259823
0.0258937
0.0258161
0.0257447
0.0256789
0.025622
0.0255727
0.0255335
0.0255082
0.0255014
0.025514
0.0255491
0.0255911
0.134739
0.134633
0.134512
0.134372
0.134215
0.13405
0.13393
0.0866582
0.0373311
0.0141942
0.00444792
0.00167445
0.0387346
0.0377713
0.0241169
0.0246377
0.0250102
0.0253226
0.0256334
0.0259596
0.0262972
0.0266318
0.026947
0.0272259
0.0274553
0.0276302
0.0277501
0.0278154
0.0278322
0.0277891
0.134739
0.134633
0.134511
0.134371
0.134214
0.134045
0.133909
0.097025
0.045774
0.0194704
0.00654662
0.00229595
0.014121
0.0156118
0.0150856
0.0158935
0.0165548
0.0171535
0.0177114
0.0182329
0.0187213
0.0191874
0.0196437
0.0200998
0.020555
0.0209916
0.0213913
0.0217468
0.0220575
0.0223066
0.134739
0.134633
0.134511
0.134371
0.134213
0.13404
0.133881
0.117964
0.0609805
0.0300792
0.0137468
0.00929134
0.0136947
0.0148968
0.0260548
0.0410255
0.0564853
0.0545444
0.0529151
0.051555
0.0504308
0.0495211
0.0487909
0.0482131
0.0477595
0.0474198
0.0471495
0.0469684
0.046886
0.0469127
0.134739
0.134633
0.134511
0.134371
0.134211
0.134034
0.133857
0.133738
0.0839898
0.0476984
0.0299409
0.0289972
0.0345214
0.0420992
0.0585564
0.0902329
0.110893
0.109128
0.107443
0.105867
0.1044
0.103041
0.101797
0.100658
0.0996213
0.0986703
0.0977897
0.0969686
0.0962242
0.0955702
0.134739
0.134632
0.134511
0.134371
0.13421
0.13403
0.133838
0.133667
0.116236
0.0713716
0.0486924
0.0487553
0.0551649
0.0692413
0.0940075
0.126811
0.126258
0.12563
0.124981
0.124322
0.123656
0.122992
0.12234
0.121709
0.121103
0.120523
0.119965
0.119428
0.118904
0.118387
0.134739
0.134632
0.134511
0.134371
0.13421
0.134027
0.133828
0.133625
0.133464
0.10321
0.0747806
0.0711251
0.0846952
0.10787
0.131006
0.130616
0.130183
0.129703
0.129214
0.128724
0.128234
0.127749
0.127271
0.126803
0.126346
0.125901
0.125462
0.12502
0.124578
0.124139
0.134739
0.134632
0.134511
0.134371
0.134209
0.134026
0.133824
0.133602
0.133396
0.133229
0.108675
0.104988
0.127069
0.132107
0.131724
0.131329
0.130924
0.130476
0.13003
0.129582
0.129132
0.128683
0.128237
0.127794
0.127354
0.126919
0.126489
0.126056
0.125621
0.125189
0.134739
0.134632
0.134511
0.134371
0.134209
0.134026
0.133824
0.133591
0.133362
0.133144
0.132937
0.132721
0.132351
0.131968
0.13158
0.131194
0.130812
0.130387
0.129968
0.129546
0.12912
0.128691
0.12826
0.127827
0.127393
0.126959
0.126525
0.126088
0.12565
0.125215
0.134739
0.134632
0.134511
0.134371
0.134209
0.134026
0.13382
0.133588
0.133348
0.133105
0.132858
0.132584
0.132213
0.131819
0.131428
0.131046
0.130669
0.130265
0.129853
0.129438
0.129018
0.128592
0.128163
0.12773
0.127295
0.126857
0.126418
0.125976
0.125533
0.125093
0.134739
0.134632
0.134511
0.134371
0.134209
0.134027
0.13382
0.133587
0.133343
0.133092
0.132828
0.132525
0.132158
0.13176
0.131369
0.130988
0.130612
0.130214
0.129807
0.129397
0.128981
0.128558
0.12813
0.127697
0.12726
0.126818
0.126375
0.125929
0.125482
0.125038
0.134745
0.134656
0.134566
0.134476
0.134386
0.134296
0.134207
0.134126
0.134057
0.134005
0.133962
0.133901
0.133802
0.133685
0.133575
0.133466
0.133347
0.133216
0.133073
0.132921
0.132759
0.132588
0.132408
0.132217
0.132016
0.131806
0.131586
0.131357
0.131121
0.130881
0.134745
0.134656
0.134566
0.134476
0.134386
0.134297
0.134209
0.134131
0.134068
0.134028
0.134005
0.133968
0.13389
0.133789
0.133689
0.133586
0.133471
0.133341
0.133199
0.133046
0.132884
0.132712
0.13253
0.132337
0.132134
0.13192
0.131696
0.131462
0.131219
0.130973
0.134745
0.134656
0.134566
0.134477
0.134387
0.134298
0.134213
0.134141
0.134094
0.134084
0.134112
0.134132
0.134101
0.134036
0.13396
0.13387
0.13376
0.13363
0.133486
0.13333
0.133163
0.132985
0.132795
0.132592
0.132378
0.132151
0.131913
0.131664
0.131405
0.13114
0.134745
0.134656
0.134567
0.134477
0.134388
0.1343
0.134221
0.13416
0.134142
0.134193
0.129951
0.126143
0.134445
0.134439
0.134398
0.134322
0.134212
0.134074
0.133919
0.133748
0.133563
0.133366
0.133153
0.132924
0.132681
0.132422
0.132149
0.131862
0.131562
0.131254
0.134745
0.134656
0.134567
0.134477
0.134389
0.134304
0.134232
0.134191
0.134227
0.122736
0.0917437
0.0870419
0.0992864
0.115946
0.13443
0.134399
0.134302
0.134164
0.133998
0.133812
0.133605
0.133379
0.13313
0.132857
0.132562
0.132243
0.131901
0.131538
0.131154
0.130754
0.134745
0.134656
0.134567
0.134478
0.13439
0.134309
0.134248
0.134242
0.134363
0.0880182
0.0616474
0.0586232
0.0662472
0.076879
0.0920994
0.118424
0.132805
0.132684
0.132508
0.132286
0.132017
0.131695
0.131316
0.130881
0.13039
0.129842
0.129239
0.128585
0.127882
0.127142
0.134745
0.134656
0.134567
0.134478
0.134392
0.134316
0.13427
0.134317
0.102262
0.0603381
0.0393765
0.0427717
0.0442099
0.0517451
0.0634894
0.0793024
0.101045
0.124757
0.126195
0.125645
0.124961
0.124133
0.123146
0.122012
0.120736
0.119327
0.117804
0.116178
0.114461
0.112695
0.134745
0.134656
0.134567
0.134479
0.134394
0.134323
0.134297
0.134413
0.0758992
0.0409198
0.0241816
0.0219555
0.0270916
0.031944
0.0435733
0.0622823
0.0821263
0.101638
0.101773
0.0998341
0.0978141
0.0957009
0.0934054
0.0907619
0.0877738
0.0845807
0.0812664
0.0779245
0.0746191
0.0714799
0.134745
0.134656
0.134568
0.13448
0.134396
0.134329
0.134322
0.117373
0.0594177
0.0285645
0.0162114
0.0115306
0.0146717
0.016784
0.0250095
0.0375935
0.0507989
0.0495781
0.0484426
0.0473748
0.0463229
0.0452565
0.0441926
0.0431085
0.042003
0.0408852
0.0398016
0.0387721
0.0378615
0.0371777
0.134745
0.134656
0.134568
0.13448
0.134398
0.134334
0.134339
0.106393
0.0501045
0.0224206
0.00986127
0.00657926
0.0103335
0.0140363
0.0221859
0.0222995
0.0224042
0.0224509
0.0224818
0.0225021
0.0225089
0.0225112
0.0225261
0.0225469
0.0225728
0.0226114
0.0226658
0.0227379
0.0228326
0.0229478
0.134745
0.134656
0.134568
0.13448
0.134398
0.134334
0.134339
0.106449
0.0500956
0.0224108
0.00926653
0.00623013
0.0130477
0.0163709
0.0226597
0.022723
0.0227696
0.0227501
0.0227041
0.0226269
0.0225334
0.0224321
0.0223435
0.0222679
0.022221
0.0221965
0.0221944
0.022211
0.0222462
0.0222954
0.134745
0.134656
0.134567
0.13448
0.134396
0.134329
0.134322
0.117425
0.0594484
0.0285311
0.0122678
0.00773077
0.0124759
0.0157107
0.025049
0.0376905
0.0520998
0.0508461
0.0496687
0.0485384
0.0474357
0.0463368
0.0452214
0.0440836
0.0429031
0.0417412
0.040658
0.0396821
0.0388388
0.0381314
0.134745
0.134656
0.134567
0.134479
0.134394
0.134323
0.134297
0.134412
0.0760975
0.0408186
0.024074
0.0215788
0.0275008
0.0324541
0.0460426
0.0685665
0.0895864
0.102572
0.100892
0.0991759
0.0974417
0.095709
0.0939938
0.09231
0.090661
0.0890589
0.0875278
0.0860763
0.0847262
0.0834934
0.134745
0.134656
0.134567
0.134478
0.134392
0.134315
0.134269
0.134316
0.102263
0.0603887
0.0391728
0.0427517
0.0452224
0.0539334
0.0695682
0.0879187
0.104751
0.118061
0.125503
0.124951
0.124323
0.123644
0.122933
0.122204
0.121451
0.120684
0.119912
0.119141
0.11838
0.117638
0.134745
0.134656
0.134567
0.134478
0.13439
0.134309
0.134247
0.134241
0.134361
0.0878625
0.0614968
0.0585945
0.0681048
0.081863
0.103605
0.132632
0.13254
0.132372
0.132168
0.131933
0.131672
0.131393
0.1311
0.130799
0.130492
0.130181
0.129866
0.129546
0.12922
0.128892
0.134745
0.134656
0.134567
0.134477
0.134388
0.134303
0.13423
0.134189
0.134224
0.122658
0.0914303
0.0868921
0.102301
0.126142
0.134295
0.134219
0.134102
0.133956
0.133796
0.133623
0.13344
0.133248
0.13305
0.132848
0.132642
0.132433
0.132221
0.132005
0.131786
0.131566
0.134745
0.134656
0.134567
0.134477
0.134387
0.1343
0.134219
0.134157
0.134137
0.134188
0.129653
0.125763
0.134418
0.134387
0.134315
0.134218
0.134101
0.133964
0.133817
0.133663
0.133501
0.133333
0.13316
0.132983
0.132803
0.132618
0.132431
0.132239
0.132044
0.131849
0.134745
0.134656
0.134566
0.134476
0.134386
0.134297
0.134211
0.134138
0.134088
0.134078
0.134106
0.134129
0.134096
0.134019
0.133926
0.133823
0.133708
0.133581
0.133444
0.133301
0.133151
0.132995
0.132834
0.132669
0.132498
0.132323
0.132144
0.13196
0.131773
0.131585
0.134745
0.134656
0.134566
0.134476
0.134386
0.134296
0.134207
0.134127
0.134062
0.134021
0.133998
0.133964
0.133887
0.133781
0.13367
0.133558
0.13344
0.133313
0.133176
0.133034
0.132885
0.132731
0.132572
0.132408
0.132239
0.132066
0.131888
0.131705
0.131519
0.131332
0.134745
0.134656
0.134566
0.134476
0.134385
0.134295
0.134205
0.134122
0.134051
0.133997
0.133954
0.133897
0.133801
0.133682
0.133564
0.133447
0.133326
0.133197
0.133059
0.132916
0.132768
0.132613
0.132454
0.132289
0.13212
0.131945
0.131767
0.131584
0.131397
0.131209
0.134745
0.134657
0.134568
0.134481
0.134394
0.13431
0.13423
0.134159
0.134101
0.134058
0.134026
0.133984
0.133919
0.133844
0.133772
0.133703
0.133629
0.133549
0.133465
0.133376
0.133284
0.133189
0.133091
0.13299
0.132887
0.132782
0.132674
0.132563
0.13245
0.132338
0.134745
0.134657
0.134568
0.134481
0.134395
0.134311
0.134232
0.134163
0.13411
0.134077
0.134059
0.134036
0.133988
0.133925
0.133862
0.133798
0.133728
0.13365
0.133567
0.13348
0.133388
0.133294
0.133196
0.133096
0.132993
0.132888
0.13278
0.132669
0.132556
0.132443
0.134745
0.134657
0.134568
0.134481
0.134395
0.134312
0.134235
0.134172
0.13413
0.13412
0.13414
0.134161
0.134152
0.134118
0.134075
0.134023
0.13396
0.133886
0.133806
0.133719