/*--------------------------------*- C++ -*----------------------------------*\
| =========                 |                                                 |
| \\      /  F ield         | OpenFOAM: The Open Source CFD Toolbox           |
|  \\    /   O peration     | Version:  2512                                  |
|   \\  /    A nd           | Website:  www.openfoam.com                      |
|    \\/     M anipulation  |                                                 |
\*---------------------------------------------------------------------------*/
FoamFile
{
    version     2.0;
    format      ascii;
    arch        "LSB;label=32;scalar=64";
    class       volScalarField;
    location    "280";
    object      nut;
}
// * * * * * * * * * * * * * * * * * * * * * * * * * * * * * * * * * * * * * //

dimensions      [0 2 -1 0 0 0 0];

internalField   nonuniform List<scalar> 
90398
(
0.01442
0.0141784
0.0139485
0.0137275
0.0135162
0.0133125
0.0131113
0.0129352
0.0127554
0.0125874
0.0124268
0.0122692
0.0121215
0.011984
0.0118457
0.0117107
0.0115773
0.0114477
0.0113221
0.0111999
0.0110807
0.0109648
0.0108522
0.0107429
0.0106364
0.0105327
0.0104316
0.0103331
0.0102371
0.0101434
0.01442
0.0141784
0.0139484
0.0137275
0.0135162
0.013313
0.0131133
0.0129368
0.0127577
0.012591
0.0124291
0.0122717
0.0121247
0.0119877
0.0118498
0.0117149
0.0115814
0.0114518
0.0113261
0.0112039
0.0110846
0.0109685
0.0108556
0.010746
0.0106394
0.0105354
0.0104342
0.0103354
0.0102391
0.0101453
0.01442
0.0141784
0.0139486
0.0137277
0.013517
0.0133147
0.013118
0.0129385
0.0127596
0.0125938
0.0124333
0.0122766
0.0121308
0.0119953
0.011858
0.0117233
0.0115891
0.0114592
0.0113334
0.0112107
0.0110908
0.0109742
0.0108611
0.0107512
0.0106442
0.01054
0.0104385
0.0103394
0.0102428
0.0101486
0.01442
0.0141785
0.0139484
0.0137283
0.0135184
0.0133171
0.01312
0.0129366
0.0127629
0.0125989
0.0124397
0.0122856
0.0121417
0.0120075
0.0118716
0.0117375
0.0116033
0.0114732
0.0113469
0.0112231
0.0111021
0.0109849
0.0108711
0.0107605
0.0106529
0.010548
0.0104457
0.010346
0.0102486
0.0101538
0.01442
0.0141785
0.0139482
0.013729
0.0135202
0.0133212
0.0131241
0.0129392
0.0127683
0.0126067
0.0124497
0.012322
0.0121832
0.0120291
0.0118958
0.0117627
0.0116287
0.0114988
0.0113729
0.0112494
0.0111282
0.0110097
0.010894
0.0107819
0.0106732
0.0105677
0.0104653
0.0103661
0.0102701
0.010178
0.0144202
0.0141785
0.0139483
0.0137289
0.0135202
0.013326
0.0131421
0.0129467
0.0127757
0.0126353
0.0124729
0.0123183
0.0121878
0.0120618
0.0119343
0.0118042
0.0116706
0.0115387
0.0114081
0.0112795
0.0111545
0.0110337
0.0109174
0.0108063
0.0107019
0.0106062
0.0105216
0.0104495
0.0103929
0.0103527
0.0144206
0.0141791
0.0139489
0.01373
0.0135207
0.0133273
0.013147
0.0129548
0.0127839
0.0126119
0.0124512
0.0123105
0.0121911
0.0120964
0.0119815
0.011862
0.0117411
0.0116223
0.0115032
0.0113819
0.0112599
0.0111482
0.011074
0.0110525
0.0110898
0.0111876
0.0113396
0.0115398
0.0109319
0.00982601
0.0144206
0.0141799
0.0139526
0.0137383
0.0135266
0.0133257
0.0131475
0.0129672
0.012785
0.00630512
0.00615073
0.00583679
0.00591042
0.00580596
0.00849025
0.00956612
0.00979406
0.00927551
0.00867473
0.00826199
0.00805944
0.00800803
0.00808539
0.00827454
0.00854991
0.00888376
0.00922559
0.0095813
0.0097393
0.00998982
0.0144206
0.01418
0.013954
0.0137437
0.0135363
0.0133297
0.0131432
0.0129606
0.00638076
0.00414477
0.00404311
0.00367724
0.00475299
0.00476654
0.0195218
0.0201107
0.0202937
0.0195238
0.0184779
0.0174915
0.0164765
0.0154676
0.0145513
0.0137659
0.0131088
0.0125649
0.0121076
0.011744
0.0113355
0.0112785
0.0144206
0.0141796
0.0139513
0.0137388
0.0135358
0.0133307
0.0131386
0.012958
0.00638817
0.00148711
0.00140776
0.00276872
0.00300627
0.00400511
0.0193592
0.0188049
0.0180403
0.016765
0.0155564
0.0146045
0.0137983
0.0130782
0.0124371
0.0118678
0.0113604
0.0109137
0.0105226
0.0102116
0.00986716
0.00990113
0.0144206
0.0141796
0.0139512
0.0137387
0.0135357
0.0133307
0.0131387
0.0129584
0.00638535
0.0010476
0.00486688
0.0079668
0.00683825
0.0202747
0.0197807
0.0192622
0.0180992
0.0169043
0.0159652
0.0152092
0.0145724
0.0140467
0.013598
0.0132148
0.0128853
0.0125943
0.0123698
0.0120727
0.0121898
0.0144205
0.0141798
0.0139538
0.0137435
0.013536
0.0133294
0.0131432
0.0129607
0.00638427
0.00254341
0.00125783
0.00443869
0.00600736
0.00453209
0.0270758
0.0258433
0.0254561
0.0244256
0.0234818
0.0229408
0.0226473
0.022535
0.0225955
0.0228008
0.0231178
0.0227779
0.0215433
0.0204505
0.0194929
0.0186669
0.0144205
0.0141797
0.0139523
0.0137379
0.0135261
0.0133252
0.0131473
0.0129658
0.0127852
0.00484877
0.00324199
0.00541151
0.00921618
0.00913272
0.00973837
0.0112642
0.0125381
0.013238
0.0140433
0.0151794
0.0166382
0.0162824
0.0154559
0.0147587
0.0141637
0.0136572
0.0132257
0.0128572
0.0125412
0.0122701
0.0144205
0.0141789
0.0139486
0.0137296
0.0135201
0.0133268
0.0131466
0.012955
0.0127829
0.0126164
0.010755
0.0113121
0.0124094
0.0123031
0.0121694
0.0121151
0.0120455
0.0119195
0.0117708
0.0116116
0.0114598
0.0113184
0.0111894
0.0110707
0.0109599
0.0108563
0.0107588
0.0106667
0.0105796
0.0104971
0.0144202
0.0141783
0.013948
0.0137285
0.0135196
0.0133253
0.0131415
0.0129464
0.0127762
0.0126347
0.012476
0.0123273
0.0121992
0.0120647
0.0119274
0.0117917
0.0116585
0.0115294
0.0114052
0.0112846
0.011168
0.0110559
0.0109503
0.0108501
0.0107545
0.0106631
0.0105751
0.0104905
0.0104091
0.0103309
0.01442
0.0141784
0.0139479
0.0137286
0.0135197
0.0133205
0.0131234
0.0129386
0.0127682
0.0126078
0.0124511
0.0123266
0.0121887
0.012032
0.0118951
0.0117602
0.011627
0.0114983
0.0113746
0.0112546
0.0111391
0.0110286
0.0109226
0.0108204
0.0107217
0.0106261
0.0105337
0.0104441
0.0103573
0.0102732
0.01442
0.0141784
0.0139482
0.0137279
0.0135178
0.0133164
0.0131191
0.0129356
0.0127619
0.0125983
0.0124402
0.0122878
0.0121451
0.0120102
0.0118729
0.0117383
0.0116052
0.0114767
0.011353
0.0112328
0.0111163
0.0110041
0.0108958
0.0107912
0.01069
0.0105918
0.0104966
0.0104043
0.0103145
0.0102276
0.01442
0.0141783
0.0139484
0.0137274
0.0135166
0.013314
0.013117
0.012937
0.0127576
0.0125914
0.012431
0.0122748
0.01213
0.0119946
0.0118572
0.0117229
0.0115903
0.011462
0.0113382
0.0112182
0.0111021
0.0109899
0.0108813
0.0107761
0.0106741
0.0105748
0.0104785
0.0103848
0.0102937
0.0102053
0.01442
0.0141783
0.0139483
0.0137273
0.0135158
0.0133122
0.013112
0.0129347
0.0127546
0.012587
0.0124245
0.0122673
0.0121213
0.0119849
0.0118475
0.0117134
0.0115815
0.0114536
0.0113296
0.0112098
0.0110937
0.0109813
0.0108724
0.0107667
0.0106641
0.0105642
0.0104672
0.0103728
0.0102808
0.0101916
0.01442
0.0141784
0.0139485
0.0137274
0.0135157
0.0133115
0.0131095
0.0129322
0.0127511
0.0125818
0.0124205
0.0122628
0.0121161
0.0119795
0.0118422
0.0117083
0.0115766
0.0114488
0.0113254
0.0112061
0.0110903
0.0109783
0.0108695
0.0107641
0.0106614
0.0105616
0.0104645
0.0103701
0.0102781
0.0101887
0.123154
0.114141
0.106946
0.101017
0.096017
0.0917311
0.0879057
0.0845652
0.081575
0.0789268
0.0765799
0.0745536
0.0727878
0.0712079
0.06976
0.068418
0.0671676
0.0659607
0.0648331
0.0637656
0.0627458
0.0617685
0.0608205
0.0598999
0.0590046
0.0581376
0.057298
0.0564852
0.0556984
0.0549397
0.123153
0.114139
0.106941
0.10101
0.0960145
0.0917106
0.087844
0.0844733
0.0814476
0.0787776
0.0764113
0.0743858
0.0726508
0.0710837
0.0696486
0.0683136
0.0670704
0.0658679
0.0647427
0.0636752
0.0626544
0.0616741
0.0607224
0.059792
0.0588827
0.0579971
0.0571345
0.0562955
0.055481
0.0546928
0.123152
0.114133
0.106932
0.100993
0.0959994
0.0916608
0.0877234
0.0842871
0.0811875
0.0784453
0.0760383
0.0740109
0.0723247
0.0707983
0.0693949
0.0680782
0.0668364
0.0656447
0.0645188
0.0634432
0.0624047
0.0614006
0.0604166
0.0594538
0.0585103
0.0575872
0.0566829
0.055798
0.0549338
0.0540908
0.123151
0.114126
0.106917
0.100965
0.0959601
0.091583
0.0875523
0.0840069
0.080792
0.0778895
0.0754139
0.0734686
0.0718385
0.0703726
0.0690193
0.0677319
0.0664986
0.0653165
0.0641858
0.0630876
0.0619929
0.0608966
0.0598056
0.0587276
0.0576644
0.0566191
0.0555929
0.0545885
0.0536072
0.0526507
0.12315
0.114117
0.106896
0.100927
0.0959182
0.091533
0.0873672
0.0836452
0.0801996
0.0770079
0.0744388
0.0726284
0.0711271
0.0697805
0.0685133
0.0672699
0.0660468
0.064864
0.0637194
0.0626038
0.061509
0.0604272
0.0593422
0.0582202
0.0570679
0.0558928
0.0547008
0.0535009
0.0523018
0.0511011
0.123146
0.114108
0.106877
0.100885
0.0958405
0.0915942
0.0873007
0.0831877
0.0793061
0.0670824
0.0613098
0.0688118
0.0702224
0.0690607
0.0679251
0.0667373
0.0655021
0.0642485
0.0629415
0.0615255
0.0600039
0.0584248
0.0568125
0.0551835
0.0535489
0.0519203
0.0503038
0.048705
0.047119
0.0455526
0.123152
0.114107
0.106902
0.100903
0.0957274
0.0914678
0.0873184
0.0826411
0.0624332
0.0408537
0.0371448
0.039161
0.0521419
0.0575041
0.0666341
0.0647221
0.0626821
0.0606347
0.0585496
0.0562453
0.05387
0.0515553
0.049312
0.0470711
0.0448824
0.0427946
0.0408147
0.034498
0.0296778
0.0234169
0.123162
0.114143
0.107058
0.101163
0.0956364
0.0910646
0.0869603
0.0785435
0.0382458
0.026709
0.0257212
0.0210989
0.036949
0.0338777
0.0280265
0.0303299
0.0273042
0.0254295
0.0242775
0.0230068
0.0208564
0.0194211
0.0185064
0.0179617
0.0176793
0.0176247
0.0177139
0.0179745
0.0182304
0.0187274
0.123164
0.114151
0.107068
0.101262
0.0957339
0.0906674
0.0861911
0.0589636
0.0306309
0.0120934
0.0179088
0.00675006
0.0221149
0.0187306
0.0225396
0.0243802
0.0261016
0.027951
0.0300335
0.0323498
0.0347702
0.0364273
0.0366216
0.0370731
0.0377815
0.0386904
0.0397299
0.0410493
0.0418586
0.044831
0.123162
0.11412
0.106971
0.101194
0.0959187
0.0906138
0.0858037
0.0472734
0.0197827
0.00575494
0.00312666
0.00182618
0.0119238
0.0129919
0.0144334
0.0152599
0.0161414
0.0170887
0.0180543
0.0189802
0.0198174
0.0205192
0.0210642
0.0214564
0.0217171
0.0218975
0.0220535
0.0221969
0.0223461
0.0224759
0.123162
0.114118
0.106966
0.10119
0.0959048
0.0905822
0.0857366
0.046237
0.0167865
0.00350312
0.00336045
0.0156206
0.0158665
0.01621
0.0166075
0.0170304
0.0174444
0.0178427
0.0182298
0.0186179
0.0190189
0.0194431
0.0198969
0.0203844
0.0209004
0.0214578
0.022012
0.123162
0.114144
0.107062
0.101257
0.0957026
0.0905859
0.0860097
0.0549846
0.0224138
0.00650373
0.00632985
0.00717033
0.00672274
0.0126785
0.0136486
0.0143738
0.0147775
0.0149754
0.0151319
0.0152944
0.0154814
0.0157036
0.0159796
0.0163163
0.0167183
0.0171871
0.0177204
0.01831
0.0189503
0.0196197
0.123159
0.114132
0.107049
0.101132
0.0955688
0.0909275
0.0866723
0.0687419
0.0317197
0.0141555
0.0110992
0.00990597
0.012205
0.0148791
0.0236421
0.0231953
0.0229335
0.0228864
0.023011
0.023298
0.0237376
0.0242882
0.0249104
0.0255753
0.0262661
0.0269505
0.0276218
0.0282753
0.0289081
0.0295161
0.123148
0.114093
0.106872
0.100848
0.0956285
0.0912882
0.0869725
0.081947
0.0504862
0.0297147
0.0238447
0.0253592
0.0354867
0.0497223
0.0494324
0.0484106
0.0477194
0.0473746
0.0472581
0.0473003
0.0474517
0.0476504
0.0478286
0.0480002
0.0481579
0.0483022
0.0484283
0.0485383
0.048631
0.0487108
0.123141
0.114091
0.106841
0.10082
0.0957282
0.0913979
0.0869523
0.0825546
0.0767187
0.0487965
0.0399693
0.0455187
0.0561458
0.060796
0.0595941
0.0586086
0.057773
0.0572092
0.0568217
0.0565462
0.0563357
0.0561652
0.0559776
0.0557858
0.055587
0.0553843
0.0551732
0.0549605
0.054748
0.0545399
0.123144
0.114099
0.106857
0.100856
0.0957986
0.0913328
0.0870326
0.0830802
0.0792465
0.0749305
0.0614636
0.0671995
0.0666048
0.0650206
0.0638247
0.0628122
0.0619115
0.0612194
0.0606371
0.0601162
0.059624
0.0591438
0.0586775
0.0582279
0.0577931
0.0573744
0.0569679
0.0565717
0.0561885
0.0558208
0.123145
0.114106
0.106875
0.100891
0.0958376
0.0913858
0.0872378
0.0835072
0.0800052
0.076672
0.0735713
0.0709894
0.068858
0.0672511
0.0659762
0.0648729
0.0638501
0.0629943
0.0622366
0.0615452
0.0609021
0.0602887
0.0596964
0.0591274
0.0585799
0.0580536
0.0575486
0.0570604
0.0565899
0.056138
0.123146
0.114112
0.106888
0.100917
0.0958761
0.0914679
0.0874275
0.083839
0.0805215
0.0774793
0.0746935
0.0722696
0.0702591
0.0686393
0.0673078
0.0661451
0.0650618
0.0641249
0.0632732
0.0624803
0.0617262
0.0610087
0.0603236
0.0596697
0.0590439
0.0584472
0.0578759
0.0573282
0.0568037
0.0563007
0.123147
0.114118
0.106897
0.100933
0.0958911
0.0915214
0.0875616
0.08406
0.0808583
0.0779623
0.07533
0.0730361
0.0710704
0.0694415
0.0680719
0.0668687
0.0657572
0.0647609
0.0638463
0.0629865
0.062172
0.0613995
0.0606654
0.0599659
0.0592976
0.058661
0.0580536
0.0574718
0.0569147
0.0563822
0.123148
0.114119
0.106901
0.10094
0.095894
0.0915445
0.0876311
0.0841703
0.0810243
0.0781849
0.0756237
0.0733854
0.0714442
0.0698169
0.0684339
0.0672169
0.0660993
0.0650796
0.064133
0.0632441
0.0624043
0.0616094
0.0608556
0.0601384
0.0594532
0.0587996
0.0581772
0.0575815
0.0570106
0.0564657
0.13447
0.133885
0.133121
0.132213
0.131184
0.130059
0.128851
0.12758
0.126267
0.12494
0.123607
0.12232
0.121045
0.119825
0.118628
0.117443
0.116278
0.1151
0.113943
0.112803
0.111674
0.110548
0.109425
0.108308
0.107191
0.106082
0.10499
0.103911
0.102846
0.101802
0.13447
0.133884
0.133121
0.132213
0.131179
0.130051
0.128836
0.127554
0.126226
0.124884
0.123542
0.122276
0.120988
0.119773
0.118579
0.117395
0.116228
0.115053
0.113893
0.112748
0.111613
0.110482
0.109351
0.108218
0.107083
0.105956
0.104839
0.103732
0.102635
0.101556
0.13447
0.133884
0.13312
0.132212
0.13117
0.130034
0.128803
0.127498
0.126139
0.124767
0.12341
0.122156
0.120883
0.119678
0.11849
0.117304
0.116136
0.114951
0.113782
0.112621
0.111461
0.110293
0.109118
0.107937
0.106753
0.105576
0.104402
0.103232
0.102067
0.100915
0.13447
0.133883
0.133118
0.132209
0.131158
0.13001
0.128756
0.127414
0.126007
0.124597
0.12322
0.122031
0.120764
0.119585
0.118408
0.117216
0.116023
0.114818
0.113622
0.11242
0.111198
0.109948
0.108669
0.107377
0.106072
0.104761
0.103444
0.102123
0.100801
0.0994848
0.13447
0.133883
0.133116
0.132204
0.131182
0.129972
0.12869
0.127299
0.125825
0.114817
0.100948
0.111364
0.120727
0.119586
0.118412
0.117182
0.115923
0.114651
0.113375
0.112084
0.110774
0.109416
0.108013
0.106577
0.105105
0.103596
0.102047
0.100462
0.0988442
0.0971982
0.13447
0.133883
0.133115
0.132198
0.131193
0.129936
0.128622
0.12717
0.111199
0.074164
0.0636821
0.0748829
0.0860349
0.102169
0.117897
0.116555
0.115104
0.113592
0.112009
0.110303
0.108446
0.106462
0.104371
0.102206
0.0999708
0.0976742
0.095314
0.0928945
0.0904167
0.0879249
0.13447
0.133882
0.133123
0.132207
0.131163
0.129937
0.128546
0.127021
0.0720822
0.0491211
0.0376517
0.0403001
0.0584755
0.0708015
0.108931
0.109534
0.105844
0.102147
0.0984745
0.0944991
0.0904874
0.0865702
0.0828383
0.0793129
0.0759797
0.0727868
0.0696468
0.0665008
0.0633379
0.0603572
0.13447
0.133885
0.133122
0.132208
0.131182
0.129927
0.128454
0.0938858
0.0484836
0.028209
0.0278493
0.0200176
0.0432787
0.0442126
0.0298216
0.0410813
0.0384544
0.0348815
0.0323802
0.0305217
0.0290935
0.0279988
0.0271558
0.0265244
0.026083
0.0258223
0.0257364
0.0258184
0.0260485
0.0264584
0.134471
0.133887
0.13313
0.132185
0.131155
0.129891
0.128421
0.0735553
0.0410208
0.0175562
0.0128305
0.00433335
0.0317039
0.0258144
0.0178008
0.0192073
0.0203513
0.0214474
0.0225736
0.0237491
0.0249764
0.0262305
0.0274804
0.02869
0.0298236
0.0308515
0.0317523
0.0325074
0.0331173
0.0335536
0.134471
0.133884
0.133136
0.13222
0.131161
0.129882
0.128459
0.060055
0.0279646
0.00927551
0.00597778
0.00220107
0.00413835
0.00834892
0.013063
0.013627
0.0142017
0.01485
0.0155963
0.0164091
0.0172811
0.0181964
0.0191375
0.0200867
0.0210291
0.021952
0.0228458
0.0236969
0.0245172
0.0252521
0.134471
0.133884
0.133136
0.132219
0.131158
0.129875
0.128047
0.0585497
0.0250817
0.00595924
0.00462379
0.00871213
0.0133096
0.0136823
0.0140245
0.0143832
0.0147815
0.0152153
0.0156859
0.0161873
0.0167218
0.0172883
0.0178864
0.0185157
0.019176
0.0198631
0.0205843
0.0213096
0.134471
0.133886
0.133128
0.132182
0.131147
0.12987
0.128376
0.0688984
0.0306109
0.0107407
0.00871806
0.00284092
0.0195666
0.0158603
0.0112066
0.0114988
0.0117976
0.012136
0.0125194
0.0129438
0.0134124
0.0139151
0.0144495
0.0150136
0.0156018
0.0162125
0.0168431
0.0174902
0.0181558
0.0188262
0.13447
0.133884
0.133119
0.132201
0.131167
0.129894
0.12838
0.0837523
0.0405059
0.0213428
0.0138336
0.00948605
0.0180217
0.0184572
0.0325493
0.0486054
0.046266
0.0449331
0.0441968
0.0438684
0.0438933
0.0441529
0.0445473
0.0449985
0.045441
0.045858
0.0462353
0.0465672
0.04685
0.0470742
0.13447
0.133881
0.133119
0.132198
0.131142
0.129893
0.128453
0.113786
0.0604827
0.0371118
0.0278771
0.0296132
0.0399527
0.0530894
0.0932707
0.0951699
0.0933863
0.0919519
0.090803
0.0898755
0.089162
0.0886334
0.0882414
0.087873
0.0875116
0.0871545
0.0867927
0.0864278
0.0860552
0.0856783
0.134469
0.133881
0.133111
0.132188
0.13117
0.129886
0.128522
0.126972
0.091472
0.0571307
0.0457044
0.053487
0.0659713
0.0972749
0.110553
0.109284
0.10812
0.10714
0.106305
0.105563
0.104881
0.104252
0.103648
0.103051
0.102469
0.101895
0.101326
0.100769
0.100223
0.0996962
0.13447
0.133881
0.133111
0.132192
0.131156
0.12992
0.12859
0.127111
0.125482
0.0883538
0.0718313
0.0783441
0.102039
0.116347
0.115095
0.113931
0.112844
0.111858
0.110953
0.110101
0.109292
0.108506
0.10774
0.106994
0.106267
0.105561
0.104872
0.104195
0.103537
0.102903
0.13447
0.133882
0.133113
0.132196
0.131132
0.129958
0.128659
0.127241
0.125711
0.124115
0.106806
0.116668
0.119221
0.11781
0.116572
0.115414
0.114326
0.11329
0.112326
0.111408
0.110528
0.109671
0.108827
0.108008
0.107206
0.106423
0.105662
0.104918
0.104191
0.103487
0.13447
0.133882
0.133114
0.132199
0.131143
0.129982
0.128711
0.127339
0.12588
0.124368
0.122821
0.121324
0.11979
0.118439
0.117217
0.116073
0.115008
0.113946
0.112953
0.111999
0.111067
0.110156
0.109265
0.108394
0.107547
0.106718
0.10591
0.105123
0.104355
0.103609
0.13447
0.133883
0.133115
0.1322
0.131152
0.13
0.128746
0.127405
0.125991
0.124537
0.123052
0.121615
0.120142
0.118813
0.117597
0.116458
0.115394
0.11429
0.113273
0.112293
0.111334
0.110397
0.109482
0.108585
0.107709
0.106855
0.106021
0.105208
0.104414
0.103644
0.13447
0.133883
0.133115
0.1322
0.131156
0.130008
0.128764
0.127437
0.126046
0.124621
0.123169
0.121743
0.120323
0.11901
0.117801
0.116672
0.115598
0.114493
0.113469
0.112473
0.111499
0.110548
0.109619
0.108713
0.107823
0.106956
0.106111
0.105285
0.104479
0.103698
0.134739
0.134632
0.134511
0.134371
0.134212
0.134029
0.133827
0.133605
0.133366
0.133111
0.132831
0.132519
0.132185
0.13184
0.131482
0.131107
0.130712
0.130301
0.129872
0.129428
0.128968
0.12849
0.127993
0.12748
0.126951
0.126405
0.125845
0.125275
0.124695
0.124112
0.134739
0.134632
0.134511
0.134371
0.134211
0.134029
0.133827
0.133605
0.133369
0.133118
0.132845
0.132553
0.132214
0.131874
0.131519
0.131144
0.130748
0.130336
0.129906
0.129461
0.129
0.128519
0.128018
0.127499
0.126963
0.126408
0.125837
0.125254
0.124659
0.124058
0.134739
0.134632
0.134511
0.134372
0.134211
0.134029
0.133827
0.133607
0.133376
0.133138
0.132885
0.132627
0.13229
0.131962
0.131613
0.131238
0.130839
0.130422
0.129987
0.129534
0.129063
0.128567
0.12805
0.127512
0.126952
0.126371
0.125772
0.125158
0.124527
0.123886
0.134739
0.134632
0.134511
0.134372
0.13421
0.134029
0.133828
0.133613
0.133397
0.133193
0.132988
0.132771
0.132486
0.13218
0.131839
0.131459
0.131052
0.130621
0.130172
0.129701
0.129202
0.128673
0.128114
0.127527
0.126909
0.126265
0.125597
0.124904
0.124188
0.123455
0.134739
0.134632
0.134511
0.134372
0.134211
0.13403
0.133832
0.13363
0.13345
0.133322
0.115479
0.125741
0.132826
0.132551
0.13221
0.131802
0.131353
0.130878
0.13038
0.129854
0.129288
0.128685
0.128043
0.12736
0.126635
0.125871
0.125066
0.124217
0.123325
0.122395
0.134739
0.134633
0.134511
0.134372
0.134214
0.134031
0.133841
0.133667
0.131542
0.0896478
0.0757692
0.085217
0.0996509
0.123355
0.132006
0.131532
0.130971
0.130356
0.129682
0.128928
0.128082
0.127149
0.126129
0.125024
0.123837
0.122574
0.121235
0.11982
0.118334
0.116793
0.134739
0.134633
0.134512
0.134372
0.134216
0.134036
0.13386
0.133737
0.0905304
0.0583226
0.044139
0.0482752
0.0651422
0.0873272
0.12717
0.127042
0.125376
0.123488
0.12142
0.119166
0.116773
0.11428
0.111725
0.109128
0.10651
0.103866
0.10118
0.0984415
0.095653
0.0928458
0.134739
0.134633
0.134513
0.134372
0.134219
0.134043
0.133891
0.116033
0.0613468
0.0371782
0.0301064
0.0224645
0.0434459
0.0479179
0.0629887
0.0913373
0.0835031
0.0768997
0.0711565
0.0661476
0.0618369
0.0581491
0.0549466
0.0521498
0.0496747
0.0474707
0.0455072
0.0437764
0.0422502
0.0409813
0.134739
0.134633
0.134513
0.134375
0.134217
0.134051
0.133926
0.089843
0.0436025
0.0219665
0.0149316
0.0062571
0.0319772
0.0325897
0.0235941
0.0227044
0.0221421
0.0218536
0.0217238
0.021727
0.0218234
0.0219847
0.0221891
0.0224185
0.022664
0.0229192
0.0231799
0.0234418
0.0237038
0.0239539
0.134739
0.134633
0.134513
0.134378
0.134223
0.13407
0.133956
0.0750874
0.0341519
0.0170517
0.00746351
0.00167502
0.00398848
0.0120013
0.0137887
0.0145693
0.0152224
0.0158391
0.0164415
0.0170121
0.0175545
0.0180682
0.018551
0.019003
0.0194251
0.0198187
0.0201856
0.0205259
0.0208484
0.0211332
0.134739
0.134633
0.134513
0.134378
0.134223
0.134071
0.13396
0.0727746
0.0330593
0.0148435
0.00709038
0.00197136
0.0194772
0.0125846
0.013226
0.0137361
0.0141564
0.0145594
0.0149566
0.0153577
0.0157658
0.0161791
0.0165973
0.0170202
0.0174479
0.017882
0.0183233
0.018773
0.0192348
0.0197046
0.134739
0.134633
0.134513
0.134375
0.134218
0.134053
0.133937
0.0836997
0.0394884
0.01932
0.00958819
0.0018
0.0043818
0.00534455
0.0262521
0.0261165
0.026057
0.026177
0.0263384
0.0264488
0.0265438
0.0266492
0.0267604
0.0268792
0.0270035
0.0271379
0.0272794
0.0274263
0.0275794
0.0277257
0.134739
0.134633
0.134513
0.134372
0.134219
0.134045
0.133901
0.104439
0.0535189
0.0304907
0.017681
0.0118363
0.0229469
0.02605
0.0507444
0.0888988
0.0869643
0.0854414
0.0841262
0.0829522
0.0819277
0.0810428
0.0802813
0.0795869
0.0789515
0.0783508
0.0777801
0.0772265
0.0766848
0.0761563
0.134739
0.134632
0.134512
0.134372
0.134216
0.134035
0.133866
0.133773
0.0772309
0.0472575
0.0353503
0.0381951
0.0479666
0.0682634
0.110424
0.121089
0.120181
0.119362
0.118614
0.117907
0.117237
0.116577
0.115943
0.115325
0.114726
0.114133
0.113553
0.112978
0.112412
0.111877
0.134739
0.134632
0.134511
0.134371
0.134213
0.13403
0.133841
0.133679
0.110643
0.0718952
0.057574
0.0636482
0.0780494
0.109472
0.12955
0.129058
0.128553
0.128071
0.127611
0.127163
0.126726
0.12629
0.125851
0.125421
0.124994
0.124568
0.124143
0.123717
0.123297
0.122907
0.134739
0.134632
0.134511
0.134371
0.134209
0.134026
0.133827
0.133628
0.133462
0.106755
0.0868935
0.0931783
0.119782
0.13186
0.13148
0.131066
0.130647
0.130225
0.129813
0.129402
0.128989
0.128575
0.128158
0.127741
0.127326
0.126912
0.126497
0.126082
0.125671
0.125282
0.134739
0.134632
0.134511
0.134371
0.134208
0.134024
0.133819
0.133602
0.13339
0.1332
0.126476
0.132773
0.132412
0.132044
0.131664
0.131269
0.130876
0.130463
0.130061
0.12966
0.129252
0.12884
0.128425
0.128004
0.127582
0.127159
0.126735
0.126309
0.125884
0.125472
0.134739
0.134632
0.134511
0.134371
0.134208
0.134024
0.133817
0.133591
0.133357
0.133122
0.132876
0.132611
0.132225
0.131854
0.131482
0.131103
0.130726
0.130322
0.129929
0.129532
0.129128
0.128717
0.128301
0.12788
0.127453
0.127024
0.126593
0.12616
0.125727
0.125299
0.134739
0.134632
0.13451
0.13437
0.134209
0.134024
0.133816
0.133587
0.133344
0.133089
0.132815
0.13251
0.132133
0.131758
0.131385
0.13101
0.130635
0.130242
0.129845
0.129445
0.129037
0.128623
0.128203
0.127778
0.127346
0.126912
0.126475
0.126035
0.125595
0.125158
0.134739
0.134632
0.13451
0.13437
0.134209
0.134023
0.133816
0.133586
0.13334
0.133079
0.132795
0.13247
0.132104
0.131729
0.131357
0.130984
0.130609
0.130219
0.129823
0.129421
0.129012
0.128595
0.128173
0.127746
0.127314
0.126875
0.126436
0.125994
0.125549
0.125108
0.134745
0.134656
0.134566
0.134476
0.134385
0.134294
0.134205
0.13412
0.13404
0.133964
0.133882
0.133784
0.133672
0.133555
0.133435
0.133308
0.133174
0.133033
0.132885
0.132731
0.13257
0.132401
0.132223
0.132037
0.131842
0.131638
0.131425
0.131203
0.130973
0.130739
0.134745
0.134656
0.134566
0.134476
0.134385
0.134295
0.134206
0.134123
0.134048
0.133978
0.133906
0.133817
0.133712
0.1336
0.133484
0.133359
0.133226
0.133086
0.13294
0.132787
0.132627
0.132459
0.132283
0.132097
0.131902
0.131698
0.131483
0.131259
0.131027
0.130789
0.134745
0.134656
0.134566
0.134476
0.134385
0.134296
0.13421
0.134131
0.134065
0.134013
0.133965
0.133899
0.133812
0.133713
0.133604
0.133483
0.133353
0.133215
0.133071
0.13292
0.132761
0.132594
0.132417
0.13223
0.132033
0.131825
0.131606
0.131376
0.131135
0.130888
0.134745
0.134656
0.134566
0.134476
0.134386
0.134298
0.134216
0.134146
0.134101
0.134086
0.13409
0.134073
0.134024
0.13395
0.133855
0.13374
0.133612
0.133475
0.133331
0.13318
0.133019
0.132847
0.132664
0.132468
0.13226
0.132038
0.131802
0.131553
0.131289
0.131015
0.134745
0.134656
0.134566
0.134477
0.134387
0.134301
0.134225
0.134173
0.134168
0.134228
0.134332
0.134396
0.134407
0.134368
0.134284
0.134162
0.134019
0.133867
0.133708
0.133538
0.133356
0.133161
0.132951
0.132726
0.132483
0.132221
0.131939
0.131637
0.131311
0.130966
0.134745
0.134656
0.134567
0.134477
0.134389
0.134307
0.134241
0.134219
0.134287
0.113634
0.0929146
0.101558
0.120224
0.134548
0.134486
0.134342
0.134157
0.133956
0.133738
0.1335
0.133234
0.132936
0.132605
0.132237
0.131828
0.131377
0.130882
0.130342
0.129754
0.129129
0.134745
0.134656
0.134567
0.134478
0.134391
0.134314
0.134264
0.134294
0.116908
0.0751388
0.0600181
0.0715892
0.0809527
0.101012
0.133197
0.132939
0.132565
0.132104
0.131557
0.130918
0.130172
0.12933
0.128391
0.127356
0.126228
0.125007
0.1237
0.122305
0.120823
0.119274
0.134745
0.134656
0.134567
0.134478
0.134394
0.134322
0.134296
0.134397
0.0825286
0.0511783
0.0344246
0.0365212
0.0521925
0.0698556
0.115664
0.12418
0.121892
0.119386
0.116732
0.113928
0.11092
0.107797
0.104611
0.101423
0.0982503
0.0951351
0.0920838
0.0891142
0.0862276
0.0835068
0.134745
0.134656
0.134567
0.13448
0.134396
0.134331
0.13433
0.117389
0.06191
0.0352527
0.0243667
0.0169329
0.0351237
0.0343534
0.053012
0.0849714
0.0782716
0.0729195
0.0684275
0.0644655
0.0612217
0.058658
0.0566428
0.0550681
0.0538541
0.0529115
0.0521723
0.051587
0.0511285
0.0507798
0.134745
0.134656
0.134568
0.13448
0.134399
0.134338
0.134356
0.100921
0.0514678
0.0266081
0.0147882
0.00810966
0.0209156
0.0218475
0.0292055
0.0392111
0.0363942
0.0345732
0.03332
0.0324251
0.0317616
0.0312718
0.0309327
0.0306958
0.0305319
0.0304326
0.0303825
0.0303683
0.0303804
0.030399
0.134745
0.134656
0.134568
0.134481
0.134399
0.134339
0.134361
0.0986202
0.0496581
0.0254737
0.0128676
0.00677865
0.0174533
0.0201847
0.0280104
0.0379235
0.0358095
0.0343529
0.0332869
0.0324668
0.0318377
0.0313365
0.0309355
0.0305948
0.0303081
0.0300569
0.0298398
0.0296493
0.0294783
0.0293448
0.134745
0.134656
0.134567
0.13448
0.134397
0.134334
0.134343
0.109997
0.0572078
0.0314516
0.0163221
0.00988963
0.0232093
0.0254792
0.0455686
0.0842769
0.0810064
0.0783102
0.0759428
0.0737026
0.0716036
0.0696842
0.067958
0.0664072
0.0650219
0.0637473
0.0625278
0.061352
0.0602434
0.0592333
0.134745
0.134656
0.134567
0.134479
0.134395
0.134326
0.134312
0.132868
0.0736859
0.0441796
0.0297173
0.0300172
0.0398584
0.0532052
0.0886812
0.119708
0.11859
0.117503
0.116423
0.115344
0.114279
0.113241
0.112241
0.111284
0.110364
0.109465
0.108558
0.107625
0.10668
0.105756
0.134745
0.134656
0.134567
0.134478
0.134392
0.134317
0.134277
0.134337
0.101765
0.0634762
0.0493542
0.0577334
0.0645893
0.0847412
0.125543
0.130803
0.130527
0.130232
0.129916
0.129579
0.129231
0.128874
0.12851
0.128141
0.127767
0.127389
0.127003
0.12661
0.12623
0.125961
0.134745
0.134656
0.134567
0.134478
0.13439
0.134309
0.13425
0.134249
0.134366
0.0940445
0.0744275
0.0796462
0.0975676
0.12792
0.13388
0.133741
0.133578
0.133405
0.133227
0.133042
0.132853
0.132661
0.132466
0.132268
0.132067
0.131865
0.131659
0.131451
0.131257
0.13116
0.134745
0.134656
0.134566
0.134477
0.134388
0.134303
0.134231
0.134191
0.13422
0.132525
0.10898
0.116297
0.134487
0.134445
0.134352
0.134226
0.134087
0.133941
0.133793
0.13364
0.133482
0.13332
0.133154
0.132985
0.132813
0.132637
0.132459
0.132278
0.132106
0.131995
0.134745
0.134656
0.134566
0.134476
0.134386
0.134299
0.134218
0.134156
0.134129
0.134156
0.134219
0.134251
0.13422
0.134145
0.134045
0.133927
0.133801
0.133667
0.13353
0.133387
0.133239
0.133086
0.132929
0.132767
0.132601
0.132429
0.132255
0.132078
0.131902
0.131757
0.134745
0.134656
0.134566
0.134476
0.134385
0.134296
0.13421
0.134135
0.134079
0.13405
0.134037
0.134004
0.133929
0.133831
0.13372
0.133601
0.133475
0.133344
0.133208
0.133067
0.132921
0.13277
0.132614
0.132453
0.132287
0.132117
0.131942
0.131763
0.131583
0.131415
0.134745
0.134656
0.134566
0.134476
0.134385
0.134294
0.134206
0.134124
0.134054
0.133998
0.133947
0.133877
0.133777
0.133664
0.133546
0.133423
0.133294
0.133161
0.133022
0.132879
0.132731
0.132578
0.13242
0.132257
0.13209
0.131918
0.13174
0.13156
0.131376
0.131195
0.134745
0.134656
0.134566
0.134476
0.134385
0.134294
0.134204
0.134119
0.134043
0.133977
0.133911
0.133826
0.133717
0.133598
0.133476
0.133352
0.133222
0.133087
0.132948
0.132803
0.132654
0.1325
0.132341
0.132177
0.132008
0.131835
0.131657
0.131474
0.131288
0.131103
0.134745
0.134656
0.134568
0.13448
0.134393
0.134309
0.134227
0.134152
0.134083
0.134021
0.133957
0.133885
0.133804
0.133721
0.133638
0.133553
0.133467
0.133379
0.13329
0.133199
0.133108
0.133014
0.132919
0.132821
0.132722
0.13262
0.132515
0.132407
0.132297
0.132186
0.134745
0.134656
0.134568
0.13448
0.134393
0.134309
0.134228
0.134154
0.134089
0.134032
0.133976
0.133911
0.133835
0.133757
0.133677
0.133594
0.133509
0.133422
0.133335
0.133246
0.133156
0.133064
0.132971
0.132876
0.132778
0.132678
0.132575
0.132469
0.13236
0.132251
0.134745
0.134656
0.134568
0.13448
0.134394
0.13431
0.134231
0.134161
0.134104
0.134059
0.134021
0.133973
0.133911
0.133843
0.133769
0.133691
0.133609
0.133526
0.133442
0.133357
0.133271
0.133183
0.133094
0.133002
0.132908
0.132812
0.132713
0.13261
0.132504
0.132397
0.134745