/*--------------------------------*- C++ -*----------------------------------*\
| =========                 |                                                 |
| \\      /  F ield         | OpenFOAM: The Open Source CFD Toolbox           |
|  \\    /   O peration     | Version:  2512                                  |
|   \\  /    A nd           | Website:  www.openfoam.com                      |
|    \\/     M anipulation  |                                                 |
\*---------------------------------------------------------------------------*/
FoamFile
{
    version     2.0;
    format      ascii;
    arch        "LSB;label=32;scalar=64";
    class       volScalarField;
    location    "280";
    object      omega;
}
// * * * * * * * * * * * * * * * * * * * * * * * * * * * * * * * * * * * * * //

dimensions      [0 0 -1 0 0 0 0];

internalField   nonuniform List<scalar> 
90398
(
16.0849
15.8156
15.5571
15.3102
15.0741
14.8498
14.6409
14.4234
14.229
14.0393
13.8599
13.6942
13.5291
13.3647
13.21
13.0589
12.9116
12.7688
12.6291
12.4928
12.3603
12.2312
12.1056
11.9832
11.8639
11.7478
11.6345
11.5241
11.4165
11.3116
16.085
15.8158
15.5576
15.311
15.0753
14.8509
14.641
14.4244
14.2298
14.0393
13.8626
13.6976
13.5327
13.3688
13.2144
13.0633
12.9158
12.773
12.6333
12.4969
12.364
12.2347
12.1089
11.9863
11.8668
11.7505
11.637
11.5264
11.4185
11.3134
16.085
15.816
15.5582
15.312
15.0761
14.8514
14.6385
14.4267
14.2332
14.0432
13.8673
13.7039
13.5401
13.3768
13.2229
13.0719
12.9243
12.7812
12.6407
12.5036
12.3704
12.2408
12.1147
11.9917
11.872
11.7553
11.6415
11.5305
11.4223
11.3168
16.085
15.8161
15.559
15.3125
15.0763
14.8511
14.6395
14.4333
14.2365
14.0476
13.8745
13.7119
13.5504
13.3898
13.237
13.0862
12.9383
12.7949
12.6536
12.5158
12.382
12.2517
12.1249
12.0014
11.881
11.7637
11.6493
11.5377
11.429
11.3232
16.0851
15.8162
15.5596
15.3128
15.0757
14.8489
14.6383
14.4359
14.2395
14.054
13.8856
13.6994
13.543
13.4119
13.2612
13.1105
12.962
12.8184
12.6766
12.5382
12.4035
12.2726
12.1456
12.0222
11.9025
11.7865
11.6744
11.5665
11.4627
11.3637
16.0852
15.8163
15.5597
15.3138
15.0771
14.8455
14.6227
14.4343
14.2434
14.0419
13.8842
13.7403
13.5904
13.4441
13.298
13.1485
12.9985
12.8522
12.708
12.5686
12.4351
12.3089
12.1912
12.0845
11.9909
11.9123
11.8502
11.8053
11.7787
11.7684
16.0852
15.8163
15.5592
15.3131
15.0779
14.8461
14.6216
14.4326
14.244
14.0806
13.9271
13.7704
13.6339
13.4798
13.3477
13.2124
13.0816
12.9579
12.8447
12.7563
12.7132
12.7296
12.8125
12.9611
13.1695
13.4268
13.7202
14.042
14.3704
14.7268
16.0852
15.8159
15.5561
15.3056
15.0729
14.8504
14.6254
14.4271
14.2508
28.1369
27.4589
26.8413
26.3292
25.9849
14.4944
14.8128
15.1954
15.6752
16.3187
17.1604
18.0435
18.8998
19.7019
20.435
21.0901
21.6595
22.1346
22.5109
22.7637
22.9504
16.0851
15.8159
15.5553
15.3011
15.0646
14.848
14.6339
14.4357
28.5014
27.8256
27.4561
27.3313
28.792
34.9095
43.3525
42.6421
41.7361
40.8525
39.987
39.0404
38.0212
36.9427
35.8174
34.6607
33.4911
32.3272
31.1853
30.0772
29.0154
27.9858
16.0851
15.8162
15.558
15.3061
15.0659
14.8482
14.6421
14.444
28.5127
55.8975
62.6147
78.1141
151.871
184.331
57.6077
53.1672
49.2328
45.8709
42.9858
40.4536
38.1911
36.1492
34.2925
32.5976
31.0485
29.6337
28.3434
27.1686
26.101
25.1286
16.0851
15.8162
15.558
15.306
15.0658
14.8481
14.6421
14.4446
28.5229
56.061
292.588
286.942
230.266
53.6754
49.4709
45.7575
42.509
39.7244
37.3001
35.1548
33.2051
31.4389
29.8452
28.4114
27.1251
25.9742
24.9459
24.0294
23.2071
16.0851
15.8158
15.5551
15.3008
15.0644
14.8478
14.6342
14.4361
28.511
27.9556
65.5442
230.531
248.962
219.585
44.1697
41.5016
39.0041
36.5411
34.171
31.9519
29.8837
28.0157
26.3498
24.8799
23.592
22.4723
21.5049
20.6727
19.9582
19.3447
16.0851
15.8158
15.5558
15.3053
15.0725
14.8501
14.6255
14.4258
14.2521
28.1445
28.1003
38.359
47.0217
46.397
18.3459
18.3602
18.1255
17.6376
17.072
16.4897
15.9582
15.4909
15.078
14.7121
14.3874
14.0997
13.8436
13.6154
13.4115
13.2294
16.0851
15.8161
15.5589
15.3128
15.0775
14.8458
14.6215
14.4335
14.2438
14.0883
13.9837
13.942
13.876
13.6981
13.5394
13.3904
13.2477
13.0978
12.9523
12.8131
12.6817
12.5581
12.441
12.3296
12.2233
12.122
12.0247
11.9317
11.8425
11.7578
16.0851
15.8161
15.5595
15.3134
15.0767
14.8451
14.6225
14.4348
14.245
14.0428
13.8909
13.7552
13.6114
13.4608
13.3093
13.1589
13.0142
12.8757
12.7407
12.6113
12.4883
12.3711
12.2589
12.151
12.0471
11.9468
11.8498
11.7561
11.6653
11.5779
16.0851
15.816
15.5594
15.3125
15.0753
14.8485
14.6379
14.4359
14.2405
14.0567
13.8895
13.7079
13.5557
13.4249
13.2735
13.1241
12.9799
12.8414
12.7065
12.5766
12.4514
12.3305
12.2136
12.1003
11.9904
11.8839
11.7806
11.6802
11.5827
11.4884
16.085
15.816
15.5588
15.3123
15.0759
14.8507
14.6389
14.4328
14.2363
14.0486
13.8775
13.7178
13.5595
13.4
13.2477
13.0982
12.9534
12.8137
12.6772
12.5451
12.4173
12.2935
12.1735
12.0571
11.944
11.8343
11.7277
11.6241
11.5233
11.4255
16.085
15.8159
15.5581
15.3118
15.0758
14.8509
14.6378
14.4256
14.2321
14.0422
13.8672
13.7053
13.544
13.3823
13.2296
13.0803
12.9356
12.7957
12.6593
12.5269
12.3986
12.2739
12.1529
12.0353
11.9209
11.8099
11.7018
11.5967
11.4946
11.3952
16.085
15.8158
15.5576
15.3109
15.075
14.8503
14.6399
14.4227
14.2275
14.0366
13.8601
13.6961
13.5333
13.3714
13.2186
13.0694
12.9245
12.7846
12.6485
12.5159
12.3871
12.262
12.1404
12.022
11.9069
11.7951
11.6862
11.5802
11.4771
11.3767
16.0849
15.8156
15.5571
15.3101
15.0737
14.8489
14.6393
14.4209
14.2255
14.0352
13.8558
13.691
13.5277
13.3655
13.2127
13.0638
12.9192
12.7795
12.6435
12.5111
12.3826
12.2576
12.136
12.0177
11.9026
11.7906
11.6817
11.5755
11.4722
11.3716
1.93936
2.08074
2.20689
2.32067
2.42408
2.51842
2.60771
2.68941
2.76593
2.83606
2.89928
2.95313
2.99874
3.03892
3.07536
3.10849
3.13856
3.16757
3.19393
3.21832
3.24119
3.26273
3.28349
3.30352
3.32281
3.34132
3.35896
3.37575
3.39168
3.40673
1.93937
2.08076
2.20699
2.32084
2.42416
2.51901
2.60956
2.6924
2.77047
2.84197
2.90667
2.96118
3.00623
3.04636
3.08261
3.11568
3.14563
3.17463
3.20103
3.22556
3.24861
3.27043
3.29151
3.31213
3.33232
3.35194
3.37097
3.38933
3.40696
3.42384
1.93938
2.08087
2.20719
2.32126
2.42457
2.52041
2.61318
2.69855
2.77998
2.85552
2.92364
2.97988
3.02458
3.06423
3.09996
3.13277
3.16304
3.19194
3.21873
3.24399
3.26824
3.29159
3.31463
3.33733
3.35979
3.38189
3.40368
3.42511
3.44609
3.46668
1.93941
2.08101
2.2075
2.32192
2.42558
2.52261
2.61842
2.70805
2.79516
2.87968
2.95458
3.01132
3.05692
3.09636
3.13149
3.1639
3.1944
3.22347
3.25104
3.27793
3.30549
3.33405
3.36323
3.39282
3.42267
3.4526
3.48253
3.51228
3.54176
3.57096
1.93943
2.08117
2.20794
2.32281
2.42673
2.52414
2.62433
2.72094
2.81956
2.92195
3.00971
3.06892
3.11501
3.15374
3.18784
3.2195
3.25009
3.27967
3.30847
3.33694
3.36545
3.39442
3.4247
3.45817
3.49464
3.53393
3.57594
3.62036
3.66693
3.71615
1.93949
2.08135
2.20835
2.3238
2.42875
2.5228
2.62723
2.73851
2.86034
2.99244
3.09526
3.15607
3.20956
3.2482
3.27988
3.31081
3.3428
3.37632
3.41374
3.45862
3.5119
3.57213
3.63876
3.71157
3.79073
3.87632
3.96864
4.06822
4.17716
4.29594
1.9394
2.08136
2.20784
2.32344
2.43169
2.52663
2.62837
2.76243
2.91666
3.09448
3.23275
3.29748
3.35387
3.39594
3.45699
3.53098
3.61716
3.71303
3.82428
3.96935
4.14246
4.33616
4.5514
4.79708
5.07512
5.38664
5.73119
6.11951
6.55747
7.07178
1.93925
2.08073
2.20468
2.3176
2.43408
2.53803
2.64126
2.80348
3.01481
3.32671
3.88905
4.20221
4.40576
4.64754
7.31204
8.9144
10.2389
11.4154
12.575
13.7525
14.8783
15.923
16.8806
17.7508
18.5468
19.3038
20.0385
20.7419
21.4006
21.9865
1.93923
2.0806
2.20451
2.31541
2.43178
2.54937
2.66706
2.84421
3.14539
4.24817
6.12273
7.59773
9.24343
19.0715
67.3977
62.5848
57.8622
53.9486
50.8035
48.2277
46.1687
44.5568
43.2742
42.1855
41.1608
40.0796
38.8924
37.5661
36.1723
34.5833
1.93924
2.08115
2.20651
2.31701
2.42739
2.55139
2.68208
2.87788
3.27534
5.43375
49.7292
345.208
243.051
285.259
143.436
104.58
82.9787
69.4184
60.1736
53.4191
48.2214
44.0548
40.5905
37.6264
35.0413
32.765
30.7575
28.9772
27.4099
25.9916
1.93925
2.08119
2.20661
2.3171
2.42775
2.55232
2.68473
2.8866
3.34047
7.16362
688.451
137.769
103.342
84.2144
71.952
63.283
56.6837
51.4055
47.0568
43.404
40.2961
37.6315
35.334
33.3453
31.6111
30.1079
28.7655
1.93925
2.08072
2.20462
2.31553
2.4326
2.55182
2.67374
2.86414
3.23413
5.72401
47.4571
200.172
275.561
360.129
75.233
66.2997
59.0204
52.9877
47.9363
43.6114
39.8993
36.6697
33.9038
31.5239
29.4791
27.7236
26.2163
24.9199
23.804
22.8427
1.93929
2.08091
2.20487
2.31832
2.43582
2.54202
2.65089
2.82214
3.0976
3.74855
6.91229
12.5586
17.358
19.2505
11.8815
11.9658
11.9435
11.7776
11.5116
11.171
10.7786
10.3661
9.95936
9.57092
9.20586
8.8718
8.56677
8.28904
8.03706
7.80774
1.93946
2.0816
2.20844
2.3247
2.43419
2.53168
2.63941
2.7889
2.97644
3.28091
3.75581
4.20305
4.51695
4.63028
4.71575
4.76648
4.78779
4.77566
4.74247
4.69549
4.63998
4.58214
4.52801
4.47645
4.42813
4.3829
4.34093
4.30197
4.26582
4.2321
1.93956
2.08164
2.20907
2.32527
2.43157
2.52822
2.638
2.76114
2.90952
3.09447
3.31822
3.50996
3.65861
3.7289
3.77057
3.79834
3.81672
3.81895
3.81076
3.79619
3.77812
3.75823
3.73995
3.72252
3.70614
3.69055
3.6759
3.66192
3.64846
3.63538
1.93952
2.08151
2.20874
2.32441
2.42971
2.52959
2.63442
2.74005
2.85664
2.99563
3.13711
3.26484
3.35858
3.41448
3.44895
3.47351
3.49247
3.50109
3.50423
3.50442
3.50338
3.50197
3.50018
3.4979
3.49518
3.49199
3.48845
3.4846
3.48038
3.47573
1.9395
2.08138
2.20836
2.3236
2.42862
2.52793
2.6277
2.72429
2.82376
2.92976
3.03844
3.13075
3.20488
3.25476
3.28917
3.31591
3.33933
3.35537
3.36706
3.37585
3.38258
3.38814
3.39287
3.3968
3.39994
3.40227
3.40379
3.40467
3.40488
3.40445
1.93948
2.08125
2.20808
2.32298
2.42761
2.52557
2.62178
2.71272
2.80313
2.89269
2.9804
3.05776
3.11992
3.16632
3.20104
3.22905
3.25407
3.27308
3.2886
3.30176
3.31346
3.32377
3.33281
3.34066
3.34746
3.35311
3.35776
3.36148
3.36429
3.36631
1.93947
2.08116
2.2079
2.32258
2.42719
2.52404
2.61767
2.70525
2.79041
2.87213
2.95017
3.01866
3.07568
3.1203
3.15536
3.18421
3.20974
3.23082
3.24872
3.26458
3.27876
3.29137
3.30253
3.31234
3.32096
3.32836
3.33461
3.33985
3.34412
3.34748
1.93946
2.08114
2.20781
2.32241
2.4271
2.52337
2.61556
2.70156
2.78429
2.86299
2.93689
3.00176
3.05649
3.10014
3.13518
3.1642
3.18963
3.21144
3.23056
3.24756
3.26276
3.27629
3.28827
3.29885
3.30816
3.3163
3.3232
3.32906
3.33393
3.33784
1.7777
1.77823
1.78103
1.78569
1.79197
1.79962
1.80858
1.81877
1.83006
1.84203
1.8541
1.86502
1.87541
1.88513
1.89476
1.90421
1.91334
1.92273
1.93191
1.94092
1.94987
1.9589
1.968
1.97714
1.9864
1.99566
2.00481
2.01388
2.02286
2.03169
1.77771
1.77823
1.78103
1.7857
1.79204
1.79974
1.80885
1.81928
1.83098
1.84351
1.85617
1.8672
1.87809
1.88799
1.89772
1.90725
1.91648
1.92588
1.93515
1.9443
1.95342
1.9626
1.97192
1.98141
1.99107
2.00076
2.01046
2.02016
2.02985
2.03947
1.77771
1.77824
1.78105
1.78572
1.79217
1.80003
1.80943
1.82043
1.83307
1.84694
1.86101
1.87285
1.8844
1.89474
1.90473
1.91447
1.92382
1.9335
1.94303
1.95258
1.96227
1.97225
1.98252
1.99306
2.00384
2.01474
2.02579
2.03699
2.0483
2.0597
1.77771
1.77825
1.78108
1.78578
1.79236
1.80045
1.81035
1.82233
1.83676
1.85323
1.87029
1.88356
1.89671
1.90794
1.91847
1.92857
1.9384
1.94851
1.95864
1.96903
1.97998
1.99161
2.00396
2.01686
2.0303
2.04418
2.05852
2.07329
2.08844
2.10393
1.77771
1.77826
1.78112
1.78587
1.79213
1.8011
1.81173
1.82531
1.84301
1.8642
1.8863
1.90205
1.91833
1.93137
1.9431
1.95395
1.96461
1.97563
1.98706
1.99916
2.01199
2.02607
2.04142
2.05792
2.07568
2.09474
2.11521
2.13708
2.16036
2.18508
1.77771
1.77826
1.78114
1.78597
1.79206
1.80184
1.81345
1.82968
1.85269
1.88342
1.91907
1.93989
1.95892
1.97523
1.98964
2.00336
2.01757
2.03307
2.05056
2.07114
2.09551
2.12353
2.15511
2.18996
2.22829
2.27027
2.31638
2.36695
2.42255
2.48245
1.77771
1.77827
1.78106
1.78589
1.79258
1.8022
1.81582
1.83629
1.86919
1.92493
2.004
2.05414
2.08297
2.10069
2.1405
2.1981
2.26611
2.33994
2.42065
2.51826
2.62747
2.74546
2.86987
3.00018
3.13685
3.28225
3.44123
3.61865
3.81888
4.03293
1.77771
1.77823
1.78107
1.78589
1.79245
1.8028
1.81892
1.84454
1.90091
2.04565
2.12864
2.42257
2.52648
2.62041
4.89801
6.1928
7.22671
8.07744
8.8041
9.44247
10.0193
10.5443
11.0362
11.5037
11.9537
12.3909
12.8187
13.2398
13.6567
14.0756
1.77771
1.77823
1.78098
1.78621
1.79289
1.80376
1.82166
1.85476
1.91205
2.2113
3.03276
7.97963
9.16923
10.9327
58.0989
54.6234
51.0269
47.8448
45.1094
42.7489
40.6735
38.8617
37.258
35.8134
34.4844
33.237
32.0478
30.9009
29.7892
28.7124
1.77771
1.77827
1.78093
1.78582
1.79293
1.80434
1.82336
1.86572
1.95582
2.51141
11.4228
669.807
368.289
335.95
150.702
112.165
89.6627
75.0562
64.8411
57.3614
51.6322
47.1207
43.4802
40.4752
37.9468
35.7838
33.9066
32.253
30.7877
29.4582
1.77771
1.77827
1.78094
1.78584
1.79298
1.8045
1.82392
1.86816
1.98029
2.89668
307.378
253.006
147.346
109.857
87.9958
73.8086
63.8341
56.4453
50.7162
46.1816
42.4882
39.4208
36.8332
34.6227
32.7136
31.0466
29.5822
28.2768
1.77771
1.77823
1.78101
1.78627
1.79305
1.80423
1.82317
1.85992
1.94058
2.64264
9.06871
391.468
589.584
276.967
53.8635
47.2494
41.8279
37.3285
33.6341
30.5766
28.0154
25.859
24.0447
22.4979
21.1843
20.0586
19.0908
18.2579
17.5384
16.9253
1.77771
1.77825
1.7811
1.78599
1.79271
1.80349
1.82088
1.84961
1.92798
2.19052
2.73943
5.02933
6.12027
6.71755
5.27141
5.68278
5.93627
6.06076
6.10007
6.08
6.01064
5.91028
5.79642
5.67963
5.56962
5.4684
5.3773
5.29621
5.22499
5.16404
1.77771
1.77829
1.78111
1.78603
1.79291
1.80299
1.81786
1.84119
1.88512
1.98741
2.17474
2.34581
2.45709
2.50775
2.54655
2.58704
2.62275
2.64979
2.66925
2.68257
2.68982
2.69168
2.68954
2.68661
2.68358
2.68045
2.6776
2.675
2.6728
2.67103
1.77772
1.77828
1.78121
1.78613
1.79242
1.80266
1.81535
1.83433
1.86336
1.91206
1.98917
2.05091
2.10234
2.12992
2.14855
2.16364
2.17608
2.18482
2.19055
2.19432
2.19686
2.19837
2.19939
2.20042
2.20134
2.2022
2.20302
2.20374
2.20437
2.20491
1.77771
1.77828
1.78119
1.78604
1.7925
1.80189
1.81342
1.82904
1.85135
1.88088
1.91871
1.95191
1.98421
2.00436
2.01816
2.029
2.03808
2.04538
2.05124
2.05624
2.06052
2.06444
2.06807
2.07142
2.07455
2.0774
2.08001
2.08239
2.08452
2.0864
1.77771
1.77827
1.78116
1.78595
1.79273
1.80119
1.81184
1.82532
1.84283
1.86508
1.89035
1.91381
1.93563
1.95108
1.96256
1.97224
1.98071
1.98842
1.99502
2.00091
2.00621
2.01119
2.01597
2.02041
2.0246
2.02855
2.03219
2.03556
2.03869
2.04156
1.77771
1.77826
1.78113
1.7859
1.79254
1.80073
1.81077
1.82293
1.83773
1.85532
1.87494
1.89296
1.90981
1.92274
1.93326
1.94245
1.95037
1.95833
1.96525
1.97159
1.97764
1.98341
1.9889
1.99411
1.99898
2.00363
2.00796
2.01201
2.01578
2.01928
1.77771
1.77826
1.78111
1.78587
1.7924
1.80042
1.81008
1.82149
1.83485
1.85006
1.86653
1.88165
1.89606
1.90781
1.91787
1.92678
1.93456
1.943
1.95019
1.95685
1.96324
1.96934
1.97516
1.98072
1.98598
1.99097
1.99569
2.00011
2.00426
2.00812
1.77771
1.77825
1.7811
1.78587
1.79233
1.80028
1.80976
1.82081
1.83354
1.84773
1.86285
1.87702
1.89007
1.90123
1.91101
1.91967
1.92752
1.93591
1.94315
1.95003
1.95662
1.96291
1.96891
1.97462
1.98008
1.98522
1.9901
1.9947
1.99901
2.00304
1.77422
1.76859
1.76318
1.75803
1.75319
1.74873
1.74468
1.74114
1.73817
1.73572
1.73351
1.7312
1.72876
1.72645
1.72438
1.72246
1.72067
1.71901
1.71758
1.7163
1.71521
1.71435
1.7137
1.71325
1.713
1.71292
1.71304
1.71329
1.71368
1.71418
1.77422
1.76859
1.76318
1.75804
1.7532
1.74875
1.74474
1.74127
1.73844
1.73621
1.73428
1.73207
1.72995
1.72777
1.72579
1.72393
1.72219
1.72057
1.71919
1.71798
1.71697
1.71619
1.71564
1.71533
1.71522
1.71535
1.71568
1.71617
1.71683
1.71764
1.77422
1.76859
1.76319
1.75804
1.75323
1.7488
1.74486
1.74156
1.73906
1.73739
1.73618
1.7344
1.73296
1.73108
1.72929
1.72756
1.72593
1.72446
1.72325
1.72223
1.72146
1.72099
1.72081
1.7209
1.72124
1.7219
1.72278
1.7239
1.72525
1.72679
1.77422
1.76859
1.76319
1.75805
1.75326
1.74888
1.74508
1.74209
1.74026
1.73977
1.74014
1.73977
1.73904
1.73782
1.73645
1.73498
1.73354
1.73234
1.73142
1.73078
1.73051
1.73066
1.73121
1.73216
1.73352
1.73528
1.73742
1.73993
1.7428
1.746
1.77422
1.76859
1.7632
1.75807
1.75329
1.749
1.74542
1.74299
1.74245
1.74439
1.74792
1.74978
1.75144
1.7515
1.75095
1.74991
1.7488
1.74811
1.74779
1.74797
1.74879
1.75023
1.75231
1.75508
1.75857
1.76273
1.76759
1.77316
1.77945
1.78643
1.77423
1.7686
1.76321
1.75809
1.75333
1.74918
1.74594
1.7445
1.74634
1.75369
1.76584
1.77378
1.77828
1.78091
1.78223
1.78265
1.78318
1.7846
1.78706
1.79089
1.79623
1.80304
1.81136
1.82127
1.83277
1.84586
1.86062
1.87709
1.89532
1.91513
1.77423
1.7686
1.76321
1.75811
1.75338
1.74941
1.7467
1.74693
1.75377
1.77637
1.81767
1.85052
1.86402
1.86898
1.87781
1.89206
1.91052
1.93339
1.96078
1.99311
2.02984
2.07057
2.11492
2.16293
2.21449
2.2701
2.33048
2.39621
2.46796
2.5452
1.77423
1.7686
1.76321
1.75813
1.75345
1.74968
1.74771
1.75035
1.76916
1.83393
1.88557
2.08059
2.15797
2.18275
2.53757
2.7991
3.06836
3.33966
3.61921
3.90476
4.18874
4.46596
4.73843
5.00611
5.27245
5.53918
5.80722
6.0746
6.34374
6.60169
1.77423
1.76861
1.76322
1.75815
1.75355
1.74996
1.7488
1.75528
1.7945
1.97848
2.21876
4.05482
4.96451
5.04778
14.502
15.5198
16.3181
16.8656
17.2594
17.4823
17.5349
17.436
17.2145
16.9041
16.5284
16.1106
15.6685
15.2156
14.7602
14.3082
1.77424
1.76862
1.76324
1.75815
1.75359
1.75005
1.74979
1.76048
1.8281
1.99458
3.40388
197.221
174.214
217.136
65.4104
57.9516
51.7702
46.7787
42.7139
39.3884
36.5313
34.0471
31.8946
29.9922
28.2956
26.7731
25.4004
24.1566
23.0248
21.9919
1.77424
1.76862
1.76324
1.75816
1.7536
1.7501
1.74996
1.76161
1.83461
2.07526
4.63573
422.381
478.536
394.888
66.6961
58.2965
51.7412
46.5652
42.4617
39.0548
36.1667
33.7016
31.5778
29.7228
28.1065
26.681
25.418
24.2932
23.2872
22.3855
1.77423
1.76861
1.76322
1.75816
1.75359
1.75008
1.74927
1.75738
1.80656
2.0635
2.90864
123.601
157.3
79.9294
11.6384
11.5554
11.4091
11.1842
10.9588
10.7915
10.6491
10.5114
10.3753
10.2374
10.0988
9.9573
9.81508
9.67322
9.53248
9.39838
1.77423
1.7686
1.76321
1.75814
1.7535
1.74983
1.74827
1.75237
1.77893
1.88336
2.07204
3.03495
3.43316
3.50935
2.89586
2.95728
3.00889
3.04811
3.08077
3.10919
3.13304
3.1522
3.16716
3.17965
3.19
3.19895
3.20666
3.21341
3.21951
3.22522
1.77423
1.7686
1.76322
1.75813
1.75344
1.74957
1.74722
1.74856
1.75969
1.7988
1.87666
1.94976
1.98955
2.00442
2.01301
2.02303
2.03226
2.03998
2.04609
2.0512
2.05557
2.05967
2.06328
2.06658
2.06958
2.07242
2.07501
2.07745
2.07975
2.08199
1.77423
1.7686
1.76322
1.75811
1.75338
1.74932
1.74636
1.74575
1.74975
1.76411
1.79107
1.8138
1.82759
1.83367
1.83651
1.83809
1.83897
1.83936
1.83911
1.83851
1.83769
1.83684
1.83601
1.83515
1.83427
1.83345
1.83261
1.83177
1.83092
1.83009
1.77423
1.7686
1.7632
1.75809
1.75334
1.74912
1.74574
1.74387
1.74479
1.74972
1.7592
1.76674
1.77309
1.7751
1.77531
1.77469
1.77361
1.77255
1.77126
1.76988
1.7685
1.76712
1.76576
1.76439
1.763
1.76163
1.76026
1.75887
1.75747
1.75607
1.77423
1.76859
1.7632
1.75807
1.7533
1.74898
1.74532
1.7427
1.74176
1.74317
1.74645
1.7494
1.75116
1.75104
1.75006
1.7487
1.74707
1.74566
1.74411
1.7425
1.74094
1.73941
1.73791
1.73645
1.73501
1.73356
1.73215
1.73074
1.72933
1.72793
1.77423
1.76859
1.76319
1.75806
1.75326
1.74888
1.74504
1.74199
1.74007
1.73955
1.74015
1.74022
1.74033
1.73915
1.73762
1.73593
1.73406
1.73249
1.73078
1.72908
1.72745
1.72588
1.72435
1.72288
1.72144
1.72002
1.71863
1.71726
1.71591
1.71457
1.77422
1.76859
1.76319
1.75805
1.75323
1.74882
1.74488
1.7416
1.73918
1.73773
1.73699
1.73602
1.73487
1.73317
1.73136
1.72949
1.72754
1.72575
1.72402
1.72231
1.72067
1.71909
1.71758
1.71611
1.71469
1.7133
1.71193
1.7106
1.70929
1.708
1.77422
1.76859
1.76319
1.75805
1.75322
1.74879
1.74481
1.74142
1.73879
1.73697
1.7357
1.73438
1.73266
1.73073
1.72877
1.72681
1.72483
1.72296
1.72119
1.71948
1.71783
1.71626
1.71475
1.71328
1.71186
1.71049
1.70914
1.70782
1.70653
1.70526
1.77414
1.7683
1.76249
1.75674
1.75107
1.7455
1.74007
1.73484
1.72985
1.72509
1.72041
1.7156
1.71067
1.7058
1.70104
1.69633
1.69168
1.68707
1.68258
1.67818
1.67387
1.66967
1.66558
1.66161
1.65775
1.654
1.65036
1.64683
1.64341
1.64011
1.77414
1.7683
1.76249
1.75674
1.75107
1.74551
1.74009
1.7349
1.72999
1.72536
1.72084
1.71618
1.71138
1.70659
1.70189
1.69721
1.69258
1.688
1.68353
1.67915
1.67487
1.67071
1.66666
1.66274
1.65894
1.65526
1.65169
1.64825
1.64494
1.64175
1.77415
1.7683
1.7625
1.75675
1.75108
1.74553
1.74015
1.73505
1.73032
1.726
1.7219
1.71764
1.71313
1.70856
1.70398
1.69938
1.6948
1.69027
1.68587
1.68157
1.67739
1.67333
1.66942
1.66565
1.66202
1.65853
1.65519
1.65199
1.64894
1.64604
1.77415
1.7683
1.7625
1.75675
1.75109
1.74557
1.74026
1.73532
1.73096
1.72731
1.72415
1.72075
1.71687
1.71273
1.70841
1.70396
1.69949
1.69507
1.69081
1.68666
1.68266
1.67883
1.67519
1.67172
1.66845
1.66536
1.66248
1.6598
1.65732
1.65505
1.77414
1.7683
1.7625
1.75676
1.75111
1.74563
1.74044
1.7358
1.73214
1.7299
1.72883
1.72725
1.72468
1.72143
1.71763
1.71344
1.70914
1.70498
1.70099
1.69717
1.69359
1.69026
1.68721
1.68446
1.68201
1.67989
1.6781
1.67666
1.67555
1.67479
1.77414
1.7683
1.7625
1.75677
1.75114
1.74572
1.74071
1.73661
1.73431
1.73512
1.73922
1.74181
1.74186
1.74041
1.7378
1.73426
1.73049
1.72707
1.72396
1.72128
1.71911
1.71751
1.7165
1.71613
1.71642
1.71744
1.71918
1.72167
1.72492
1.72889
1.77415
1.76829
1.7625
1.75678
1.75117
1.74584
1.74111
1.73792
1.73825
1.7471
1.76578
1.77784
1.78415
1.78626
1.78613
1.78528
1.78493
1.78584
1.78796
1.79158
1.79699
1.8041
1.813
1.82373
1.83635
1.85093
1.86746
1.88604
1.90677
1.9295
1.77415
1.76831
1.7625
1.75679
1.75122
1.74598
1.74166
1.73983
1.74588
1.77274
1.8402
1.90061
1.92243
1.92973
1.94288
1.96853
2.0011
2.03937
2.08249
2.13101
2.18655
2.24806
2.31493
2.38634
2.46239
2.54239
2.62645
2.71417
2.80585
2.89858
1.77415
1.76832
1.76252
1.75681
1.75126
1.74613
1.74225
1.74233
1.75758
1.82447
1.90631
2.30351
2.44666
2.48569
2.79955
3.07568
3.34453
3.59229
3.82814
4.06289
4.2743
4.45301
4.59829
4.71224
4.79689
4.85777
4.89968
4.92649
4.94082
4.94444
1.77416
1.76833
1.76255
1.75685
1.75132
1.74624
1.74271
1.74474
1.77004
1.88769
2.13882
4.22662
4.73041
5.14013
6.47345
7.32237
7.89505
8.29338
8.57257
8.76419
8.89251
8.96974
8.99787
8.99196
8.96125
8.90785
8.83697
8.75282
8.65951
8.56354
1.77416
1.76833
1.76255
1.75685
1.75132
1.74626
1.7428
1.74521
1.77299
1.90432
2.27424
6.93328
8.70502
10.7659
7.01872
7.62811
8.03561
8.31345
8.50628
8.6409
8.72602
8.77734
8.79997
8.80615
8.79738
8.77963
8.7531
8.72013
8.68343
8.64036
1.77415
1.76832
1.76252
1.75682
1.75127
1.74619
1.74248
1.74335
1.76249
1.85238
2.05097
3.40938
3.79772
3.79437
3.02745
3.14859
3.2648
3.36451
3.45505
3.54493
3.63317
3.71683
3.79374
3.86357
3.92575
3.98277
4.03736
4.09007
4.13935
4.18489
1.77415
1.76831
1.7625
1.75679
1.75124
1.74605
1.74193
1.74084
1.75004
1.78992
1.88897
1.99332
2.03902
2.05622
2.06521
2.07971
2.09476
2.10961
2.12407
2.13857
2.15302
2.16717
2.18077
2.19362
2.2058
2.21752
2.2293
2.24149
2.25409
2.26827
1.77415
1.76829
1.76251
1.75679
1.7512
1.7459
1.74135
1.73874
1.74098
1.75631
1.78892
1.81437
1.83043
1.83653
1.83783
1.83789
1.83761
1.8373
1.83671
1.83602
1.83531
1.8346
1.83394
1.83332
1.83275
1.83225
1.83183
1.83152
1.83132
1.83138
1.77414
1.7683
1.76251
1.75678
1.75116
1.74577
1.74088
1.73718
1.736
1.73986
1.75002
1.75873
1.76241
1.76271
1.76097
1.75812
1.75479
1.75154
1.7481
1.74464
1.74119
1.73777
1.73439
1.73108
1.72782
1.72462
1.72148
1.7184
1.71538
1.71248
1.77415
1.7683
1.7625
1.75677
1.75112
1.74566
1.74055
1.73616
1.73318
1.73245
1.73412
1.73526
1.73438
1.73189
1.72841
1.72447
1.72034
1.71629
1.71225
1.70822
1.70422
1.70026
1.69635
1.69248
1.68864
1.68486
1.68111
1.6774
1.67374
1.67016
1.77415
1.7683
1.7625
1.75676
1.7511
1.74559
1.74033
1.73553
1.73156
1.72877
1.72701
1.72503
1.72209
1.71835
1.7142
1.70986
1.70547
1.7011
1.69681
1.69255
1.68833
1.68417
1.68006
1.676
1.67199
1.66801
1.6641
1.66023
1.65641
1.65266
1.77415
1.7683
1.7625
1.75675
1.75108
1.74554
1.74018
1.73516
1.73066
1.72683
1.72352
1.72007
1.71609
1.71176
1.70729
1.70276
1.69824
1.69373
1.68931
1.68494
1.68062
1.67636
1.67216
1.66802
1.66392
1.65988
1.65588
1.65194
1.64806
1.64425
1.77415
1.7683
1.7625
1.75675
1.75107
1.74551
1.7401
1.73496
1.73019
1.72587
1.72185
1.7177
1.71323
1.7086
1.70396
1.69934
1.69475
1.69017
1.68569
1.68126
1.67689
1.67258
1.66833
1.66414
1.66
1.65593
1.6519
1.64793
1.64402
1.64018
1.77415
1.7683
1.7625
1.75674
1.75107
1.74549
1.74007
1.73487
1.72999
1.72547
1.72117
1.71676
1.71208
1.70733
1.70263
1.69796
1.69333
1.68874
1.68423
1.67978
1.67539
1.67107
1.6668
1.66259
1.65844
1.65435
1.65031
1.64633
1.6424
1.63855
1.77414
1.76829
1.76247
1.75668
1.75096
1.74531
1.73976
1.73434
1.72908
1.72396
1.71888
1.7137
1.70843
1.70317
1.69796
1.69277
1.68761
1.68245
1.67736
1.67231
1.6673
1.66235
1.65744
1.65259
1.6478
1.64305
1.63837
1.63373
1.62915
1.62466
1.77414
1.76829
1.76247
1.75668
1.75097
1.74532
1.73978
1.73438
1.72917
1.72414
1.71917
1.7141
1.70892
1.70372
1.69854
1.69337
1.68822
1.68307
1.67799
1.67295
1.66796
1.66302
1.65814
1.65331
1.64854
1.64382
1.63917
1.63457
1.63003
1.62558
1.77414
1.76829
1.76247
1.75669
1.75097
1.74534
1.73982
1.73449
1.7294
1.72457
1.71987
1.71507
1.71009
1.70502
1.69993
1.6948
1.68967
1.68455
1.6795
1.6745
1.66955
1.66466
1.65983
1.65507
1.65037
1.64574
1.64117
1.63667
1.63225
1.62792
1.77414
1.76829
1.76247
1.75669
1.75098
1.74536
1.73989
1.73467
1.72982
1.72541
1.7213
1.71705
1.71249
1.70771
1.70277
1.69773
1.69266
1.68759
1.6826
1.67768
1.67281
1.66802
1.66331
1.65867
1.65412
1.64966
1.64527
1.64098
1.63678
1.6327
1.77414
1.76829
1.76248
1.75669
1.75099
1.7454
1.74001
1.73498
1.73057
1.72699
1.72412
1.721
1.71727
1.71304
1.70841
1.70353
1.69855
1.69361
1.68876
1.68398
1.67929
1.67471
1.67025
1.66591
1.66169
1.65761
1.65366
1.64985
1.64619
1.6427
1.77414
1.76828
1.76248
1.7567
1.75101
1.74547
1.74019
1.73549
1.73188
1.72996
1.7298
1.72902
1.72691
1.72377
1.71977
1.71522
1.71044
1.70584
1.70134
1.69696
1.69275
1.68875
1.68495
1.68139
1.67807
1.675
1.67221
1.6697
1.66748
1.66558
1.77415
1.76828
1.76247
1.75671
1.75104
1.74555
1.74045
1.73628
1.73408
1.73575
1.74226
1.74667
1.74779
1.74689
1.74436
1.74069
1.73671
1.73301
1.72954
1.7264
1.72369
1.72151
1.71987
1.71883
1.71844
1.71872
1.71975
1.7215
1.72404
1.72733
1.77416
1.7683
1.76247
1.75672
1.75107
1.74564
1.74078
1.73739
1.73764
1.74745
1.7704
1.7854
1.79357
1.79628
1.79598
1.79493
1.7945
1.79534
1.79734
1.80062
1.8053
1.81144
1.81939
1.82922
1.84091
1.85445
1.8698
1.88675
1.90532
1.92504
1.77416
1.76831
1.7625
1.75673
1.75109
1.74573
1.74113
1.73865
1.7429
1.76626
1.82584
1.87622
1.89981
1.90803
1.91814
1.93883
1.9642
1.99243
2.02315
2.05626
2.09046
2.12417
2.15773
2.19039
2.22156
2.25102
2.27867
2.30437
2.32773
2.34781
1.77416
1.76832
1.76252
1.75676
1.75114
1.7458
1.74139
1.73971
1.74805
1.78818
1.90838
2.00594
2.07944
2.09922
2.13819
2.2409
2.34789
2.45149
2.55074
2.64431
2.73078
2.80916
2.88091
2.94493
3.00123
3.0502
3.09196
3.12608
3.15082
3.16204
1.77416
1.76832
1.76252
1.75676
1.75114
1.74582
1.74144
1.73993
1.74912
1.79334
1.92594
2.04724
2.13186
2.15256
2.1904
2.28821
2.38428
2.47579
2.56301
2.64464
2.72029
2.78893
2.85199
2.90831
2.95842
3.0022
3.03977
3.07148
3.09593
3.11576
1.77416
1.76831
1.7625
1.75673
1.7511
1.74577
1.74126
1.73914
1.74497
1.77482
1.85003
1.92656
1.95711
1.96812
1.97695
1.99426
2.01346
2.03291
2.0531
2.07443
2.09693
2.12005
2.14316
2.16575
2.18769
2.20869
2.22939
2.2497
2.26912
2.28825
1.77416
1.7683
1.76247
1.75672
1.75108
1.74569
1.74093
1.73793
1.73951
1.754
1.78782
1.81256
1.82712
1.83282
1.83412
1.83438
1.83436
1.83472
1.83522
1.83603
1.83721
1.83878
1.84067
1.84296
1.84562
1.8487
1.85214
1.85593
1.85998
1.8646
1.77415
1.76828
1.76247
1.75671
1.75105
1.74559
1.74059
1.73674
1.73548
1.73979
1.75163
1.76135
1.76608
1.76702
1.76558
1.76263
1.75914
1.75576
1.75225
1.74871
1.74521
1.74177
1.7384
1.73514
1.73197
1.72893
1.72601
1.72325
1.72066
1.71845
1.77414
1.76829
1.76248
1.7567
1.75102
1.7455
1.7403
1.73582
1.73281
1.73235
1.73486
1.73678
1.73631
1.73396
1.73037
1.72615
1.72164
1.71728
1.71287
1.70845
1.70406
1.6997
1.69538
1.6911
1.68686
1.68267
1.67853
1.67444
1.67041
1.66656
1.77414
1.76829
1.76248
1.7567
1.751
1.74542
1.74008
1.73519
1.73115
1.7284
1.72689
1.72514
1.72228
1.71845
1.71402
1.70928
1.70445
1.69962
1.69484
1.69007
1.68532
1.6806
1.67592
1.67127
1.66665
1.66206
1.65751
1.65299
1.64853
1.64418
1.77414
1.76829
1.76248
1.75669
1.75098
1.74537
1.73993
1.73479
1.73015
1.7262
1.72284
1.71937
1.71531
1.71076
1.70594
1.70099
1.696
1.69101
1.68607
1.68115
1.67627
1.67141
1.66659
1.66181
1.65705
1.65234
1.64765
1.643
1.6384
1.63389
1.77414
1.76829
1.76247
1.75669
1.75097
1.74534
1.73983
1.73454
1.72958
1.72501
1.72074
1.71638
1.71169
1.70678
1.70177
1.69671
1.69165
1.68658
1.68158
1.6766
1.67164
1.66672
1.66184
1.65699
1.65217
1.64739
1.64264
1.63793
1.63326
1.62867
1.77414
1.76829
1.76247
1.75669
1.75096
1.74531
1.73977
1.7344
1.72926
1.7244
1.71969
1.7149
1.70989
1.70479
1.69968
1.69457
1.68947
1.68437
1.67933
1.67432
1.66934
1.66439
1.65947
1.65459
1.64974
1.64493
1.64016
1.63541
1.63072
1.62609
1.77414
1.76829
1.76247
1.75668
1.75096
1.7453
1.73974
1.73433
1.72913
1.72414
1.71926
1.7143
1.70917
1.70399
1.69884
1.69371
1.6886
1.68349
1.67843
1.67341
1.66841
1.66345
1.65852
1.65363
1.64877
1.64395
1.63916
1.63442
1.6297
1.62506
1.77414
1.76829
1.76247
1.75668
1.75096
1.7453
1.73972
1.73425
1.72891
1.72367
1.71847
1.71322
1.7079
1.70258
1.6973
1.69203
1.68679
1.68155
1.67636
1.67121
1.66609
1.661
1.65595
1.65093
1.64595
1.64101
1.6361
1.63122
1.62638
1.62161
1.77414
1.76829
1.76247
1.75668
1.75096
1.7453
1.73973
1.73428
1.72898
1.7238
1.71867
1.71349
1.70824
1.70296
1.6977
1.69245
1.68721
1.68198
1.6768
1.67165
1.66653
1.66146
1.65642
1.65141
1.64645
1.64152
1.63662
1.63176
1.62694
1.62219
1.77414
1.76829
1.76247
1.75668
1.75096
1.74531
1.73976
1.73436
1.72913
1.72409
1.71915
1.71414
1.70902
1.70383
1.69863
1.6934
1.68818
1.68296
1.6778
1.67267
1.66758
1.66252
1.65751
1.65254
1.64761
1.64272
1.63788
1.63307
1.6283
1.6236
1.77414
1.76829
1.76247
1.75669
1.75097