/*--------------------------------*- C++ -*----------------------------------*\
| =========                 |                                                 |
| \\      /  F ield         | OpenFOAM: The Open Source CFD Toolbox           |
|  \\    /   O peration     | Version:  2512                                  |
|   \\  /    A nd           | Website:  www.openfoam.com                      |
|    \\/     M anipulation  |                                                 |
\*---------------------------------------------------------------------------*/
FoamFile
{
    version     2.0;
    format      ascii;
    arch        "LSB;label=32;scalar=64";
    class       volScalarField;
    location    "280";
    object      omega;
}
// * * * * * * * * * * * * * * * * * * * * * * * * * * * * * * * * * * * * * //

dimensions      [0 0 -1 0 0 0 0];

internalField   nonuniform List<scalar> 
84826
(
16.0845
15.8154
15.5584
15.3126
15.0773
14.8514
14.6343
14.4248
14.2257
14.0373
13.8587
13.6953
13.5341
13.3743
13.2234
13.076
12.9315
12.7902
12.6513
12.515
12.3816
12.2514
12.1247
12.0013
11.8814
11.7649
11.6516
11.5414
11.4342
11.33
16.0846
15.8155
15.5587
15.3131
15.078
14.8525
14.6356
14.4265
14.228
14.0402
13.8624
13.6999
13.5396
13.3803
13.2298
13.0824
12.9377
12.7964
12.6573
12.5207
12.387
12.2565
12.1295
12.0059
11.8857
11.769
11.6554
11.545
11.4375
11.333
16.0846
15.8156
15.5588
15.3135
15.0787
14.8536
14.6378
14.4292
14.2311
14.0447
13.8688
13.7086
13.5504
13.392
13.2423
13.0952
12.9506
12.809
12.6688
12.5312
12.3968
12.2657
12.1383
12.0143
11.8937
11.7766
11.6627
11.5519
11.444
11.3391
16.0847
15.8156
15.559
15.3138
15.0793
14.8546
14.6395
14.4316
14.2349
14.0507
13.878
13.7206
13.5658
13.4108
13.2625
13.1161
12.9712
12.8291
12.6878
12.5491
12.4139
12.282
12.1538
12.0289
11.9076
11.7896
11.6749
11.5634
11.4548
11.3492
16.0847
15.8157
15.5592
15.3141
15.0798
14.8556
14.6412
14.4342
14.2394
14.0583
13.8868
13.7047
13.5565
13.4324
13.2871
13.1418
12.9968
12.854
12.7118
12.5724
12.4364
12.304
12.1755
12.0507
11.9299
11.813
11.7002
11.5914
11.4868
11.3861
16.0847
15.8157
15.5592
15.3143
15.0801
14.8564
14.6427
14.4369
14.2445
14.0631
13.8955
13.7436
13.599
13.4553
13.3141
13.1698
13.0248
12.8816
12.7388
12.5983
12.4617
12.3314
12.2099
12.0995
12.0028
11.9213
11.8563
11.8071
11.7748
11.753
16.0847
15.8157
15.5593
15.3144
15.0804
14.857
14.6439
14.4411
14.2484
14.0688
13.9198
13.8156
13.7037
13.5527
13.4094
13.2635
13.1153
12.9703
12.8319
12.7216
12.6773
12.7057
12.8067
12.9758
13.2029
13.4745
13.775
14.0899
14.4115
14.7196
16.0847
15.8158
15.5594
15.3144
15.0806
14.8575
14.6452
14.4456
14.2514
14.0768
27.8284
27.3094
26.8931
26.7432
15.5619
15.3685
15.2616
15.7182
16.4772
17.3778
18.2818
19.12
19.871
20.5359
21.1212
21.6372
22.0913
22.5037
22.845
23.2134
16.0847
15.8158
15.5593
15.3145
15.0808
14.8579
14.6462
14.4476
14.2566
14.0958
27.8954
28.0373
30.7099
53.9459
47.9379
45.2641
43.3675
41.6944
40.2191
38.9226
37.7762
36.7575
35.853
35.0524
34.3429
33.713
33.1517
32.6479
32.1847
31.7646
16.0848
15.816
15.5598
15.3152
15.0817
14.8591
14.6478
14.4486
14.2621
14.1275
28.0516
57.7503
141.386
229.058
57.089
52.7471
50.0163
47.6575
45.634
43.8923
42.3589
40.988
39.7526
38.6306
37.6038
36.6581
35.7842
34.9718
34.2208
33.4975
16.0849
15.8164
15.5603
15.3158
15.0825
14.8593
14.6477
14.4485
14.262
14.1274
28.1137
60.0558
252.669
56.844
51.9537
48.9549
46.3793
44.1255
42.1433
40.3854
38.8191
37.4151
36.1495
35.0002
33.948
32.9775
32.0752
31.2338
30.4276
16.0849
15.8161
15.5596
15.3149
15.0815
14.858
14.646
14.4474
14.2564
14.0954
27.9279
56.0031
72.7418
146.938
47.9666
46.2606
44.5229
42.7396
40.9335
39.0698
37.2413
35.4944
33.8466
32.2998
30.8464
29.481
28.1965
26.991
25.8573
24.7943
16.0848
15.8158
15.5592
15.3142
15.0804
14.8573
14.6449
14.4453
14.2511
14.0761
27.8439
27.4864
27.9883
36.1573
20.1783
20.4845
21.1223
21.5979
21.8205
21.8099
21.597
21.2124
20.6927
20.0682
19.3704
18.6261
17.8518
17.0744
16.3104
15.5881
16.0847
15.8157
15.5592
15.3142
15.0802
14.8568
14.6436
14.4407
14.2479
14.068
13.9183
13.8141
13.7275
13.6594
13.5275
13.3887
13.2723
13.1873
13.1056
13.0189
12.9202
12.8046
12.6727
12.5319
12.3886
12.2501
12.1262
12.0124
11.9064
11.8057
16.0847
15.8157
15.5591
15.3141
15.0799
14.8561
14.6424
14.4364
14.2439
14.0623
13.8943
13.742
13.5988
13.457
13.3147
13.1697
13.0252
12.8845
12.7463
12.6126
12.4834
12.3588
12.2385
12.1223
12.0103
11.9024
11.7987
11.6992
11.6033
11.5108
16.0846
15.8157
15.5591
15.3139
15.0795
14.8553
14.6408
14.4336
14.2386
14.0574
13.8854
13.7025
13.5535
13.429
13.2834
13.1378
12.994
12.8538
12.716
12.5824
12.4531
12.3284
12.2084
12.0928
11.9825
11.8768
11.7755
11.6779
11.5836
11.4921
16.0846
15.8156
15.5589
15.3136
15.0791
14.8543
14.6391
14.431
14.2341
14.0495
13.8764
13.7185
13.5632
13.4081
13.2602
13.1137
12.9699
12.8297
12.6919
12.558
12.428
12.302
12.18
12.0618
11.9475
11.8368
11.7299
11.6264
11.5259
11.4284
16.0846
15.8155
15.5588
15.3134
15.0785
14.8533
14.6373
14.4285
14.2301
14.0432
13.8667
13.7061
13.5474
13.389
13.2398
13.0931
12.9495
12.8096
12.6722
12.5385
12.4087
12.2827
12.1607
12.0424
11.9279
11.8171
11.7097
11.6056
11.5044
11.4062
16.0846
15.8154
15.5586
15.313
15.0779
14.8522
14.6351
14.4257
14.2266
14.0383
13.8599
13.6967
13.536
13.3768
13.2269
13.08
12.9364
12.7966
12.6599
12.5265
12.3969
12.2709
12.1486
12.0298
11.9146
11.8028
11.6943
11.5888
11.4863
11.3865
16.0845
15.8153
15.5584
15.3126
15.0772
14.8511
14.6336
14.4237
14.224
14.0349
13.8556
13.6915
13.5299
13.3702
13.2201
13.0733
12.93
12.7904
12.6539
12.5209
12.3917
12.2661
12.1442
12.0257
11.9107
11.7991
11.6906
11.5851
11.4824
11.3825
1.93988
2.08189
2.20871
2.32326
2.42784
2.52428
2.6138
2.69802
2.7801
2.85881
2.93287
2.99896
3.05481
3.09866
3.13266
3.16198
3.18797
3.21305
3.23551
3.25616
3.27542
3.29364
3.31146
3.32936
3.3472
3.36477
3.38182
3.39821
3.4138
3.42848
1.9399
2.08195
2.20885
2.32353
2.42834
2.52522
2.61554
2.70077
2.7848
2.86642
2.94428
3.01445
3.07337
3.11883
3.15279
3.18138
3.2065
3.23076
3.25256
3.27266
3.29149
3.30949
3.32741
3.34558
3.36389
3.38209
3.40001
3.41746
3.43429
3.45044
1.93985
2.08206
2.20908
2.32401
2.4293
2.52711
2.61933
2.70669
2.79504
2.88326
2.97012
3.04976
3.11598
3.16521
3.19914
3.22596
3.2496
3.27189
3.29224
3.31132
3.32972
3.34836
3.36763
3.3874
3.40759
3.42789
3.44814
3.46809
3.48756
3.50651
1.93979
2.08217
2.20941
2.32467
2.43064
2.52974
2.6244
2.71569
2.81132
2.91157
3.01771
3.11587
3.19868
3.25556
3.28984
3.31276
3.33275
3.35139
3.36891
3.38622
3.40555
3.4267
3.44938
3.47339
3.49841
3.52412
3.5502
3.57626
3.60208
3.62753
1.93983
2.08218
2.20977
2.3255
2.43231
2.5331
2.631
2.72823
2.83537
2.9584
3.08769
3.21609
3.33099
3.40872
3.44747
3.46455
3.47879
3.49231
3.50597
3.52124
3.54058
3.5632
3.58892
3.61767
3.64915
3.68303
3.71896
3.75635
3.795
3.8347
1.93987
2.08222
2.21002
2.3264
2.43419
2.53695
2.63895
2.74464
2.87045
3.01525
3.20388
3.40409
3.59595
3.708
3.76043
3.7707
3.77916
3.79321
3.81359
3.83915
3.87028
3.9067
3.94973
4.00052
4.06003
4.12879
4.20719
4.29426
4.39092
4.4924
1.9399
2.08235
2.21025
2.32711
2.4361
2.54098
2.64779
2.76565
2.908
3.10596
3.44709
3.93028
4.37883
4.6074
4.7179
4.7566
4.77682
4.80231
4.83941
4.89232
4.96405
5.05827
5.18346
5.35659
5.58109
5.85768
6.18756
6.56711
6.99913
7.47019
1.93992
2.0825
2.21059
2.32772
2.43765
2.54458
2.65656
2.79012
2.95174
3.27276
3.67482
5.27391
7.319
9.34679
14.2007
14.4184
14.4903
14.5051
14.5301
14.6135
14.7817
15.0461
15.4177
15.9021
16.5227
17.3224
18.292
19.3867
20.5375
21.7634
1.93994
2.08262
2.21087
2.32834
2.43887
2.54753
2.66398
2.80859
3.00425
3.57764
4.65643
13.8542
34.2986
57.2145
104.683
84.3496
70.9785
61.5846
54.7892
49.7663
45.9994
43.151
40.9851
39.3172
37.9861
36.8437
35.8114
34.8438
33.9308
33.0066
1.94006
2.08286
2.2113
2.32905
2.44005
2.54977
2.66895
2.81615
3.05179
3.91617
7.6984
553.652
1352.55
734.041
127.079
98.9395
82.8397
71.6306
63.3922
57.1534
52.2949
48.4306
45.3019
42.7226
40.5578
38.7104
37.1139
35.7126
34.4826
33.3249
1.94016
2.08305
2.21157
2.32938
2.44045
2.54969
2.66889
2.8162
3.05217
3.91435
8.21712
240.625
135.779
104.154
86.4885
74.3579
65.4025
58.513
53.0341
48.5756
44.8775
41.7566
39.0802
36.7529
34.7075
32.8838
31.2552
29.7447
1.94016
2.08279
2.21126
2.32864
2.43933
2.54762
2.66432
2.80948
3.00603
3.57658
5.81795
302.944
957.315
616.701
117.087
94.7277
80.6816
70.9811
63.7473
57.8577
52.7368
48.1489
44.0846
40.4587
37.2254
34.3482
31.7938
29.5299
27.5309
25.7522
1.94018
2.08252
2.21075
2.32779
2.43789
2.54506
2.65748
2.79189
2.95505
3.27765
3.89889
8.21214
14.8303
29.2734
20.3972
20.1625
19.7639
19.2434
18.6339
17.9809
17.3099
16.6301
15.9494
15.2776
14.6388
14.0344
13.4629
12.9238
12.4165
11.9393
1.94006
2.08242
2.21033
2.3273
2.43647
2.54165
2.64898
2.7678
2.91209
3.11318
3.45898
3.96373
4.52329
4.9333
5.14253
5.27497
5.38869
5.4798
5.54114
5.57134
5.5712
5.54355
5.49192
5.42133
5.33905
5.2485
5.15539
5.06436
4.98001
4.90205
1.93989
2.08226
2.21012
2.32665
2.43464
2.53773
2.6403
2.74701
2.87475
3.02308
3.21797
3.43149
3.6568
3.81612
3.90394
3.95149
3.99461
4.03086
4.0593
4.07907
4.09072
4.09431
4.09036
4.07932
4.06222
4.03966
4.01292
3.98239
3.94961
3.91393
1.93984
2.08223
2.20991
2.32578
2.43281
2.53396
2.63246
2.73071
2.83961
2.96588
3.10057
3.23858
3.37011
3.47008
3.52834
3.56428
3.59452
3.61746
3.63455
3.64575
3.65178
3.65276
3.64929
3.64208
3.63223
3.62048
3.60898
3.5976
3.58628
3.57493
1.9398
2.08223
2.20956
2.32498
2.43119
2.53066
2.62592
2.71818
2.81542
2.91839
3.0292
3.13478
3.2289
3.30002
3.34805
3.38098
3.40898
3.43094
3.44912
3.46364
3.4749
3.48298
3.48809
3.49066
3.4911
3.48968
3.48687
3.48276
3.47779
3.47284
1.93987
2.08213
2.20925
2.32433
2.42987
2.52807
2.62088
2.70917
2.79898
2.88953
2.98011
3.06534
3.13958
3.19844
3.24172
3.27415
3.30221
3.32461
3.34346
3.3591
3.372
3.3824
3.39058
3.39685
3.40158
3.40484
3.40709
3.40856
3.40928
3.40932
1.93991
2.08202
2.20902
2.32386
2.42893
2.5262
2.61711
2.70324
2.78863
2.87232
2.95333
3.02807
3.09313
3.14565
3.18643
3.21851
3.24617
3.26907
3.28861
3.30546
3.32007
3.33263
3.3433
3.3523
3.35984
3.36597
3.37082
3.37477
3.37785
3.38009
1.93989
2.08195
2.20888
2.32359
2.42844
2.52527
2.61537
2.70047
2.78386
2.86451
2.94146
3.01161
3.07272
3.12241
3.16199
3.1937
3.22096
3.24386
3.2635
3.28066
3.29573
3.30885
3.3202
3.33013
3.33878
3.34622
3.3524
3.3575
3.36163
3.3648
1.77772
1.77827
1.78112
1.78588
1.79229
1.80013
1.80904
1.82046
1.83326
1.8476
1.86303
1.87792
1.89141
1.90262
1.91232
1.92159
1.93037
1.93903
1.94743
1.95558
1.96361
1.97166
1.97999
1.98859
1.99749
2.00657
2.01563
2.02468
2.03363
2.04242
1.77772
1.77827
1.78113
1.78591
1.79235
1.80027
1.80937
1.82112
1.83437
1.84962
1.86637
1.88247
1.89765
1.90971
1.91975
1.92911
1.9379
1.94652
1.95488
1.963
1.97103
1.97912
1.98754
1.99634
2.0055
2.01486
2.02434
2.03389
2.04344
2.05294
1.77772
1.77828
1.78115
1.78596
1.79248
1.80059
1.8102
1.82228
1.83667
1.85406
1.87407
1.89358
1.91199
1.92597
1.93675
1.94632
1.95503
1.96374
1.97204
1.98016
1.98832
1.99687
2.00594
2.01554
2.02561
2.03597
2.0466
2.05742
2.06835
2.0793
1.77772
1.77829
1.78118
1.78603
1.79265
1.801
1.81124
1.82419
1.84068
1.86205
1.88702
1.91213
1.93713
1.95547
1.96799
1.9782
1.98723
1.99598
2.00434
2.01266
2.02143
2.03114
2.04184
2.05335
2.06568
2.07868
2.09225
2.10628
2.12062
2.13513
1.77772
1.77829
1.78121
1.78612
1.79287
1.80153
1.81253
1.82699
1.84697
1.87395
1.91162
1.95048
1.99019
2.01518
2.0307
2.04238
2.05204
2.06096
2.06966
2.07863
2.08863
2.10022
2.11339
2.12807
2.14438
2.16226
2.18158
2.20211
2.2237
2.24596
1.77773
1.7783
1.78124
1.78622
1.79312
1.80215
1.8141
1.83088
1.85539
1.89564
1.97536
2.05787
2.1317
2.17248
2.19142
2.20298
2.21418
2.22478
2.23661
2.25139
2.26917
2.28992
2.31383
2.34153
2.37416
2.41175
2.45423
2.50139
2.55423
2.6106
1.77773
1.77831
1.78126
1.78631
1.79339
1.80285
1.81597
1.83608
1.86845
1.94625
2.14982
2.43603
2.61887
2.71533
2.76154
2.79282
2.83781
2.88295
2.93128
2.98581
3.04632
3.1137
3.18984
3.28138
3.3961
3.53178
3.68694
3.86273
4.07388
4.3056
1.77773
1.77833
1.7813
1.78638
1.79362
1.8035
1.81796
1.8412
1.89008
2.07225
2.28481
3.62296
4.72588
5.20954
9.24879
9.79998
10.1199
10.3317
10.494
10.6543
10.8207
11.0051
11.2254
11.4902
11.8083
12.1957
12.6636
13.2107
13.8296
14.5102
1.77773
1.77834
1.78134
1.78646
1.7938
1.80402
1.81971
1.84658
1.92337
2.37104
3.40597
14.3855
41.3846
39.4293
80.865
66.488
56.744
49.8163
44.6651
40.7936
37.8224
35.5546
33.8066
32.4629
31.4132
30.6126
30.0152
29.569
29.2304
28.9388
1.77774
1.77835
1.78137
1.78654
1.79395
1.80439
1.82081
1.85011
1.96195
2.78991
6.78688
561.072
404.19
345.584
130.132
97.376
79.1315
67.1619
58.5205
52.0862
47.1039
43.1552
39.964
37.3392
35.143
33.2753
31.6645
30.256
29.018
27.8867
1.77774
1.77835
1.78136
1.78654
1.79398
1.80444
1.82087
1.8502
1.96217
2.78958
7.3084
298.638
133.097
99.7147
80.996
68.628
59.6625
52.8917
47.5793
43.331
39.8417
36.9236
34.4457
32.3144
30.4598
28.8276
27.3773
26.0621
1.77773
1.77834
1.78134
1.78647
1.79385
1.80412
1.81988
1.84684
1.92381
2.36937
4.54573
371.83
406.959
289.389
86.2651
71.1295
60.4267
52.3962
46.1699
41.2498
37.2915
34.0574
31.3875
29.1402
27.2407
25.6043
24.1745
22.9089
21.7737
20.7439
1.77773
1.77833
1.7813
1.78639
1.79367
1.8036
1.81814
1.84155
1.89069
2.07286
2.56619
7.24835
12.3496
14.8904
10.8426
11.4481
11.7951
11.959
11.9782
11.8968
11.739
11.5229
11.2623
10.9703
10.6617
10.3448
10.0225
9.70101
9.38735
9.08297
1.77773
1.77832
1.78126
1.78633
1.79345
1.80295
1.81616
1.83646
1.86924
1.94782
2.153
2.45593
2.68129
2.82566
2.91645
2.99633
3.0704
3.13679
3.19193
3.2361
3.26961
3.29941
3.32242
3.33855
3.34717
3.34817
3.34074
3.32603
3.30773
3.28914
1.77773
1.7783
1.78124
1.78625
1.79317
1.80226
1.8143
1.83128
1.85621
1.89735
1.97913
2.06723
2.15293
2.20638
2.24037
2.26487
2.28588
2.30443
2.31996
2.33264
2.34303
2.35132
2.35769
2.36197
2.36462
2.36585
2.36605
2.36514
2.36338
2.36141
1.77772
1.77829
1.78122
1.78615
1.79292
1.80164
1.81274
1.82739
1.84776
1.87552
1.9148
1.95675
2.00184
2.03407
2.05701
2.07291
2.08584
2.09727
2.10707
2.11537
2.12233
2.12807
2.13264
2.13596
2.13839
2.14012
2.1417
2.14301
2.14405
2.14479
1.77772
1.77829
1.78119
1.78606
1.79271
1.80112
1.81145
1.82458
1.84141
1.86345
1.8896
1.91679
1.94491
1.96724
1.98363
1.99619
2.0068
2.01676
2.0256
2.03349
2.04052
2.0467
2.05217
2.05683
2.06082
2.06423
2.06712
2.06979
2.07228
2.07456
1.77772
1.77828
1.78116
1.78599
1.79254
1.80071
1.81042
1.82266
1.83733
1.85528
1.8763
1.89745
1.91816
1.93477
1.94804
1.95906
1.96834
1.97765
1.98586
1.99332
2.00016
2.0064
2.01211
2.01732
2.02206
2.02633
2.03029
2.03399
2.03744
2.04063
1.77772
1.77828
1.78114
1.78594
1.79242
1.80039
1.80959
1.82149
1.835
1.85073
1.86832
1.88576
1.90274
1.91676
1.9286
1.93882
1.94744
1.95681
1.96489
1.97229
1.97919
1.98565
1.99167
1.9973
2.00257
2.00743
2.01193
2.01617
2.02016
2.02389
1.77772
1.77827
1.78113
1.78591
1.79236
1.80025
1.80925
1.82082
1.83386
1.84865
1.86485
1.88092
1.89597
1.90881
1.91997
1.9297
1.93813
1.94731
1.95522
1.96249
1.96935
1.97582
1.98192
1.98765
1.99313
1.99826
2.00313
2.0077
2.01198
2.01597
1.77423
1.76859
1.76319
1.75806
1.75325
1.7488
1.7448
1.7415
1.73896
1.73737
1.73654
1.73574
1.73427
1.73238
1.73056
1.72897
1.72744
1.72587
1.72439
1.72298
1.72167
1.72052
1.71963
1.719
1.71862
1.71848
1.71858
1.71884
1.71924
1.71974
1.77423
1.76859
1.76319
1.75807
1.75326
1.74883
1.74487
1.74166
1.73932
1.7381
1.73789
1.73763
1.73697
1.73549
1.73391
1.73248
1.73103
1.72952
1.72808
1.7267
1.72543
1.72432
1.72348
1.72292
1.72262
1.72262
1.72287
1.72332
1.72395
1.72474
1.77423
1.7686
1.7632
1.75808
1.75328
1.74889
1.74498
1.74202
1.74013
1.73983
1.74116
1.74242
1.74356
1.74308
1.74206
1.74097
1.73971
1.73831
1.73696
1.73566
1.73449
1.73355
1.73295
1.73269
1.73275
1.73318
1.73389
1.73487
1.73607
1.73746
1.77423
1.7686
1.7632
1.75809
1.75332
1.74898
1.74524
1.74261
1.74158
1.74314
1.74748
1.75244
1.75634
1.758
1.75828
1.75793
1.75702
1.75591
1.75476
1.75365
1.75272
1.75218
1.75211
1.7525
1.7534
1.75478
1.75661
1.75883
1.7614
1.76424
1.77423
1.7686
1.76321
1.7581
1.75336
1.7491
1.74561
1.74355
1.74408
1.74897
1.76136
1.77476
1.78644
1.79162
1.79401
1.79495
1.7946
1.79397
1.79324
1.79267
1.79245
1.79291
1.79405
1.79596
1.79868
1.80218
1.80648
1.81153
1.81723
1.82339
1.77423
1.7686
1.76321
1.75812
1.75341
1.74926
1.7461
1.74501
1.74807
1.76156
1.79739
1.83719
1.86501
1.8794
1.88558
1.88841
1.89013
1.89136
1.89271
1.89484
1.89843
1.90347
1.90994
1.918
1.92772
1.93918
1.9524
1.96742
1.98441
2.00257
1.77423
1.76861
1.76322
1.75814
1.75347
1.74946
1.74674
1.74713
1.75552
1.79105
1.89573
2.03404
2.11204
2.15164
2.17365
2.18911
2.21198
2.23459
2.25756
2.28245
2.31096
2.34316
2.37903
2.41949
2.46528
2.51706
2.57517
2.63983
2.71229
2.79106
1.77424
1.76862
1.76323
1.75816
1.75353
1.74966
1.74748
1.74984
1.76855
1.86512
1.9881
2.67879
3.16954
3.32379
4.37805
4.55852
4.73577
4.86829
4.97957
5.08559
5.21615
5.37475
5.56526
5.78527
6.0383
6.32477
6.64238
6.98448
7.34992
7.71557
1.77424
1.76862
1.76325
1.75819
1.75361
1.74985
1.7482
1.7531
1.78859
2.02809
2.59008
7.8183
17.2179
17.6935
32.0506
28.8558
26.3306
24.3545
22.7693
21.5055
20.4808
19.6663
19.0436
18.6062
18.3491
18.2107
18.139
18.087
18.034
17.9278
1.77424
1.76863
1.76326
1.75822
1.75367
1.74999
1.74872
1.75559
1.81061
2.26753
4.20382
261.703
717.407
377.527
95.151
75.6176
63.0261
54.3437
47.9407
43.1075
39.26
36.1162
33.5173
31.3182
29.4356
27.8084
26.3895
25.1407
24.0288
23.0241
1.77424
1.76863
1.76326
1.75821
1.75365
1.74999
1.74871
1.75558
1.81065
2.26837
4.58012
433.394
264.427
270.828
96.5579
76.6631
63.8891
55.2049
48.9592
44.2759
40.6343
37.7256
35.3149
33.2416
31.4114
29.7656
28.2706
26.9014
25.6394
24.4616
1.77423
1.76861
1.76324
1.75817
1.75359
1.74985
1.74821
1.75311
1.78862
2.02765
3.07274
150.898
489.1
283.72
30.6917
27.8906
25.6219
23.753
22.2017
20.9084
19.8266
18.9183
18.1576
17.5201
17.0013
16.5478
16.1328
15.7307
15.3261
14.9119
1.77423
1.76861
1.76322
1.75816
1.75353
1.74967
1.7475
1.74987
1.76857
1.86515
2.14682
4.23028
6.01226
6.57785
4.63961
4.79638
4.96871
5.11318
5.22839
5.31828
5.38506
5.42995
5.45711
5.46887
5.46897
5.45786
5.44084
5.41448
5.37721
5.32693
1.77423
1.76861
1.76322
1.75814
1.75347
1.74946
1.74676
1.74717
1.75561
1.79131
1.89712
2.04253
2.12764
2.17873
2.20692
2.23118
2.26419
2.29635
2.32625
2.35345
2.37768
2.39881
2.41664
2.43149
2.44354
2.45324
2.46119
2.46765
2.47233
2.47477
1.77423
1.7686
1.76321
1.75812
1.75341
1.74927
1.74612
1.74504
1.74818
1.76186
1.79839
1.84004
1.87015
1.88691
1.89502
1.90041
1.90487
1.90923
1.91304
1.91626
1.91892
1.92107
1.92272
1.92396
1.9248
1.92534
1.92559
1.92562
1.92554
1.92545
1.77423
1.7686
1.76321
1.7581
1.75336
1.74911
1.74562
1.74357
1.74416
1.74923
1.76207
1.77631
1.78901
1.79523
1.79884
1.80032
1.80064
1.80099
1.80105
1.8009
1.80057
1.80007
1.79936
1.79844
1.79736
1.79611
1.79479
1.79347
1.79216
1.79084
1.77423
1.7686
1.7632
1.75809
1.75332
1.74898
1.74525
1.74262
1.74164
1.74333
1.74798
1.7535
1.75809
1.76037
1.76118
1.76102
1.76021
1.75959
1.75878
1.75787
1.7569
1.75586
1.75474
1.75353
1.75226
1.75091
1.74953
1.74816
1.74682
1.74549
1.77423
1.7686
1.7632
1.75808
1.75328
1.74889
1.74498
1.74202
1.74016
1.73995
1.74154
1.74325
1.74499
1.74501
1.74442
1.74347
1.74213
1.74108
1.73984
1.73855
1.73724
1.73593
1.7346
1.73328
1.73193
1.73058
1.72924
1.72794
1.72665
1.72538
1.77423
1.76859
1.76319
1.75807
1.75326
1.74883
1.74486
1.74165
1.73933
1.73819
1.73818
1.7383
1.73813
1.73708
1.73583
1.73449
1.73294
1.73152
1.73013
1.7287
1.72728
1.7259
1.72454
1.72321
1.72188
1.72058
1.71928
1.71803
1.71681
1.71561
1.77422
1.76859
1.76319
1.75806
1.75325
1.7488
1.74479
1.74149
1.73897
1.73744
1.73679
1.73634
1.73533
1.73383
1.73228
1.73075
1.72909
1.72755
1.72605
1.72452
1.72302
1.72158
1.72018
1.71882
1.71751
1.71624
1.71498
1.71376
1.71257
1.71139
1.77415
1.7683
1.7625
1.75676
1.7511
1.74554
1.74012
1.73498
1.73022
1.72594
1.72201
1.71798
1.71349
1.70878
1.70422
1.69983
1.69543
1.69098
1.68655
1.68214
1.67777
1.67347
1.66928
1.66521
1.66127
1.65747
1.65379
1.65024
1.64681
1.64351
1.77415
1.7683
1.7625
1.75677
1.75111
1.74556
1.74016
1.73506
1.73042
1.72636
1.72279
1.7192
1.71508
1.71064
1.70626
1.70197
1.69764
1.69322
1.68881
1.68441
1.68006
1.67577
1.67159
1.66754
1.66363
1.65985
1.65621
1.65272
1.64937
1.64615
1.77415
1.7683
1.7625
1.75677
1.75112
1.74558
1.74023
1.73525
1.73088
1.72736
1.72472
1.7222
1.71898
1.7152
1.71126
1.70723
1.70304
1.69869
1.69433
1.68997
1.68565
1.6814
1.67728
1.67331
1.6695
1.66585
1.66237
1.65906
1.6559
1.6529
1.77415
1.7683
1.76251
1.75677
1.75113
1.74563
1.74036
1.73559
1.73174
1.72934
1.72872
1.72854
1.72723
1.72483
1.72178
1.71828
1.71438
1.71019
1.70595
1.70167
1.69742
1.69326
1.68926
1.68546
1.68186
1.67848
1.67534
1.67243
1.66972
1.66722
1.77415
1.7683
1.76251
1.75678
1.75115
1.74569
1.74056
1.73615
1.73324
1.73308
1.73724
1.74274
1.74559
1.74598
1.74463
1.74206
1.73858
1.73473
1.73073
1.72667
1.72266
1.7188
1.71519
1.71189
1.70892
1.70633
1.70412
1.70228
1.70079
1.69962
1.77415
1.7683
1.76251
1.75679
1.75118
1.74578
1.74084
1.73703
1.73581
1.74065
1.75743
1.77757
1.79048
1.79721
1.79942
1.79858
1.79595
1.79298
1.78969
1.78644
1.78342
1.78088
1.77897
1.77774
1.77726
1.77764
1.77884
1.78087
1.78371
1.78721
1.77415
1.7683
1.76251
1.7568
1.75121
1.74589
1.74122
1.73834
1.74032
1.75723
1.8105
1.86637
1.90372
1.92441
1.93403
1.93786
1.93965
1.94231
1.94462
1.9473
1.9508
1.95575
1.96284
1.97222
1.98415
1.99882
2.01622
2.03633
2.05919
2.08414
1.77415
1.7683
1.76253
1.75681
1.75125
1.74601
1.74169
1.74008
1.7481
1.79296
1.95199
2.20069
2.31215
2.36438
2.39427
2.41718
2.4533
2.49328
2.53184
2.571
2.61175
2.65562
2.70613
2.77015
2.85016
2.94421
3.05193
3.17183
3.30325
3.44082
1.77416
1.76831
1.76254
1.75683
1.75129
1.74613
1.74212
1.74212
1.75873
1.86171
2.05205
3.29531
4.31757
4.48701
5.3563
5.5113
5.65043
5.74341
5.81885
5.88419
5.94841
6.01845
6.09245
6.17659
6.27426
6.3874
6.51001
6.63959
6.76265
6.84791
1.77416
1.76832
1.76255
1.75686
1.75134
1.74622
1.74242
1.74362
1.76942
1.95056
2.49001
9.78047
21.5019
21.4491
18.0136
17.646
17.1206
16.6347
16.1867
15.7845
15.4286
15.107
14.7936
14.4941
14.2064
13.9197
13.6309
13.338
13.0389
12.7319
1.77416
1.76831
1.76254
1.75685
1.75133
1.74622
1.74242
1.74361
1.76944
1.9509
2.56282
13.3636
32.7024
32.6218
16.8747
16.6409
16.2916
15.988
15.7365
15.5541
15.4231
15.3323
15.2503
15.1719
15.0694
14.9428
14.785
14.595
14.3732
14.1162
1.77415
1.7683
1.76252
1.75682
1.75128
1.74613
1.74212
1.74212
1.75871
1.86183
2.20028
5.58873
8.71209
8.42082
5.23645
5.34987
5.48238
5.57616
5.65635
5.73175
5.8076
5.88906
5.98055
6.08399
6.20442
6.33208
6.45533
6.5664
6.65733
6.72366
1.77415
1.7683
1.76252
1.75681
1.75125
1.74602
1.74168
1.74008
1.74805
1.79311
1.95404
2.21926
2.33633
2.39162
2.42058
2.44321
2.47934
2.51796
2.55556
2.59309
2.6304
2.66723
2.70343
2.73889
2.77381
2.80807
2.84097
2.87209
2.90049
2.92517
1.77415
1.7683
1.76251
1.7568
1.75121
1.74589
1.74122
1.73833
1.74032
1.75724
1.81122
1.86875
1.90676
1.92936
1.93822
1.94257
1.94656
1.95192
1.95673
1.96098
1.96472
1.96802
1.97101
1.97376
1.97667
1.97977
1.98305
1.98647
1.98988
1.99316
1.77415
1.7683
1.76251
1.75679
1.75118
1.74578
1.74083
1.73701
1.73581
1.74072
1.75777
1.77838
1.79122
1.79777
1.79957
1.79898
1.7971
1.79524
1.79297
1.79046
1.78781
1.7851
1.78236
1.77962
1.77693
1.77435
1.77187
1.76951
1.76726
1.76509
1.77415
1.7683
1.76251
1.75678
1.75115
1.74568
1.74054
1.73612
1.73322
1.73311
1.73744
1.74321
1.74606
1.74626
1.74466
1.74196
1.73864
1.7352
1.73162
1.72796
1.72426
1.72056
1.71685
1.71315
1.70946
1.70581
1.70222
1.69868
1.69519
1.69176
1.77415
1.7683
1.7625
1.75677
1.75113
1.74562
1.74034
1.73556
1.73169
1.72931
1.72879
1.72879
1.72759
1.72515
1.72196
1.71833
1.71441
1.71037
1.70634
1.70228
1.69823
1.69421
1.69022
1.68626
1.68234
1.67845
1.67463
1.67086
1.66715
1.66351
1.77415
1.7683
1.7625
1.75677
1.75111
1.74557
1.7402
1.73521
1.73081
1.7273
1.72473
1.72234
1.71927
1.71553
1.71154
1.70744
1.70323
1.69894
1.69471
1.69048
1.68627
1.68211
1.67799
1.67392
1.6699
1.66592
1.66201
1.65814
1.65435
1.65061
1.77415
1.7683
1.7625
1.75676
1.7511
1.74554
1.74013
1.73501
1.73035
1.72627
1.72276
1.71928
1.7153
1.71094
1.70656
1.70222
1.69787
1.69347
1.68914
1.68482
1.68054
1.6763
1.67213
1.668
1.66393
1.65992
1.65595
1.65206
1.64822
1.64446
1.77415
1.7683
1.7625
1.75676
1.75109
1.74553
1.74009
1.73493
1.73014
1.72585
1.72196
1.71805
1.71371
1.70909
1.70455
1.70012
1.6957
1.69126
1.68687
1.68251
1.6782
1.67393
1.66973
1.66558
1.66149
1.65746
1.65348
1.64957
1.64571
1.64193
1.77414
1.76829
1.76248
1.75671
1.751
1.74536
1.73981
1.73445
1.72936
1.72457
1.71999
1.71532
1.71033
1.70521
1.70017
1.69522
1.69026
1.68523
1.68019
1.67514
1.67011
1.6651
1.66013
1.65522
1.65036
1.64556
1.64083
1.63616
1.63156
1.62705
1.77414
1.76829
1.76248
1.75671
1.751
1.74537
1.73983
1.73451
1.7295
1.72486
1.72052
1.71614
1.71141
1.70647
1.70156
1.69668
1.69176
1.68674
1.68171
1.67667
1.67164
1.66663
1.66167
1.65675
1.6519
1.6471
1.64238
1.63773
1.63314
1.62866
1.77415
1.76829
1.76248
1.75671
1.75101
1.74539
1.73988
1.73465
1.72982
1.72555
1.7218
1.71812
1.71399
1.7095
1.70489
1.70018
1.69534
1.69036
1.68536
1.68033
1.6753
1.6703
1.66534
1.66044
1.65561
1.65086
1.64618
1.64158
1.63707
1.63266
1.77415
1.76829
1.76248
1.75672
1.75102
1.74542
1.73997
1.73489
1.73041
1.72686
1.72436
1.72216
1.71927
1.71569
1.71165
1.70729
1.70264
1.69775
1.69281
1.68781
1.6828
1.67781
1.67288
1.66802
1.66325
1.65858
1.654
1.64953
1.64517
1.64093
1.77415
1.76829
1.76248
1.75672
1.75104
1.74547
1.74013
1.73527
1.73142
1.72925
1.72942
1.73037
1.73
1.7282
1.72529
1.72159
1.71728
1.71261
1.70781
1.7029
1.69797
1.69307
1.68824
1.68354
1.67897
1.67456
1.6703
1.66622
1.66231
1.65858
1.77415
1.76829
1.76248
1.75673
1.75106
1.74553
1.74032
1.73586
1.73307
1.73362
1.73994
1.74836
1.7534
1.75518
1.7543
1.7517
1.74796
1.74385
1.73937
1.73477
1.73016
1.72564
1.7213
1.71722
1.71344
1.70998
1.70687
1.70411
1.70169
1.6996
1.77415
1.76829
1.76249
1.75674
1.75108
1.74561
1.74059
1.73672
1.73572
1.74202
1.76373
1.78961
1.80646
1.81615
1.81993
1.81975
1.81736
1.81447
1.81105
1.80753
1.80412
1.80103
1.79845
1.79665
1.79578
1.7959
1.7971
1.79929
1.80248
1.80645
1.77415
1.7683
1.7625
1.75675
1.75111
1.7457
1.74089
1.73782
1.73982
1.75804
1.81908
1.88409
1.92575
1.94788
1.95871
1.96463
1.96806
1.97257
1.97687
1.98106
1.98569
1.99097
1.99757
2.00613
2.01758
2.03328
2.05295
2.07617
2.10272
2.13161
1.77415
1.76831
1.76252
1.75677
1.75113
1.74577
1.74118
1.73896
1.74515
1.7836
1.92078
2.13511
2.23541
2.27509
2.30641
2.34135
2.38558
2.43064
2.47326
2.51322
2.551
2.58698
2.62383
2.66203
2.70174
2.74332
2.78657
2.83014
2.87279
2.90978
1.77416
1.76831
1.76253
1.7568
1.75116
1.74583
1.74137
1.7398
1.74938
1.81364
2.08726
2.63333
2.94859
3.01994
3.19239
3.35999
3.5251
3.66173
3.78273
3.89209
3.99212
4.08342
4.16833
4.24549
4.31426
4.3751
4.42739
4.47014
4.50273
4.52463
1.77416
1.76831
1.76251
1.75678
1.75116
1.74583
1.74137
1.7398
1.74937
1.81388
2.08918
2.65084
2.9514
3.00245
3.14146
3.28326
3.43938
3.57654
3.70714
3.83352
3.95889
4.08125
4.20174
4.3155
4.4218
4.51966
4.60756
4.68344
4.74513
4.79149
1.77415
1.7683
1.76249
1.75675
1.75113
1.74577
1.74118
1.73896
1.74513
1.7837
1.92163
2.14525
2.23891
2.2752
2.30325
2.33128
2.3696
2.41022
2.44887
2.48713
2.52661
2.56871
2.61439
2.6649
2.71941
2.77569
2.83209
2.88662
2.93796
2.98478
1.77415
1.76829
1.76249
1.75674
1.7511
1.74569
1.74089
1.73782
1.73981
1.758
1.81983
1.88641
1.92864
1.9494
1.95941
1.96478
1.9685
1.97347
1.97836
1.98336
1.98884
1.99504
2.00209
2.01021
2.01938
2.02959
2.04073
2.0526
2.065
2.07739
1.77415
1.76829
1.76249
1.75674
1.75108
1.74561
1.74058
1.7367
1.73571
1.74204
1.76398
1.79015
1.80652
1.81574
1.81888
1.8186
1.81667
1.81452
1.81191
1.80906
1.80616
1.80332
1.80061
1.79815
1.79594
1.79406
1.7925
1.79127
1.79032
1.7896
1.77415
1.76829
1.76248
1.75673
1.75105
1.74553
1.74031
1.73584
1.73305
1.73364
1.74009
1.74868
1.75346
1.75483
1.75352
1.75081
1.74723
1.74349
1.73945
1.73527
1.73103
1.72679
1.72258
1.71842
1.71432
1.71031
1.70641
1.7026
1.69888
1.69526
1.77415
1.76829
1.76248
1.75672
1.75103
1.74546
1.74011
1.73524
1.73138
1.72923
1.72948
1.73053
1.73007
1.72805
1.72488
1.72102
1.71674
1.71223
1.70766
1.70302
1.69836
1.69369
1.68905
1.68444
1.67986
1.67532
1.67082
1.66638
1.66199
1.65767
1.77415
1.76829
1.76248
1.75672
1.75101
1.74541
1.73995
1.73485
1.73035
1.7268
1.72435
1.7222
1.71932
1.71565
1.71148
1.70702
1.70236
1.69757
1.69277
1.68793
1.6831
1.67828
1.6735
1.66874
1.66402
1.65933
1.65468
1.65008
1.64553
1.64104
1.77415
1.76829
1.76248
1.75671
1.751
1.74537
1.73986
1.7346
1.72975
1.72546
1.72173
1.7181
1.71402
1.70951
1.70483
1.70008
1.69524
1.69032
1.68542
1.6805
1.6756
1.67071
1.66586
1.66104
1.65625
1.6515
1.64679
1.64212
1.63749
1.63293
1.77414
1.76829
1.76248
1.75671
1.75099
1.74535
1.7398
1.73446
1.72942
1.72477
1.72043
1.71609
1.7114
1.70648
1.70154
1.69664
1.69172
1.68674
1.68179
1.67683
1.67189
1.66698
1.6621
1.65724
1.65243
1.64765
1.64291
1.63821
1.63355
1.62896
1.77414
1.76829
1.76248
1.75671
1.75099
1.74534
1.73977
1.7344
1.72928
1.72447
1.71989
1.71527
1.71035
1.70525
1.70022
1.69525
1.69029
1.68529
1.68031
1.67534
1.67039
1.66546
1.66056
1.65569
1.65086
1.64607
1.64132
1.63661
1.63193
1.62733
1.77414
1.76829
1.76248
1.75671
1.75099
1.74534
1.73977
1.73436
1.72915
1.72415
1.71931
1.7144
1.70931
1.70412
1.69899
1.6939
1.68881
1.68367
1.67852
1.67338
1.66824
1.66311
1.65802
1.65295
1.64792
1.64294
1.63799
1.63308
1.62822
1.62343
1.77414
1.76829
1.76248
1.75671
1.751
1.74535
1.73979
1.7344
1.72925
1.72436
1.71967
1.71496
1.71004
1.70499
1.69994
1.6949
1.68984
1.6847
1.67957
1.67442
1.66928
1.66416
1.65906
1.65399
1.64896
1.64397
1.63902
1.63412
1.62926
1.62448
1.77415
1.76829
1.76248
1.75671
1.751
1.74537
1.73983
1.7345
1.72948
1.72483
1.72053
1.71627
1.71174
1.70699
1.70214
1.69723
1.69222
1.68711
1.68198
1.67684
1.67169
1.66656
1.66146
1.6564
1.65137
1.64639
1.64146
1.63658
1.63175
1.627
1.77415
1.76829
1.76248