/*--------------------------------*- C++ -*----------------------------------*\
| =========                 |                                                 |
| \\      /  F ield         | OpenFOAM: The Open Source CFD Toolbox           |
|  \\    /   O peration     | Version:  2512                                  |
|   \\  /    A nd           | Website:  www.openfoam.com                      |
|    \\/     M anipulation  |                                                 |
\*---------------------------------------------------------------------------*/
FoamFile
{
    version     2.0;
    format      ascii;
    arch        "LSB;label=32;scalar=64";
    class       volScalarField;
    location    "280";
    object      p;
}
// * * * * * * * * * * * * * * * * * * * * * * * * * * * * * * * * * * * * * //

dimensions      [0 2 -2 0 0 0 0];

internalField   nonuniform List<scalar> 
90398
(
2.67425
2.66498
2.64243
2.59567
2.50352
2.33201
2.03044
1.53372
0.779206
-0.249261
-1.45437
-2.54881
-3.11272
-2.93571
-2.2567
-1.54963
-1.11711
-0.914358
-0.760316
-0.598588
-0.473845
-0.395841
-0.331926
-0.264914
-0.201802
-0.145816
-0.0978685
-0.0518427
-0.0248787
0.00250297
2.68808
2.68124
2.665
2.62922
2.55343
2.40366
2.12623
1.64584
0.879599
-0.216808
-1.56213
-2.80826
-3.40841
-3.12225
-2.28967
-1.49662
-1.06813
-0.893176
-0.742863
-0.578246
-0.462383
-0.394568
-0.331463
-0.258972
-0.190281
-0.131077
-0.0825234
-0.037701
-0.0124706
0.0122575
2.71473
2.71273
2.709
2.69522
2.6529
2.54897
2.32482
1.88503
1.1033
-0.132398
-1.7916
-3.38507
-4.05731
-3.51495
-2.33872
-1.36345
-0.958288
-0.848897
-0.701892
-0.525937
-0.426423
-0.383397
-0.334171
-0.267569
-0.202072
-0.143868
-0.0951832
-0.0504915
-0.0255394
0.00266631
2.75252
2.75767
2.77242
2.79176
2.80153
2.77255
2.64278
2.28787
1.50762
0.052261
-2.17611
-4.40271
-5.16298
-4.14558
-2.38231
-1.125
-0.79673
-0.800384
-0.643576
-0.43572
-0.339352
-0.303941
-0.254208
-0.192269
-0.138624
-0.0915885
-0.0506766
-0.0125487
0.004894
0.0221076
2.79892
2.81322
2.85181
2.91498
2.99706
3.0791
3.10354
2.91544
2.20472
0.42831
-2.8214
-6.12832
-6.88793
-4.97559
-2.27236
-0.667226
-0.584869
-0.7963
-0.640763
-0.434317
-0.374868
-0.342109
-0.265379
-0.188553
-0.140923
-0.106362
-0.0745915
-0.0411991
-0.0241316
-0.00194485
2.85066
2.87557
2.9422
3.05857
3.23341
3.47009
3.73583
3.85647
3.39956
1.22576
-3.91611
-9.12707
-9.68134
-6.12868
-1.80352
0.282405
-0.147267
-0.62122
-0.412204
-0.231779
-0.257659
-0.235974
-0.113859
-0.00471239
0.0400901
0.0482593
0.0447199
0.0420916
0.0393451
-0.00765333
2.90391
2.94002
3.0368
3.21263
3.49788
3.93725
4.56406
5.25291
5.40055
2.78655
-5.66333
-13.858
-13.8391
-7.95525
-1.04483
1.51591
0.0859395
-0.681127
-0.343919
-0.216013
-0.359802
-0.353573
-0.180521
-0.0224871
0.0503709
0.067611
0.0617689
0.0449336
0.106254
-0.0716723
2.9546
3.00146
3.12725
3.36244
3.76576
4.44712
5.57421
7.28852
9.12089
6.13049
-5.79648
-18.0053
-19.4766
-11.8997
1.47681
3.7569
0.539391
-0.501966
-0.0301772
-0.000711125
-0.218869
-0.161155
0.0876556
0.299447
0.409158
0.440607
0.409273
0.333741
0.303211
0.0837193
2.9988
3.05472
3.20496
3.49092
4.0006
4.92223
6.64443
9.83291
12.3468
15.3426
-14.1045
-33.3454
-28.8678
-19.0324
6.44308
6.13384
0.580999
-0.403097
0.147116
-0.0110697
-0.271939
-0.185551
0.0139204
0.126788
0.160031
0.153017
0.0908313
0.00928723
-0.227551
0.0693858
3.03327
3.09527
3.26207
3.58252
4.16594
5.25219
7.47895
12.1757
19.6424
34.1043
-54.3067
-58.839
-33.1638
-30.1392
15.4435
9.32439
1.22457
0.128618
0.465202
-0.00670523
-0.349123
-0.246077
-0.0709571
0.00445936
0.0470021
0.096679
0.104461
0.074852
-0.154559
0.243915
3.0558
3.1202
3.29298
3.62507
4.23161
5.36515
7.71858
12.7686
23.2284
63.2555
29.7467
-33.8433
-32.4205
15.2757
8.98518
1.09826
0.194561
0.543639
0.108216
-0.17673
-0.0654206
0.0575498
0.0647448
0.0756543
0.140906
0.192596
0.197067
0.0273329
0.276847
3.06561
3.12849
3.29605
3.61551
4.19019
5.24451
7.29096
11.326
19.2865
37.0923
5.04899
-37.7553
-49.0048
-34.8156
4.19298
3.43899
-1.20545
-1.54372
-0.844386
-0.833326
-0.874883
-0.672603
-0.469969
-0.371986
-0.261241
-0.0912205
0.0682752
0.153986
0.11644
0.193621
3.06338
3.12118
3.27388
3.56045
4.05953
4.92786
6.4541
9.08798
13.0818
18.7143
5.51878
-20.8137
-26.5393
-17.0519
0.448164
2.80966
0.475452
-0.164495
0.194336
0.141647
-0.100038
-0.176844
-0.162567
-0.152419
-0.0969092
0.0266852
0.153307
0.218532
0.188146
0.142945
3.05106
3.10124
3.23219
3.47171
3.87021
4.51368
5.53032
6.95894
8.53895
8.14264
0.415433
-11.9139
-15.0361
-8.89012
-1.22572
1.53805
0.239983
-0.573658
-0.38851
-0.323464
-0.482516
-0.54067
-0.464051
-0.352203
-0.225395
-0.0781755
0.0518425
0.121558
0.110824
0.0711871
3.0316
3.07282
3.17841
3.36519
3.65877
4.09426
4.69683
5.38052
5.80301
4.76586
-0.0229596
-7.40773
-10.0508
-6.59398
-1.88424
0.227067
-0.262961
-0.723502
-0.492732
-0.307103
-0.353752
-0.372862
-0.279489
-0.156266
-0.0502569
0.0424193
0.114122
0.145571
0.123657
0.0702175
3.00841
3.04044
3.12065
3.25681
3.45608
3.72068
4.02619
4.25483
4.1049
2.9236
-0.225864
-4.71524
-6.81387
-5.1817
-2.29743
-0.645939
-0.556558
-0.715432
-0.541699
-0.373903
-0.369863
-0.370359
-0.29308
-0.193025
-0.115931
-0.0581456
-0.0116534
0.0158093
0.0155175
-0.00143615
2.98495
3.00863
3.06617
3.15855
3.28059
3.41595
3.51885
3.47499
3.06222
1.92712
-0.297424
-3.19032
-4.81085
-4.11294
-2.29951
-1.01544
-0.708229
-0.731708
-0.611656
-0.453276
-0.390043
-0.357197
-0.289127
-0.207093
-0.141922
-0.0919816
-0.0470274
-0.0108899
0.00943947
0.00959605
2.96436
2.98126
3.02063
3.07881
3.14321
3.18767
3.15947
2.95957
2.43111
1.37977
-0.315872
-2.33069
-3.58594
-3.35264
-2.21517
-1.2444
-0.873638
-0.797549
-0.673755
-0.510531
-0.411659
-0.361304
-0.304377
-0.235576
-0.172857
-0.119939
-0.0707731
-0.0283607
0.00314345
0.00955339
2.94915
2.96133
2.98812
3.02305
3.0495
3.03671
2.93114
2.64758
2.07093
1.09116
-0.307455
-1.85529
-2.88179
-2.876
-2.12656
-1.35674
-0.962085
-0.819456
-0.688205
-0.532688
-0.422847
-0.362336
-0.307116
-0.240964
-0.175692
-0.119533
-0.0694874
-0.0269432
0.00625674
0.0116204
2.94106
2.95084
2.9712
2.99439
3.00204
2.96166
2.82019
2.5002
1.90688
0.966616
-0.296852
-1.64253
-2.56252
-2.64838
-2.07274
-1.40087
-1.00314
-0.833765
-0.701141
-0.551483
-0.435951
-0.36688
-0.30906
-0.243723
-0.179576
-0.1257
-0.0792937
-0.0400342
-0.00776929
-0.000760694
2.66669
2.65704
2.63334
2.58468
2.49011
2.3161
2.01364
1.51981
0.774582
-0.235912
-1.41482
-2.48576
-3.04235
-2.87902
-2.22548
-1.54165
-1.1204
-0.918333
-0.763452
-0.603158
-0.479445
-0.400592
-0.335295
-0.267322
-0.203392
-0.146502
-0.0983636
-0.0520703
-0.0262353
0.00386412
2.68035
2.67303
2.65549
2.6175
2.53876
2.38568
2.10625
1.62782
0.87091
-0.204232
-1.51402
-2.72871
-3.32102
-3.05491
-2.25626
-1.49116
-1.07345
-0.897166
-0.745765
-0.582838
-0.467449
-0.39848
-0.335006
-0.263364
-0.195509
-0.136332
-0.087711
-0.0422917
-0.0175383
0.0106054
2.70658
2.70396
2.69858
2.68191
2.63548
2.52647
2.29787
1.85797
1.08589
-0.121449
-1.72215
-3.26525
-3.93012
-3.42396
-2.30208
-1.36716
-0.972636
-0.858454
-0.710246
-0.535363
-0.432115
-0.382591
-0.329443
-0.262633
-0.198744
-0.142305
-0.0953432
-0.0514707
-0.028335
0.00183355
2.74383
2.74812
2.76071
2.77607
2.77985
2.74282
2.60403
2.24427
1.47278
0.0594987
-2.0638
-4.20695
-4.97051
-4.01245
-2.3357
-1.13508
-0.813789
-0.812203
-0.666251
-0.471514
-0.375497
-0.331768
-0.27331
-0.205178
-0.147499
-0.097757
-0.0553018
-0.0151385
0.00271329
0.0244545
2.78956
2.80269
2.83842
2.89616
2.96934
3.03842
3.04536
2.84184
2.13356
0.432179
-2.60389
-5.8
-6.60979
-4.80557
-2.24181
-0.701453
-0.589568
-0.761817
-0.610804
-0.425028
-0.378409
-0.353917
-0.284338
-0.212313
-0.166282
-0.131501
-0.0991788
-0.063434
-0.0439465
-0.0111825
2.84057
2.86396
2.92686
3.03587
3.19751
3.41307
3.64743
3.73026
3.25213
1.20803
-3.46033
-8.54289
-9.24501
-5.91666
-1.84125
0.144946
-0.275101
-0.711293
-0.479432
-0.26991
-0.265891
-0.235448
-0.120452
-0.0203668
0.0212645
0.0305485
0.0293317
0.0311579
0.0286278
0.00724485
2.89309
2.92737
3.01954
3.18563
3.45215
3.8588
4.42874
5.03029
5.10819
2.7629
-4.74761
-12.9783
-13.0341
-7.5831
-1.06414
1.62721
0.251434
-0.640995
-0.431435
-0.319799
-0.431956
-0.419519
-0.265963
-0.128053
-0.0638522
-0.0462332
-0.0488346
-0.0546744
-0.0135124
-0.098624
2.94309
2.98771
3.1084
3.33257
3.71127
4.34199
5.36815
6.88955
8.42695
6.19381
-4.14058
-17.3214
-18.463
-11.3905
0.853721
3.25509
0.627154
-0.285841
0.0650039
0.0624597
-0.142736
-0.114603
0.0701517
0.223009
0.292333
0.300227
0.25837
0.175824
0.183826
-0.0733046
2.98674
3.04004
3.1843
3.45889
3.94184
4.79642
6.35444
9.16882
11.6731
14.1733
-8.04334
-28.8043
-25.1061
-19.113
8.87903
6.0815
0.372822
-0.387942
0.143935
-0.0579052
-0.378336
-0.381454
-0.274368
-0.227561
-0.231592
-0.250481
-0.302572
-0.371878
-0.499923
-0.287087
3.02084
3.08006
3.24005
3.54652
4.09989
5.10944
7.11184
11.1814
17.9122
31.0344
-38.7245
-108.575
-27.3458
-41.4261
21.469
11.0245
1.36014
0.0437913
0.352457
-0.110608
-0.482965
-0.428608
-0.290849
-0.234416
-0.201029
-0.151057
-0.129805
-0.143437
-0.282705
0.0066372
3.04322
3.10477
3.27061
3.58838
4.16382
5.21803
7.33588
11.7076
20.926
55.4518
-56.7584
21.494
11.3448
1.57826
0.36542
0.685397
0.208965
-0.162904
-0.126747
-0.0383309
-0.0355192
-0.0244298
0.0365664
0.0858177
0.0863695
-0.0231807
0.106797
3.0531
3.11319
3.27437
3.58159
4.12759
5.1075
6.96203
10.5068
17.6798
32.3963
6.71842
-57.1359
-44.1473
-43.0091
9.08617
5.31259
-0.321532
-0.713157
-0.055967
-0.167972
-0.369556
-0.31105
-0.206293
-0.174985
-0.119887
-0.00682876
0.100664
0.142491
0.114098
0.0902895
3.05114
3.10643
3.25343
3.52777
3.99862
4.80524
6.20107
8.5341
11.8831
16.9092
5.14482
-22.1007
-24.7846
-15.8765
0.134423
2.44519
0.300792
-0.21661
0.167886
0.121487
-0.117706
-0.190513
-0.16042
-0.131735
-0.0699078
0.0412574
0.145511
0.189423
0.156665
0.0935848
3.03927
3.08729
3.21291
3.44082
3.8162
4.41674
5.35056
6.62126
7.93126
7.33812
0.183686
-11.6035
-14.4019
-8.45638
-1.3031
1.6077
0.405812
-0.395051
-0.233273
-0.184006
-0.349886
-0.416978
-0.353053
-0.258186
-0.154993
-0.0378198
0.0604497
0.104826
0.087173
0.0419171
3.02035
3.05967
3.16066
3.33819
3.6145
4.02017
4.57273
5.17317
5.47892
4.38379
-0.080183
-7.08849
-9.61636
-6.25383
-1.80802
0.224713
-0.247192
-0.687424
-0.470808
-0.298313
-0.341416
-0.357039
-0.269341
-0.158054
-0.0645366
0.017231
0.0802897
0.107707
0.0922783
0.0461457
2.99773
3.02819
3.10467
3.23362
3.42051
3.66555
3.94001
4.12539
3.92933
2.74332
-0.246311
-4.5093
-6.51846
-4.95174
-2.22234
-0.650138
-0.556591
-0.701562
-0.535708
-0.373521
-0.362789
-0.358602
-0.285842
-0.194144
-0.122237
-0.0657989
-0.0185734
0.010097
0.0144313
-0.00232016
2.97483
2.99724
3.0518
3.13859
3.2518
3.37412
3.45835
3.3926
2.96247
1.83484
-0.30542
-3.06614
-4.621
-3.95864
-2.23488
-1.01178
-0.71508
-0.730495
-0.609178
-0.452268
-0.387283
-0.353721
-0.288376
-0.209322
-0.144344
-0.092746
-0.0463768
-0.0106609
0.00993738
0.00625868
2.95471
2.97059
3.00755
3.06138
3.11923
3.15466
3.11516
2.90425
2.37069
1.33097
-0.31399
-2.25537
-3.46431
-3.24713
-2.16211
-1.23368
-0.875019
-0.794445
-0.669546
-0.510371
-0.414012
-0.36348
-0.305985
-0.236951
-0.174001
-0.121299
-0.0730727
-0.0330909
-0.00245252
0.00116171
2.93985
2.95118
2.97593
3.00733
3.02869
3.0093
2.89651
2.60734
2.03092
1.06346
-0.301734
-1.80478
-2.80012
-2.79993
-2.08221
-1.34269
-0.960842
-0.818229
-0.687042
-0.534658
-0.426498
-0.364852
-0.308242
-0.242125
-0.177827
-0.122934
-0.0738489
-0.0327197
0.00103942
0.00549896
2.93195
2.94094
2.95944
2.97947
2.98269
2.93679
2.78992
2.46666
1.87573
0.947775
-0.289512
-1.60223
-2.49837
-2.58597
-2.03278
-1.38538
-1.00028
-0.832385
-0.699467
-0.551862
-0.438103
-0.368977
-0.310813
-0.246081
-0.182675
-0.129046
-0.0820158
-0.0428113
-0.00900604
-0.00348365
2.65134
2.64056
2.61395
2.56076
2.4607
2.2814
1.97608
1.48597
0.756853
-0.220828
-1.35066
-2.37485
-2.91652
-2.77988
-2.17494
-1.53211
-1.12702
-0.923268
-0.766076
-0.607564
-0.484424
-0.403287
-0.335654
-0.266582
-0.202168
-0.144633
-0.0967685
-0.0504748
-0.0262112
0.00685445
2.66461
2.65602
2.63523
2.59206
2.50669
2.34659
2.06207
1.58526
0.844389
-0.192853
-1.43912
-2.5939
-3.17193
-2.94341
-2.20572
-1.48759
-1.0842
-0.902919
-0.74879
-0.587443
-0.470739
-0.398
-0.332855
-0.262194
-0.195762
-0.137057
-0.0890343
-0.0435524
-0.0201124
0.0111605
2.69004
2.68587
2.67658
2.65338
2.59795
2.47823
2.23963
1.79652
1.03929
-0.118601
-1.62068
-3.07263
-3.72595
-3.28419
-2.25219
-1.37848
-0.992986
-0.866495
-0.716339
-0.544109
-0.435216
-0.375914
-0.317522
-0.250792
-0.188964
-0.134455
-0.0895984
-0.0467141
-0.0260416
0.00548918
2.72615
2.72849
2.73615
2.74292
2.73392
2.67992
2.52168
2.14832
1.38638
0.042965
-1.90878
-3.9084
-4.67752
-3.82683
-2.28729
-1.16944
-0.843563
-0.817044
-0.675213
-0.49177
-0.391957
-0.337131
-0.271732
-0.200914
-0.142894
-0.0936282
-0.052671
-0.0125579
0.00376144
0.0283182
2.77048
2.78112
2.81056
2.8569
2.91178
2.9539
2.92445
2.685
1.96746
0.383342
-2.32194
-5.29777
-6.16746
-4.55741
-2.21294
-0.78067
-0.627691
-0.744627
-0.594029
-0.417544
-0.364758
-0.33421
-0.266212
-0.1961
-0.15036
-0.115716
-0.0849479
-0.0494986
-0.0322962
0.00222235
2.81994
2.84017
2.89503
2.98904
3.12491
3.29845
3.4663
3.46938
2.92375
1.0854
-2.86167
-7.62536
-8.54352
-5.58174
-1.88272
-0.0322605
-0.357019
-0.721956
-0.49645
-0.277946
-0.248351
-0.214414
-0.116894
-0.0310113
0.00734751
0.0201315
0.0240029
0.0329979
0.0313543
0.0314438
2.87087
2.90132
2.98334
3.13008
3.36117
3.70319
4.15706
4.58659
4.48541
2.46207
-3.61735
-11.4474
-11.9211
-7.07022
-1.24883
1.3128
0.202407
-0.59674
-0.416674
-0.264657
-0.313095
-0.290379
-0.172354
-0.0707841
-0.0264192
-0.0167904
-0.0234816
-0.0289943
-0.0231459
-0.0465619
2.91943
2.95965
3.06841
3.26866
3.60119
4.13891
4.9709
6.13312
7.04585
5.56503
-2.36099
-15.493
-16.7982
-10.559
0.371037
2.45624
0.382752
-0.355413
-0.0483084
0.00764376
-0.119145
-0.0897846
0.0400801
0.148368
0.202316
0.222528
0.213491
0.183864
0.189659
0.0556491
2.96188
3.01023
3.14118
3.38771
3.81429
4.54724
5.8073
7.94203
9.80607
11.4909
1.10752
-26.2536
-22.1263
-16.9199
8.06669
4.92992
-0.0786711
-0.582064
0.0143028
-0.0265839
-0.221228
-0.186466
-0.0825002
-0.0267814
-0.0107857
-0.00374149
-0.0215826
-0.0593146
-0.126679
-0.0493295
2.99517
3.04894
3.19462
3.47034
3.95887
4.82611
6.43189
9.47776
14.1696
21.7144
0.912062
-47.6651
-17.0049
-37.9522
19.1961
9.67151
0.897939
-0.0887721
0.339388
0.0237666
-0.330559
-0.327857
-0.233145
-0.186866
-0.150426
-0.0936837
-0.0552104
-0.0478046
-0.1346
0.0471983
3.01722
3.07321
3.22439
3.51079
4.01944
4.92622
6.62586
9.89916
16.211
33.3802
-32.8934
-32.7647
19.038
9.557
0.733603
-0.0368875
0.506095
0.191781
-0.166396
-0.171176
-0.0981119
-0.0712069
-0.0359419
0.0349987
0.0947392
0.106073
0.0509441
0.0977321
3.02727
3.08206
3.2291
3.50626
3.99064
4.83518
6.34045
9.0239
14.1894
22.0261
13.013
-39.8839
-29.7904
-36.0439
8.71187
4.88865
-0.245332
-0.532694
0.0876925
-0.0429589
-0.308159
-0.318757
-0.238917
-0.189014
-0.122038
-0.0212071
0.0676779
0.0983648
0.0801275
0.0380109
3.02591
3.07631
3.21005
3.45749
3.87508
4.56917
5.71462
7.50955
9.70992
10.2297
5.57903
-20.5204
-22.7275
-13.8397
0.543975
2.31474
0.249113
-0.271529
0.0600959
0.0271305
-0.186218
-0.241603
-0.184157
-0.124911
-0.0506442
0.0462735
0.126388
0.152558
0.123649
0.0639178
3.01498
3.05853
3.17239
3.37732
3.70922
4.22597
4.99303
5.97044
6.77364
5.88793
-0.0771946
-10.426
-13.1051
-7.61474
-1.27126
1.28328
0.211708
-0.473637
-0.293479
-0.214672
-0.336458
-0.378881
-0.305637
-0.216098
-0.128002
-0.0359976
0.0366435
0.0654527
0.052997
0.0166076
2.99723
3.03269
3.12388
3.28272
3.5256
3.87264
4.32077
4.76033
4.83595
3.67166
-0.216712
-6.47264
-8.85532
-5.80816
-1.78945
0.0783999
-0.290614
-0.651149
-0.450314
-0.291092
-0.320016
-0.328192
-0.249472
-0.154456
-0.0755768
-0.00603777
0.0489833
0.0754356
0.0714336
0.0355641
2.97585
3.00309
3.07159
3.18566
3.34738
3.55204
3.76315
3.86124
3.56859
2.37572
-0.340437
-4.18622
-6.04978
-4.63276
-2.14274
-0.693612
-0.581423
-0.699091
-0.547548
-0.392734
-0.367835
-0.353835
-0.284986
-0.20075
-0.131985
-0.0749449
-0.0256984
0.00531553
0.0167381
0.000700841
2.95413
2.97386
3.02186
3.09686
3.19135
3.28603
3.3318
3.22029
2.75052
1.63397
-0.356956
-2.88867
-4.33669
-3.74494
-2.16739
-1.0379
-0.746057
-0.739484
-0.614002
-0.457954
-0.386617
-0.348485
-0.285347
-0.209507
-0.144597
-0.0914189
-0.0441859
-0.0100849
0.0114633
0.00329058
2.93499
2.94862
2.98011
3.02449
3.06823
3.08441
3.02114
2.7861
2.23909
1.21834
-0.338377
-2.14714
-3.27776
-3.09335
-2.09878
-1.23654
-0.888923
-0.795573
-0.667641
-0.513561
-0.418212
-0.365211
-0.306604
-0.237848
-0.174815
-0.122357
-0.0750641
-0.0379977
-0.00746428
-0.00670397
2.92084
2.93021
2.95024
2.97374
2.98388
2.95027
2.82177
2.51943
1.94098
0.994757
-0.310722
-1.72963
-2.66987
-2.68303
-2.02395
-1.33466
-0.968614
-0.821561
-0.688751
-0.540251
-0.433087
-0.368477
-0.309472
-0.243444
-0.180137
-0.126462
-0.0780375
-0.0388689
-0.00372197
-0.00103673
2.91328
2.92047
2.93461
2.94749
2.9409
2.88315
2.72416
2.39241
1.80389
0.897297
-0.291892
-1.54056
-2.39204
-2.48599
-1.97708
-1.3725
-1.00471
-0.835448
-0.700652
-0.55566
-0.443308
-0.372528
-0.312881
-0.248604
-0.186037
-0.132678
-0.0848082
-0.0461023
-0.0103238
-0.00718769
2.62903
2.61647
2.58543
2.52554
2.41758
2.23073
1.92139
1.4364
0.729374
-0.203378
-1.26659
-2.22525
-2.7438
-2.64234
-2.10418
-1.51699
-1.13407
-0.930014
-0.771876
-0.616428
-0.493917
-0.410084
-0.340222
-0.270552
-0.206204
-0.148594
-0.10129
-0.0545649
-0.0307903
0.00661951
2.64171
2.63115
2.60545
2.55464
2.45982
2.28993
1.99844
1.52413
0.80554
-0.180004
-1.34365
-2.41522
-2.96971
-2.79093
-2.13589
-1.48137
-1.09852
-0.913435
-0.758067
-0.599493
-0.481057
-0.403618
-0.336418
-0.266793
-0.20211
-0.144328
-0.0970691
-0.0510134
-0.0278061
0.00823528
2.66598
2.65947
2.64429
2.61158
2.54347
2.409
2.15671
1.70948
0.973432
-0.118257
-1.49967
-2.82686
-3.45606
-3.09768
-2.18625
-1.39457
-1.02364
-0.8842
-0.733724
-0.56631
-0.452397
-0.383597
-0.320446
-0.253867
-0.193776
-0.140221
-0.0961457
-0.0524649
-0.0320116
0.00400187
2.70043
2.69988
2.70019
2.69456
2.66768
2.59035
2.40584
2.01428
1.26773
0.0137894
-1.74214
-3.54016
-4.28689
-3.58244
-2.23003
-1.22817
-0.902829
-0.84396
-0.701328
-0.526649
-0.422185
-0.358741
-0.290644
-0.220771
-0.163599
-0.11414
-0.0728077
-0.030211
-0.0121742
0.0204338
2.74273
2.74976
2.76991
2.79984
2.82931
2.83466
2.75717
2.47098
1.74794
0.287806
-2.07086
-4.69282
-5.57356
-4.2385
-2.19146
-0.924529
-0.736775
-0.792085
-0.636521
-0.457901
-0.386804
-0.345165
-0.279654
-0.213481
-0.167565
-0.131067
-0.0990693
-0.060904
-0.0429908
-0.00180494
2.78993
2.80571
2.84895
2.9215
3.02184
3.13891
3.22123
3.12236
2.51045
0.847742
-2.44338
-6.56558
-7.5819
-5.11658
-1.96534
-0.370906
-0.538775
-0.792916
-0.588068
-0.372561
-0.315479
-0.273637
-0.190558
-0.113294
-0.0697426
-0.0445934
-0.0267068
-0.00284829
0.00421564
0.0286272
2.83857
2.86362
2.93145
3.05088
3.23359
3.49107
3.79953
4.01741
3.70696
1.89202
-2.84879
-9.46414
-10.4087
-6.25108
-1.48427
0.541592
-0.153341
-0.66943
-0.472515
-0.299641
-0.310403
-0.297857
-0.222293
-0.149249
-0.11065
-0.0919772
-0.0830322
-0.0711314
-0.0657529
-0.0413012
2.88501
2.91895
3.0107
3.1772
3.44678
3.86481
4.46366
5.1922
5.5437
4.06435
-1.4888
-12.4396
-14.8016
-9.26184
-0.351472
1.15796
-0.276056
-0.711937
-0.340238
-0.174799
-0.214485
-0.190028
-0.107354
-0.0283314
0.017424
0.0475019
0.0601665
0.0632163
0.059487
0.0413999
2.92573
2.96704
3.07877
3.28522
3.63312
4.20851
5.12818
6.53842
8.13002
8.18415
1.94946
-20.3412
-19.9389
-13.8918
4.08878
2.98979
-0.285453
-0.670231
-0.139303
-0.0784998
-0.210138
-0.214621
-0.164171
-0.12633
-0.109116
-0.0912266
-0.088415
-0.100789
-0.130135
-0.0915192
2.95785
3.00407
3.12915
3.36165
3.76132
4.44501
5.61926
7.62814
10.7135
13.7367
12.813
-64.9515
-17.72
-27.5159
7.84138
4.82
-0.144246
-0.524491
0.0677334
-0.00606297
-0.250992
-0.2729
-0.212871
-0.167616
-0.126411
-0.0735279
-0.0351112
-0.023242
-0.062189
0.000579746
2.97941
3.02768
3.15784
3.39999
3.81723
4.53402
5.77862
7.94702
11.4097
17.1022
18.1836
-33.2697
-54.1234
-35.0228
8.16386
4.89482
-0.090515
-0.33323
0.316383
0.208831
-0.078628
-0.127536
-0.0768923
-0.0378016
0.00236498
0.055691
0.0968932
0.0989411
0.065923
0.0454178
2.98969
3.03699
3.16352
3.39772
3.79584
4.46493
5.56979
7.3698
9.76608
11.1817
10.9146
-30.3624
-29.3711
-23.463
4.26577
3.10771
-0.21541
-0.502963
0.00358913
-0.0462454
-0.268977
-0.303199
-0.229837
-0.161278
-0.0957275
-0.0232767
0.0322293
0.0419815
0.01993
-0.0167133
2.98919
3.03261
3.14745
3.35688
3.70146
4.25211
5.09402
6.2779
7.39485
6.93641
3.34058
-15.8478
-19.5799
-10.9206
0.0985948
1.46921
-0.129957
-0.537056
-0.193003
-0.124282
-0.246964
-0.265574
-0.18596
-0.107081
-0.0366562
0.0320882
0.0815272
0.09092
0.0703338
0.0246812
2.97964
3.01692
3.11431
3.28701
3.55959
3.96717
4.52735
5.15838
5.45635
4.30298
-0.430938
-8.64233
-11.1923
-6.56639
-1.37312
0.568947
-0.166339
-0.597416
-0.37507
-0.251519
-0.317295
-0.338659
-0.269665
-0.190982
-0.12239
-0.0584664
-0.00831962
0.0111197
0.00949304
-0.0149845
2.96357
2.9936
3.07074
3.20297
3.3998
3.66832
3.98422
4.22875
4.06758
2.8379
-0.469932
-5.63171
-7.75634
-5.27658
-1.87694
-0.262891
-0.443926
-0.676356
-0.490106
-0.334459
-0.335403
-0.330201
-0.258967
-0.174813
-0.105222
-0.0454265
0.00426251
0.0306686
0.0390117
0.0134327
2.944
2.96662
3.02336
3.11607
3.24286
3.39238
3.52089
3.51152
3.11308
1.92208
-0.482759
-3.76086
-5.41659
-4.25793
-2.09933
-0.81646
-0.663739
-0.730799
-0.586181
-0.431664
-0.385147
-0.357521
-0.291228
-0.21264
-0.146616
-0.0916983
-0.0436332
-0.0135981
0.00472622
-0.00966646
2.92398
2.93983
2.97808
3.03609
3.10427
3.16075
3.15516
2.98529
2.47332
1.38225
-0.430772
-2.65864
-3.95327
-3.47236
-2.10167
-1.0978
-0.806381
-0.767483
-0.636666
-0.481202
-0.399823
-0.353579
-0.291327
-0.218974
-0.155067
-0.102449
-0.0556818
-0.0236887
0.00144783
-0.00782344
2.90627
2.9166
2.93992
2.97055
2.99427
2.98367
2.88803
2.62168
2.06076
1.07256
-0.371056
-1.99997
-3.02762
-2.89387
-2.02654
-1.25269
-0.917768
-0.808067
-0.677196
-0.527768
-0.430353
-0.372375
-0.312374
-0.244741
-0.182033
-0.129991
-0.0830267
-0.0484246
-0.015526
-0.0165286
2.89315
2.89962
2.91254
2.92445
2.91858
2.86504
2.71482
2.39514
1.8157
0.901508
-0.323331
-1.62658
-2.49338
-2.52874
-1.9516
-1.32966
-0.983502
-0.831111
-0.697175
-0.553112
-0.445954
-0.377281
-0.315644
-0.249732
-0.187026
-0.134156
-0.0860486
-0.0490311
-0.0117419
-0.0107225
2.88612
2.8906
2.89817
2.90053
2.87986
2.80533
2.6294
2.28621
1.70154
0.825659
-0.297325
-1.45685
-2.24778
-2.35236
-1.90609
-1.35928
-1.01354
-0.843001
-0.707221
-0.565858
-0.454373
-0.380684
-0.318804
-0.254724
-0.192852
-0.140068
-0.0917237
-0.0544431
-0.0157275
-0.0144991
2.601
2.58635
2.54999
2.48204
2.36443
2.1686
1.85479
1.37655
0.696427
-0.182135
-1.16707
-2.04866
-2.53758
-2.47477
-2.01318
-1.49056
-1.13471
-0.932752
-0.774937
-0.623011
-0.500997
-0.414399
-0.342592
-0.272789
-0.20885
-0.151323
-0.104645
-0.0572987
-0.0334389
0.00796986
2.61294
2.60007
2.56846
2.50852
2.40234
2.22087
1.92172
1.45141
0.760058
-0.163717
-1.2314
-2.20591
-2.72607
-2.60081
-2.04196
-1.46254
-1.10551
-0.918506
-0.762962
-0.607888
-0.488063
-0.406125
-0.336931
-0.268193
-0.205073
-0.148132
-0.101711
-0.0548464
-0.0313982
0.00879681
2.63578
2.62652
2.60426
2.56022
2.47714
2.32555
2.05834
1.60824
0.898891
-0.115469
-1.35975
-2.54092
-3.12726
-2.85914
-2.09009
-1.39606
-1.04461
-0.891993
-0.740777
-0.57878
-0.461653
-0.385777
-0.319518
-0.253381
-0.194503
-0.141528
-0.0979474
-0.0527911
-0.0318434
0.00791332
2.66819
2.66424
2.6557
2.63538
2.58768
2.48381
2.27116
1.8625
1.13769
-0.0139756
-1.55595
-3.10675
-3.79588
-3.25875
-2.13385
-1.26942
-0.947605
-0.85324
-0.706824
-0.539022
-0.430811
-0.362153
-0.294593
-0.227219
-0.171224
-0.121943
-0.0804697
-0.0355375
-0.0162883
0.0214091
2.708
2.71077
2.71974
2.73034
2.73056
2.69478
2.56677
2.23551
1.51692
0.187748
-1.81334
-3.99601
-4.82212
-3.805
-2.12254
-1.04041
-0.808883
-0.799478
-0.643007
-0.46689
-0.381919
-0.3334
-0.272348
-0.21024
-0.163622
-0.124452
-0.0901042
-0.0488893
-0.0311958
0.0106108
2.75241
2.76294
2.79222
2.83965
2.89952
2.95413
2.94957
2.75294
2.09583
0.582376
-2.09319
-5.3539
-6.34048
-4.51181
-2.00027
-0.665391
-0.637236
-0.762804
-0.583833
-0.385977
-0.315512
-0.274777
-0.207817
-0.140148
-0.094294
-0.0599995
-0.0319254
0.0019538
0.0125468
0.0426348
2.79821
2.81693
2.86792
2.95561
3.08383
3.24979
3.41462
3.4366
2.95785
1.30597
-2.33446
-7.42192
-8.49696
-5.32284
-1.6153
-0.068825
-0.354174
-0.625664
-0.445088
-0.281068
-0.271593
-0.266983
-0.216353
-0.157521
-0.117073
-0.0858917
-0.0614047
-0.0338988
-0.0251195
0.00788463
2.84202
2.86846
2.9404
3.06834
3.26766
3.55807
3.93323
4.28533
4.19909
2.58492
-2.3976
-10.6609
-11.5164
-6.41668
-0.876625
0.539259
-0.280191
-0.575671
-0.277249
-0.114392
-0.145266
-0.152877
-0.107543
-0.0502437
-0.00666144
0.0321993
0.0594319
0.081907
0.0825873
0.0893193
2.88062
2.91352
3.00258
3.16471
3.42804
3.83819
4.43706
5.20444
5.7763
4.85186
0.229573
-13.8608
-16.0902
-9.34275
0.772088
1.78299
-0.0394643
-0.51915
-0.163671
-0.0590576
-0.157833
-0.189545
-0.158093
-0.112411
-0.0736651
-0.035929
-0.0120417
0.00124292
-0.00685314
0.0156005
2.91129
2.94868
3.04928
3.2335
3.53862
4.03213
4.80594
5.92454
7.22559
7.40803
3.75781
-21.2351
-20.8051
-11.4615
1.53213
2.95319
0.474336
-0.202457
0.102339
0.0871263
-0.109818
-0.17475
-0.147965
-0.0960285
-0.0469899
9.40546e-05
0.0338786
0.0493365
0.0324133
0.045503
2.93225
2.97149
3.07669
3.26933
3.58923
4.10907
4.93408
6.14939
7.64574
8.1364
6.06586
-21.3516
-25.0362
-12.7177
1.02237
2.6473
0.320881
-0.258625
0.0837464
0.0640969
-0.143872
-0.200616
-0.148436
-0.082538
-0.0269105
0.0230664
0.059816
0.0703286
0.053902
0.0360581
2.94278
2.98113
3.08352
3.27006
3.57611
4.06083
4.79412
5.81025
6.80748
6.48875
3.52293
-16.9164
-21.0813
-10.7977
0.42185
1.7079
-0.0627593
-0.519155
-0.183359
-0.131305
-0.266515
-0.288621
-0.211084
-0.129282
-0.0652531
-0.0124999
0.0264497
0.035153
0.0254025
0.00178539
2.94334
2.9784
3.07118
3.2372
3.50054
3.8983
4.4553
5.11392
5.4857
4.38864
-0.677578
-10.2919
-12.5714
-6.75397
-0.702446
0.707219
-0.240134
-0.55649
-0.270305
-0.153657
-0.222954
-0.236439
-0.168095
-0.0942041
-0.0374151
0.00880275
0.0437709
0.0545306
0.0530811
0.0227132
2.93547
2.96538
3.04323
3.1785
3.38434
3.67415
4.03465
4.35275
4.2708
2.99846
-0.681259
-6.7429
-8.88417
-5.508
-1.51291
-0.0202365
-0.37481
-0.620284
-0.424898
-0.291254
-0.316354
-0.324086
-0.262764
-0.189332
-0.128798
-0.0776243
-0.0334555
-0.011264
0.00290886
-0.0145699
2.92149
2.94512
3.00536
3.10642
3.25078
3.43314
3.61638
3.67956
3.33605
2.09173
-0.63095
-4.57698
-6.35335
-4.59333
-1.91344
-0.563576
-0.558275
-0.681662
-0.521007
-0.368774
-0.341425
-0.324044
-0.2595
-0.182923
-0.118813
-0.0663899
-0.0199648
0.00637773
0.0261598
0.00455473
2.90413
2.92129
2.9638
3.03127
3.11785
3.20622
3.24903
3.13646
2.65656
1.50269
-0.557349
-3.21254
-4.61614
-3.76593
-2.0155
-0.922727
-0.725027
-0.739901
-0.60499
-0.454951
-0.392276
-0.355367
-0.292816
-0.220164
-0.157324
-0.106017
-0.0596826
-0.0306926
-0.0040134
-0.0174813
2.88619
2.89743
2.92388
2.96163
2.99933
3.01277
2.95239
2.725
2.18165
1.1415
-0.465171
-2.34917
-3.46111
-3.11675
-1.99686
-1.13813
-0.849405
-0.780363
-0.650003
-0.499845
-0.410816
-0.357276
-0.295721
-0.226924
-0.164787
-0.113872
-0.067484
-0.0368335
-0.00545749
-0.0156591
2.87024
2.87664
2.89004
2.90419
2.90439
2.86301
2.73194
2.43412
1.86534
0.925444
-0.382036
-1.80941
-2.71717
-2.64322
-1.92616
-1.25496
-0.937313
-0.813791
-0.682911
-0.539252
-0.439379
-0.376313
-0.315465
-0.249675
-0.188011
-0.136962
-0.0900105
-0.05733
-0.0204746
-0.0239271
2.85838
2.86138
2.86567
2.8636
2.83866
2.76181
2.58728
2.2499
1.67355
0.802622
-0.324982
-1.49645
-2.27789
-2.33943
-1.85755
-1.31321
-0.991161
-0.835499
-0.702182
-0.563284
-0.45616
-0.383829
-0.320361
-0.255126
-0.193154
-0.141328
-0.0933698
-0.0588522
-0.0182599
-0.0198381
2.85201
2.85327
2.85285
2.84247
2.80489
2.7106
2.51543
2.1605
1.58314
0.747553
-0.295351
-1.35139
-2.07312
-2.19099
-1.81685
-1.33591
-1.01618
-0.846454
-0.711374
-0.574557
-0.464009
-0.387398
-0.323436
-0.259694
-0.198523
-0.146725
-0.0983291
-0.0631447
-0.0210183
-0.0221391
2.56867
2.55171
2.50943
2.43256
2.3046
2.0995
1.78181
1.31235
0.66279
-0.156769
-1.05894
-1.8599
-2.31662
-2.29365
-1.91366
-1.46072
-1.13492
-0.936731
-0.780277
-0.63243
-0.511391
-0.422506
-0.349106
-0.279347
-0.215806
-0.157993
-0.111296
-0.0625521
-0.0380101
0.00777081
2.57978
2.56435
2.52621
2.45621
2.33788
2.14456
1.8384
1.37435
0.714209
-0.142935
-1.11115
-1.98501
-2.46779
-2.39785
-1.94128
-1.44174
-1.1127
-0.925172
-0.770627
-0.620218
-0.500369
-0.41492
-0.343865
-0.275501
-0.213162
-0.15617
-0.109706
-0.0612157
-0.0369603
0.00782378
2.60101
2.58873
2.55869
2.5023
2.40334
2.23439
1.95319
1.50312
0.825171
-0.106962
-1.21413
-2.24747
-2.78578
-2.61045
-1.99018
-1.39673
-1.06605
-0.902426
-0.751868
-0.596851
-0.479246
-0.398823
-0.330396
-0.264148
-0.205105
-0.151176
-0.106691
-0.0590454
-0.0366585
0.00803393
2.63114
2.62347
2.60528
2.56909
2.49962
2.36916
2.13007
1.70875
1.01226
-0.0326511
-1.36835
-2.67922
-3.30489
-2.93593
-2.04291
-1.31092
-0.992353
-0.868959
-0.722615
-0.563452
-0.453655
-0.381343
-0.314204
-0.247885
-0.191124
-0.139943
-0.0968658
-0.0490197
-0.02773
0.0163259
2.66813
2.66629
2.66316
2.65314
2.62318
2.5469
2.37194
2.00394
1.30095
0.109648
-1.56766
-3.33402
-4.08209
-3.37735
-2.06386
-1.15332
-0.883765
-0.824057
-0.675706
-0.509181
-0.415085
-0.359275
-0.298453
-0.235585
-0.184359
-0.139225
-0.100692
-0.0554954
-0.0362446
0.00921299
2.70942
2.71429
2.72852
2.74943
2.76804
2.76237
2.67877
2.40182
1.72497
0.371741
-1.78105
-4.27476
-5.18502
-3.94122
-2.02504
-0.903564
-0.738892
-0.77755
-0.628884
-0.453371
-0.374332
-0.330164
-0.268685
-0.201824
-0.148626
-0.10322
-0.065699
-0.0230786
-0.00766953
0.0299301
2.75207
2.76399
2.7967
2.8511
2.92462
3.0041
3.04197
2.90828
2.32316
0.831868