/*--------------------------------*- C++ -*----------------------------------*\
| =========                 |                                                 |
| \\      /  F ield         | OpenFOAM: The Open Source CFD Toolbox           |
|  \\    /   O peration     | Version:  2512                                  |
|   \\  /    A nd           | Website:  www.openfoam.com                      |
|    \\/     M anipulation  |                                                 |
\*---------------------------------------------------------------------------*/
FoamFile
{
    version     2.0;
    format      ascii;
    arch        "LSB;label=32;scalar=64";
    class       volScalarField;
    location    "280";
    object      p;
}
// * * * * * * * * * * * * * * * * * * * * * * * * * * * * * * * * * * * * * //

dimensions      [0 2 -2 0 0 0 0];

internalField   nonuniform List<scalar> 
84826
(
3.0854
3.08729
3.08875
3.08012
3.04233
2.94315
2.72992
2.32209
1.61609
0.511125
-1.0133
-2.79335
-4.3252
-4.94309
-4.47309
-3.41379
-2.38426
-1.66959
-1.22022
-0.8932
-0.628999
-0.438448
-0.322691
-0.254743
-0.208804
-0.175118
-0.150535
-0.126598
-0.0932037
-0.0384108
3.09689
3.10122
3.10908
3.11203
3.09265
3.02067
2.84393
2.47667
1.79895
0.674425
-0.95867
-2.96671
-4.71661
-5.34701
-4.70929
-3.4667
-2.33519
-1.60298
-1.16813
-0.848
-0.585845
-0.403781
-0.299132
-0.237458
-0.192989
-0.160138
-0.137784
-0.116038
-0.0826263
-0.0279352
3.11883
3.12795
3.14835
3.17412
3.19161
3.1754
3.07593
2.79923
2.1933
1.04377
-0.810877
-3.33611
-5.57723
-6.21428
-5.20055
-3.55915
-2.21471
-1.45978
-1.05941
-0.747043
-0.486007
-0.32519
-0.250288
-0.210242
-0.179755
-0.160882
-0.154417
-0.146684
-0.118583
-0.0588549
3.1495
3.16551
3.20399
3.26318
3.33604
3.40669
3.4338
3.31775
2.86167
1.71709
-0.482821
-3.9649
-7.06649
-7.64568
-5.98873
-3.67275
-1.98386
-1.23136
-0.899286
-0.582936
-0.307085
-0.166666
-0.122065
-0.0981008
-0.0751405
-0.068539
-0.0811294
-0.0933574
-0.0807686
-0.0389966
3.18635
3.21089
3.27193
3.37369
3.51954
3.71034
3.92472
4.07091
3.90623
2.88292
0.207979
-5.03124
-9.52515
-9.77972
-7.11227
-3.73907
-1.56426
-0.911104
-0.72599
-0.423839
-0.157623
-0.0736669
-0.0810447
-0.0762526
-0.0543396
-0.0488165
-0.0646255
-0.0826252
-0.0746011
-0.0582566
3.22618
3.26023
3.3467
3.49762
3.73129
4.07559
4.54959
5.10289
5.47171
4.86267
1.64862
-6.74947
-13.5451
-12.9529
-8.71229
-3.56503
-0.739126
-0.303251
-0.283178
0.011865
0.211442
0.163141
0.0515505
0.00382918
0.00158606
0.0011879
0.00390718
0.020239
0.0598361
0.000773539
3.26545
3.30911
3.42154
3.62405
3.95418
4.47916
5.29073
6.44782
7.76265
8.1616
4.34114
-9.41048
-19.3762
-17.8645
-11.4342
-3.12626
0.181078
0.128727
0.113618
0.534862
0.657418
0.425257
0.164264
0.00454113
-0.0964226
-0.16089
-0.14994
-0.0743345
0.126595
-0.116142
3.30053
3.35287
3.48894
3.73954
4.16382
4.87778
6.08384
8.06268
11.0072
13.9565
9.75068
-7.58976
-24.1719
-23.7527
-15.7342
-0.739279
2.38574
1.04354
0.931438
1.58114
1.67708
1.31494
0.939774
0.633456
0.338069
0.102394
0.0438745
0.130694
0.504646
0.0620625
3.32814
3.38717
3.54159
3.83007
4.33102
5.20677
6.79042
9.68954
15.0482
23.3577
23.3079
-13.7238
-31.493
-37.7867
-25.5605
0.458082
3.49448
0.226776
-0.436687
0.237448
0.429602
0.293719
0.192686
0.0436543
-0.237161
-0.498635
-0.550305
-0.35715
-0.0860694
0.0356195
3.34577
3.40858
3.57337
3.88336
4.42831
5.39869
7.21321
10.7435
18.1228
33.0301
47.8303
-0.834287
-56.1038
-51.0859
-20.2598
8.63591
11.8289
6.41199
3.75737
2.9257
2.12701
1.49541
1.17509
0.867193
0.419625
0.0153932
-0.122469
0.0582703
0.182331
0.552543
3.35196
3.4152
3.58098
3.89271
4.44054
5.41667
7.2426
10.7934
18.2224
33.2618
55.6378
21.989
-51.8224
-19.7367
8.55156
12.1723
7.23589
4.41834
3.19583
2.17628
1.52095
1.23787
0.961971
0.53336
0.12624
-0.0374041
0.0800749
0.190022
0.485241
3.34655
3.40689
3.56454
3.85885
4.36957
5.26214
6.87629
9.83273
15.3254
23.9637
35.9189
-2.20715
-35.0425
-43.1822
-27.2517
-1.08285
4.31414
2.25765
0.78659
0.119065
-0.429968
-0.659966
-0.582745
-0.498926
-0.550558
-0.636353
-0.58404
-0.366565
-0.14105
0.19929
3.33065
3.38515
3.52656
3.78684
4.22714
4.96699
6.21773
8.27835
11.3967
14.7042
16.9303
-7.87456
-24.2316
-28.9724
-17.2582
-1.35659
3.91612
3.37118
2.26478
1.43167
0.645142
0.110263
-0.109832
-0.192331
-0.275963
-0.354683
-0.349438
-0.235128
-0.0799305
0.0639191
3.30647
3.35301
3.47251
3.68766
4.03825
4.59558
5.46056
6.70975
8.19456
8.89782
5.58134
-7.46173
-17.2478
-16.6584
-11.088
-2.76565
0.888901
0.85117
0.292323
0.0125853
-0.227549
-0.407387
-0.430884
-0.35799
-0.29448
-0.270992
-0.253994
-0.206468
-0.116658
-0.0284764
3.277
3.31452
3.40946
3.57539
3.83287
4.21361
4.74446
5.38833
5.90533
5.52369
2.63628
-5.36013
-12.0514
-11.9288
-8.28632
-3.43933
-0.718228
-0.235666
-0.21847
-0.0731185
-0.0131486
-0.0633855
-0.0824622
-0.0359729
0.0118435
0.0157974
-0.0113616
-0.0279244
0.000801349
0.0277558
3.24564
3.27411
3.34471
3.46319
3.63498
3.86415
4.13522
4.36531
4.32466
3.47396
1.02243
-3.98766
-8.42483
-8.94538
-6.68807
-3.56757
-1.49709
-0.802027
-0.56398
-0.349857
-0.257387
-0.293483
-0.325985
-0.296796
-0.248295
-0.227583
-0.233024
-0.231175
-0.183704
-0.108364
3.21578
3.23605
3.28485
3.3619
3.46195
3.5716
3.65363
3.61394
3.26208
2.25116
0.207648
-3.13525
-6.20555
-6.94512
-5.55813
-3.43564
-1.8484
-1.12317
-0.802088
-0.567398
-0.426804
-0.383994
-0.355447
-0.29297
-0.219571
-0.169703
-0.145372
-0.122428
-0.0748353
-0.0185803
3.19048
3.20407
3.23528
3.27963
3.32495
3.34769
3.30101
3.09415
2.57769
1.53511
-0.205104
-2.63943
-4.86523
-5.6109
-4.78831
-3.30889
-2.07095
-1.37841
-1.01354
-0.752387
-0.565902
-0.462137
-0.395886
-0.32565
-0.253628
-0.198837
-0.164667
-0.136953
-0.0942964
-0.0450269
3.17219
3.1811
3.20004
3.22194
3.23067
3.19736
3.07165
2.76957
2.17157
1.13744
-0.40518
-2.34743
-4.09071
-4.80344
-4.31317
-3.21054
-2.18074
-1.51533
-1.11871
-0.833387
-0.620016
-0.484964
-0.400207
-0.326881
-0.254797
-0.19475
-0.152364
-0.119207
-0.0786684
-0.0330682
3.1626
3.16911
3.18174
3.1922
3.18261
3.12188
2.95871
2.61364
1.98253
0.960039
-0.484758
-2.20969
-3.7384
-4.4275
-4.08573
-3.15539
-2.22402
-1.5766
-1.1687
-0.875848
-0.656098
-0.511735
-0.420121
-0.344491
-0.270922
-0.207882
-0.162126
-0.1276
-0.0872623
-0.0405598
3.07657
3.0778
3.07757
3.06608
3.02437
2.92054
2.70273
2.29247
1.5891
0.494835
-1.00812
-2.75534
-4.25362
-4.85585
-4.39537
-3.36488
-2.36697
-1.67089
-1.22643
-0.900795
-0.63939
-0.451046
-0.334702
-0.264126
-0.215155
-0.178985
-0.152419
-0.126676
-0.0924037
-0.0361852
3.08789
3.09149
3.09753
3.0973
3.07343
2.99584
2.813
2.44117
1.76409
0.650211
-0.957783
-2.92373
-4.63118
-5.24196
-4.61637
-3.41001
-2.31747
-1.60559
-1.17426
-0.855512
-0.597339
-0.418086
-0.312883
-0.248755
-0.201711
-0.16653
-0.141818
-0.11751
-0.0826266
-0.0261039
3.10949
3.11774
3.13599
3.15791
3.16967
3.14576
3.0369
2.75089
2.14066
1.00087
-0.821251
-3.28249
-5.46336
-6.07181
-5.0725
-3.48475
-2.19767
-1.46735
-1.06803
-0.757082
-0.500715
-0.340731
-0.262262
-0.218567
-0.18605
-0.165856
-0.15727
-0.146339
-0.116245
-0.0543983
3.13971
3.15462
3.1905
3.24485
3.31008
3.36961
3.38166
3.24755
2.77696
1.63866
-0.516025
-3.8984
-6.91468
-7.44429
-5.79473
-3.56179
-1.96159
-1.23907
-0.910704
-0.607386
-0.344258
-0.201715
-0.14499
-0.110385
-0.0821108
-0.0729289
-0.0828995
-0.0914014
-0.0772645
-0.0329725
3.17603
3.19918
3.257
3.35263
3.48824
3.6629
3.85321
3.96646
3.76819
2.7399
0.133102
-4.96644
-9.34895
-9.49036
-6.8017
-3.57706
-1.53985
-0.898047
-0.705781
-0.438216
-0.208898
-0.132547
-0.127103
-0.107854
-0.0760188
-0.0630353
-0.0723419
-0.0839982
-0.0742252
-0.0532015
3.2153
3.24761
3.33003
3.47327
3.69353
4.01492
4.45148
4.94784
5.24985
4.61216
1.49509
-6.78397
-13.484
-12.5277
-8.13862
-3.27381
-0.73311
-0.328003
-0.289504
-0.0272274
0.14337
0.0966364
0.001393
-0.0333577
-0.0250835
-0.0143718
-0.00217948
0.0210748
0.0584017
0.0197399
3.25401
3.2956
3.40315
3.59591
3.9089
4.4029
5.15901
6.22606
7.41794
7.77197
4.04823
-9.95889
-19.8542
-17.2576
-10.5145
-2.49044
0.496174
0.29765
0.14107
0.441918
0.534753
0.327369
0.0876182
-0.0646328
-0.157566
-0.208704
-0.190312
-0.108613
0.0459204
-0.0913667
3.2886
3.33857
3.46909
3.70803
4.11047
4.78318
5.91163
7.76215
10.5293
13.4745
10.2376
-9.00848
-25.9304
-22.5906
-14.2378
-0.711064
2.30399
1.0588
0.754356
1.2523
1.39803
1.16241
0.871463
0.606383
0.336728
0.116413
0.048065
0.112246
0.407919
0.0276716
3.31585
3.37227
3.52059
3.79615
4.2714
5.09482
6.57581
9.29758
14.475
23.4654
25.6865
-11.5214
-35.8251
-31.8434
-16.4667
3.64923
4.70537
1.07337
-0.149501
0.101421
0.17668
0.0460545
-0.0595304
-0.21559
-0.490252
-0.746886
-0.821504
-0.660371
-0.450112
-0.296062
3.33328
3.39337
3.55179
3.84818
4.36567
5.27889
6.97131
10.2756
17.487
34.6194
61.6885
-51.6489
-84.128
-49.4087
-15.9658
10.7185
10.6334
4.87317
2.25895
1.56774
1.0291
0.624598
0.430575
0.201219
-0.180091
-0.536864
-0.656261
-0.483244
-0.312892
0.0680616
3.33945
3.39998
3.55942
3.85758
4.3779
5.29649
6.99967
10.3232
17.58
34.8272
73.6237
-62.3938
-14.8529
9.87391
9.782
4.6071
2.24536
1.52618
0.965991
0.637327
0.532947
0.378219
0.0487769
-0.287613
-0.416315
-0.293022
-0.135078
0.137037
3.3342
3.3919
3.54368
3.82529
4.30942
5.14873
6.65889
9.43471
14.7357
24.0294
42.6186
-31.4621
-57.8683
-73.0636
-17.8144
0.0533374
2.28816
0.0819881
-0.893237
-0.999579
-1.12681
-1.07269
-0.874371
-0.708554
-0.698046
-0.744134
-0.674095
-0.462406
-0.172762
0.0107226
3.31863
3.37072
3.50663
3.75524
4.17284
4.87042
6.04192
7.97018
10.8996
14.1785
17.8196
-11.7478
-28.6528
-24.8198
-15.0268
-1.79367
2.41751
1.92513
1.19531
0.759742
0.286565
-0.0385122
-0.15574
-0.173518
-0.222801
-0.289804
-0.283861
-0.182068
-0.0325064
0.047216
3.29487
3.33932
3.45378
3.65891
3.99189
4.51747
5.32518
6.48003
7.83185
8.46959
5.21541
-8.14989
-17.9017
-15.8848
-9.99578
-2.167
0.946169
0.73914
0.170012
-0.103596
-0.340009
-0.51812
-0.547739
-0.478104
-0.41146
-0.375931
-0.34254
-0.279877
-0.174885
-0.085296
3.26592
3.30162
3.39238
3.55043
3.79407
4.15098
4.64255
5.22565
5.66807
5.2437
2.43219
-5.47857
-12.0852
-11.4693
-7.59925
-3.05308
-0.693791
-0.340836
-0.368304
-0.260308
-0.210778
-0.242052
-0.232977
-0.159856
-0.0866217
-0.0567243
-0.0604628
-0.0577782
-0.0171359
0.0141617
3.2351
3.26209
3.32934
3.44147
3.60255
3.81469
4.06009
4.25418
4.17438
3.30952
0.912722
-3.975
-8.30585
-8.66966
-6.3451
-3.36789
-1.46069
-0.82253
-0.603791
-0.40648
-0.311612
-0.325624
-0.334466
-0.289879
-0.232733
-0.206542
-0.208554
-0.205065
-0.1603
-0.0948435
3.20574
3.22483
3.2709
3.34286
3.43481
3.53254
3.59814
3.53801
3.16766
2.1571
0.15054
-3.10152
-6.0902
-6.76437
-5.36049
-3.31184
-1.81753
-1.13365
-0.823464
-0.594904
-0.453823
-0.403055
-0.366942
-0.302216
-0.230113
-0.181972
-0.158454
-0.135234
-0.0870305
-0.0304632
3.18087
3.19351
3.22243
3.26268
3.30184
3.31613
3.25888
3.04082
2.51718
1.48039
-0.23227
-2.60729
-4.77483
-5.48446
-4.66293
-3.22908
-2.04636
-1.37968
-1.01909
-0.760274
-0.576448
-0.472238
-0.403814
-0.332274
-0.260081
-0.204943
-0.169576
-0.139835
-0.0946335
-0.0446391
3.16291
3.17101
3.18798
3.20646
3.21027
3.17067
3.03782
2.7296
2.13002
1.10375
-0.417011
-2.31986
-4.02151
-4.71042
-4.2244
-3.15211
-2.15868
-1.51336
-1.12235
-0.840295
-0.630357
-0.495976
-0.409148
-0.333308
-0.259593
-0.198452
-0.154923
-0.120472
-0.0782076
-0.0331172
3.15349
3.15924
3.17004
3.17741
3.16348
3.09744
2.92872
2.5798
1.94941
0.93535
-0.490455
-2.18436
-3.67985
-4.35022
-4.01236
-3.1059
-2.20346
-1.57373
-1.17144
-0.880789
-0.663007
-0.518757
-0.425236
-0.347604
-0.273046
-0.20978
-0.163826
-0.128921
-0.0875468
-0.0418318
3.05848
3.05808
3.05381
3.03573
2.98512
2.87053
2.64139
2.22262
1.52006
0.443753
-1.01635
-2.69558
-4.12526
-4.69905
-4.26376
-3.29046
-2.34648
-1.67741
-1.23784
-0.912925
-0.655236
-0.469332
-0.350862
-0.275444
-0.221697
-0.181562
-0.151594
-0.122972
-0.0872853
-0.0310715
3.06948
3.07131
3.07299
3.06556
3.03166
2.94146
2.74442
2.36009
1.67954
0.581626
-0.979496
-2.86139
-4.48374
-5.05936
-4.46498
-3.32751
-2.29904
-1.61579
-1.18671
-0.868182
-0.61464
-0.437501
-0.329276
-0.260386
-0.209525
-0.17131
-0.143535
-0.116175
-0.0798067
-0.0231084
3.09042
3.09664
3.10988
3.12333
3.12275
3.0822
2.95272
2.64538
2.02142
0.890896
-0.874996
-3.21335
-5.27017
-5.83235
-4.87368
-3.38206
-2.1831
-1.48504
-1.08338
-0.774219
-0.524518
-0.363116
-0.275808
-0.223718
-0.186341
-0.163008
-0.150984
-0.136247
-0.104944
-0.0446859
3.11971
3.13223
3.16217
3.20613
3.25543
3.29189
3.27248
3.10039
2.59451
1.4508
-0.6321
-3.82003
-6.65034
-7.11299
-5.50723
-3.41932
-1.95297
-1.26289
-0.92708
-0.638776
-0.394616
-0.249662
-0.177022
-0.128429
-0.0929766
-0.0788183
-0.0834295
-0.0861521
-0.0701072
-0.0259249
3.15491
3.17519
3.22591
3.30862
3.42339
3.56563
3.70757
3.75434
3.48107
2.41336
-0.110694
-4.86583
-8.96846
-9.00345
-6.33741
-3.361
-1.54641
-0.916485
-0.691288
-0.450976
-0.254923
-0.175897
-0.150748
-0.116205
-0.07817
-0.0610887
-0.0657291
-0.0727
-0.0642468
-0.0428364
3.19295
3.22184
3.29589
3.42323
3.61637
3.89271
4.25605
4.6399
4.79695
4.03848
0.986113
-6.71911
-12.9694
-11.8145
-7.30445
-2.91467
-0.795956
-0.405859
-0.316936
-0.0850088
0.0648412
0.0429386
-0.0218471
-0.0415988
-0.0282005
-0.0127907
0.00297134
0.0269282
0.0559745
0.03381
3.23047
3.26806
3.36577
3.53963
3.81844
4.25152
4.89918
5.78436
6.70766
6.76254
3.04522
-9.9832
-19.3873
-16.058
-8.8327
-1.86217
0.497568
0.280606
0.107124
0.34454
0.467004
0.350747
0.169501
0.0331453
-0.0624628
-0.121836
-0.124078
-0.0734019
0.0122025
-0.0584901
3.26402
3.30941
3.42851
3.64552
4.00734
4.60259
5.57976
7.15068
9.42878
11.6944
8.60603
-9.96174
-27.149
-21.5693
-10.096
-0.00744882
2.1321
0.995618
0.488794
0.761825
0.93516
0.855396
0.682988
0.497816
0.29806
0.137521
0.0926241
0.160326
0.333174
0.137293
3.29048
3.34195
3.4776
3.72807
4.15592
4.88777
6.17702
8.50718
12.8866
20.3804
22.8873
-14.5106
-45.2192
-32.2783
-6.30177
5.40289
5.15332
2.15153
0.8337
0.803705
0.82029
0.718402
0.593576
0.411787
0.13382
-0.129474
-0.246988
-0.178835
-0.047732
-0.0513699
3.30746
3.36238
3.50762
3.77712
4.24209
5.0522
6.52548
9.36064
15.5521
30.2958
58.9059
-65.9062
-83.9572
-58.3782
-1.10148
12.201
9.38822
4.60617
2.39457
1.8387
1.43905
1.11222
0.8942
0.637956
0.26901
-0.0786004
-0.237961
-0.159243
-0.0458642
0.135592
3.31359
3.36892
3.51512
3.78701
4.25717
5.07299
6.55317
9.40497
15.6353
30.4803
70.7531
-77.7702
-0.340351
12.1889
9.21039
4.72561
2.71121
2.10039
1.61806
1.28125
1.07422
0.845876
0.500797
0.154741
-0.0234369
0.0187443
0.0760014
0.245505
3.30869
3.36149
3.50076
3.75782
4.19587
4.94276
6.25649
8.6343
13.1209
20.8791
39.6545
-38.9244
-77.6815
-52.0495
-4.48279
4.79593
4.16651
1.83184
0.860801
0.638783
0.388702
0.23512
0.194993
0.155501
0.025293
-0.140392
-0.196093
-0.109643
0.0384717
0.117101
3.29381
3.34136
3.46588
3.69237
4.06846
4.68685
5.70386
7.34497
9.7656
12.3208
15.5534
-13.639
-33.5464
-23.5228
-9.86749
-0.714765
1.73906
1.28684
0.918627
0.801136
0.577011
0.372488
0.283812
0.240728
0.163158
0.0594899
0.017701
0.0608947
0.142953
0.147154
3.271
3.31135
3.41575
3.60158
3.89962
4.36284
5.05873
6.02397
7.0897
7.3918
4.07778
-8.4258
-17.7897
-14.8405
-8.38525
-1.71387
0.708778
0.604398
0.26807
0.125819
-0.0413537
-0.198406
-0.250647
-0.22543
-0.198772
-0.193985
-0.183099
-0.141579
-0.0672033
-0.0211071
3.24314
3.27531
3.35747
3.49918
3.71486
4.02506
4.44005
4.90394
5.18825
4.61842
1.8335
-5.56707
-11.7605
-10.8642
-6.80873
-2.68587
-0.713693
-0.379749
-0.356435
-0.251781
-0.203826
-0.218965
-0.198238
-0.12396
-0.0515725
-0.0182325
-0.0151528
-0.00749095
0.026192
0.0405091
3.21348
3.23747
3.29738
3.39611
3.53546
3.71356
3.90762
4.02984
3.86551
2.94507
0.606347
-3.96882
-8.03481
-8.24972
-5.8942
-3.13935
-1.46096
-0.873597
-0.648929
-0.457382
-0.350608
-0.33108
-0.309906
-0.249687
-0.186298
-0.155998
-0.154335
-0.14964
-0.112079
-0.0631314
3.1852
3.20175
3.24162
3.30272
3.37786
3.45101
3.48257
3.38018
2.96757
1.94074
-0.00930537
-3.0836
-5.89282
-6.47911
-5.08811
-3.17217
-1.81575
-1.17647
-0.862693
-0.629777
-0.478124
-0.407847
-0.355994
-0.28546
-0.214162
-0.167646
-0.144903
-0.122176
-0.0764288
-0.0255589
3.16122
3.17169
3.19534
3.22663
3.2526
3.24886
3.16877
2.92591
2.38332
1.34825
-0.317847
-2.57922
-4.62663
-5.27861
-4.47851
-3.12984
-2.03243
-1.39876
-1.03733
-0.776371
-0.591031
-0.48068
-0.405183
-0.330039
-0.257036
-0.201443
-0.164752
-0.132924
-0.0861809
-0.0378871
3.14389
3.15008
3.16242
3.17322
3.1662
3.11267
2.96364
2.64004
2.03281
1.01694
-0.463635
-2.28836
-3.90686
-4.5535
-4.08607
-3.07345
-2.1401
-1.52292
-1.13648
-0.855765
-0.647558
-0.510792
-0.41848
-0.338102
-0.261934
-0.199254
-0.153926
-0.117425
-0.0731936
-0.0295843
3.13479
3.13875
3.14525
3.14556
3.12193
3.04386
2.86194
2.50186
1.8686
0.867823
-0.520488
-2.1508
-3.57894
-4.21567
-3.89332
-3.03581
-2.18316
-1.57937
-1.18321
-0.893975
-0.677303
-0.530978
-0.432622
-0.350851
-0.274249
-0.209881
-0.162604
-0.126157
-0.0832398
-0.0392822
3.03211
3.0292
3.01876
2.99081
2.92695
2.79633
2.5502
2.11787
1.41474
0.363597
-1.03375
-2.61282
-3.94314
-4.47911
-4.08705
-3.19648
-2.3243
-1.69028
-1.25913
-0.937122
-0.684232
-0.500228
-0.378092
-0.296318
-0.236554
-0.191263
-0.156308
-0.123381
-0.0851671
-0.0289343
3.04261
3.04176
3.03682
3.01864
2.96993
2.86112
2.64309
2.23993
1.55312
0.477812
-1.01414
-2.77153
-4.26847
-4.80284
-4.26514
-3.22793
-2.28383
-1.63794
-1.21464
-0.898085
-0.649115
-0.471999
-0.357915
-0.282053
-0.225991
-0.183686
-0.151404
-0.119841
-0.0810318
-0.0237392
3.06258
3.06577
3.07151
3.07244
3.05387
2.9893
2.83018
2.49192
1.84777
0.73228
-0.952434
-3.10963
-4.97926
-5.49223
-4.62101
-3.2716
-2.18604
-1.52749
-1.12576
-0.819599
-0.575734
-0.40947
-0.308922
-0.24443
-0.199154
-0.169712
-0.151702
-0.131987
-0.0990798
-0.0405965
3.0905
3.09951
3.12062
3.14943
3.17585
3.17958
3.11598
2.89085
2.33685
1.18623
-0.798069
-3.68744
-6.22057
-6.6295
-5.15658
-3.29304
-1.998
-1.34285
-0.990436
-0.709039
-0.478281
-0.327432
-0.236998
-0.172755
-0.126233
-0.101253
-0.0943902
-0.0874286
-0.0670432
-0.0221514
3.12406
3.14024
3.18044
3.24457
3.32977
3.42673
3.50165
3.45778
3.08199
1.95518
-0.455518
-4.64843
-8.26091
-8.29619
-5.81822
-3.21446
-1.67782
-1.06362
-0.782423
-0.538788
-0.350256
-0.255469
-0.209357
-0.164017
-0.1205
-0.0949774
-0.0878727
-0.0834123
-0.0690308
-0.0395977
3.16034
3.18447
3.24615
3.3508
3.506
3.72018
3.98364
4.21544
4.1693
3.22663
0.268126
-6.30932
-11.6997
-10.6946
-6.51321
-2.84648
-1.15044
-0.711815
-0.520137
-0.270404
-0.0958753
-0.0612277
-0.0839657
-0.0881477
-0.072233
-0.0545306
-0.0352733
-0.00900567
0.0185686
0.0216779
3.19612
3.22827
3.31177
3.45877
3.69013
4.04003
4.54235
5.17619
5.71349
5.27905
1.58434
-9.04019
-17.149
-13.9829
-7.22856
-2.02807
-0.271811
-0.243017
-0.261494
-0.0187933
0.164518
0.161565
0.069043
-0.0141681
-0.0765952
-0.113603
-0.109493
-0.0681331
-0.0100098
-0.025663
3.22814
3.26746
3.37068
3.55702
3.86234
4.35303
5.12837
6.30316
7.82307
8.83
5.91078
-9.23502
-24.7332
-19.5725
-7.16726
-0.826274
0.707689
0.235935
-0.0411539
0.169183
0.377958
0.401757
0.316273
0.205273
0.0765766
-0.0229742
-0.0428191
0.0205072
0.123039
0.087486
3.25343
3.29824
3.41665
3.63375
3.99754
4.60737
5.64403
7.41692
10.4065
14.4771
15.2395
-12.6096
-41.5859
-28.9288
-4.154
1.89376
2.2303
0.941602
0.258482
0.268178
0.354383
0.334394
0.265396
0.156566
-0.0155837
-0.175721
-0.238478
-0.177823
-0.0629561
-0.0410465
3.26976
3.31768
3.44457
3.67844
4.07437
4.75004
5.94459
8.13148
12.3922
20.3441
34.1499
-37.7483
-75.227
-50.9418
-0.749567
5.14995
4.1767
2.12333
1.04475
0.798318
0.631261
0.468701
0.353183
0.216278
0.00902356
-0.194638
-0.285169
-0.21922
-0.114715
0.0234925
3.27582
3.32424
3.45214
3.68791
4.0894
4.77177
5.97121
8.1721
12.4645
20.4974
40.2367
-31.7468
-103.605
-66.4682
-0.429175
5.47422
4.21368
2.1437
1.14822
0.894374
0.68918
0.519286
0.419462
0.318173
0.136109
-0.0651143
-0.17029
-0.129171
-0.0656681
0.0695397
3.27141
3.31763
3.43924
3.66188
4.03618
4.66115
5.71898
7.53258
10.6097
14.8862
24.7387
-20.9969
-88.9466
-48.4937
-2.86876
2.12175
1.67459
0.406788
-0.0833698
-0.107068
-0.159064
-0.20536
-0.189969
-0.170176
-0.223019
-0.308266
-0.330135
-0.251389
-0.129658
-0.020502
3.25752
3.29889
3.40708
3.60215
3.9212
4.43339
5.24457
6.48027
8.11808
9.3557
10.7237
-11.6464
-30.8809
-20.6679
-6.49734
-0.974522
0.325146
0.159186
0.103634
0.194652
0.168839
0.0921901
0.0617361
0.0494309
0.00486285
-0.0618199
-0.0887562
-0.0511609
0.0199894
0.044748
3.23611
3.27087
3.36082
3.51926
3.76877
4.14663
4.69268
5.3968
6.05487
5.82095
2.43648
-7.8246
-15.934
-12.9947
-6.81268
-1.99347
-0.282129
-0.133904
-0.160611
-0.128458
-0.173819
-0.25807
-0.287172
-0.267665
-0.246247
-0.239267
-0.223906
-0.182596
-0.115118
-0.0646263
3.20989
3.23716
3.30665
3.42501
3.60148
3.84724
4.15791
4.46117
4.52557
3.74147
0.998407
-5.35547
-10.7151
-9.9
-6.09008
-2.64625
-1.04781
-0.64754
-0.51279
-0.378264
-0.313529
-0.306267
-0.276376
-0.206191
-0.136354
-0.096196
-0.0784849
-0.0584386
-0.0206123
0.00308419
3.1819
3.20164
3.25067
3.33011
3.43863
3.56923
3.69227
3.7168
3.4376
2.43753
0.180745
-3.8718
-7.46034
-7.63439
-5.40994
-2.99327
-1.57873
-1.02825
-0.774509
-0.575862
-0.453009
-0.400899
-0.352933
-0.279693
-0.208553
-0.168052
-0.154183
-0.140899
-0.103379
-0.0583452
3.15518
3.16806
3.19872
3.24396
3.29499
3.33331
3.31721
3.15612
2.68619
1.63828
-0.232792
-3.0295
-5.54954
-6.05926
-4.76675
-3.05741
-1.86844
-1.27209
-0.946775
-0.705308
-0.540404
-0.447713
-0.377671
-0.299407
-0.225499
-0.175964
-0.149186
-0.123978
-0.0793282
-0.0311955
3.13251
3.13978
3.15554
3.17361
3.18039
3.15069
3.03793
2.75955
2.18969
1.15966
-0.437949
-2.53056
-4.3949
-4.98406
-4.24966
-3.02988
-2.04026
-1.44497
-1.08309
-0.81878
-0.628955
-0.508414
-0.422638
-0.3422
-0.267241
-0.209847
-0.170396
-0.135858
-0.087687
-0.0394571
3.11612
3.11945
3.12478
3.12414
3.10116
3.02719
2.85444
2.50805
1.88887
0.888014
-0.532333
-2.24047
-3.73578
-4.33267
-3.90715
-2.98378
-2.12919
-1.54743
-1.16747
-0.888003
-0.67999
-0.538502
-0.438868
-0.353254
-0.274488
-0.209838
-0.161671
-0.122079
-0.075169
-0.0311444
3.10748
3.10878
3.10871
3.09846
3.06045
2.96458
2.76309
2.38581
1.74691
0.764787
-0.56811
-2.10452
-3.4351
-4.02776
-3.73661
-2.95176
-2.16545
-1.59483
-1.20763
-0.920918
-0.70507
-0.555182
-0.450365
-0.363407
-0.284095
-0.217727
-0.167655
-0.128172
-0.0827816
-0.0392717
2.99889
2.99296
2.97494
2.93497
2.85517
2.70569
2.44037
1.99489
1.29557
0.279705
-1.03884
-2.49734
-3.71031
-4.20644
-3.87079
-3.0784
-2.28763
-1.69533
-1.27748
-0.961033
-0.713062
-0.530049
-0.403712
-0.315622
-0.249908
-0.199245
-0.159046
-0.121772
-0.0812091
-0.025921
3.00877
3.00468
2.99161
2.96033
2.89383
2.76309
2.52125
2.09911
1.41043
0.369403
-1.03289
-2.64006
-3.98705
-4.4799
-4.0199
-3.10361
-2.25398
-1.65164
-1.23902
-0.926884
-0.682185
-0.504093
-0.383667
-0.300709
-0.239222
-0.19243
-0.155638
-0.120231
-0.0796122
-0.023086
3.02752
3.02708
3.02359
3.0093
2.96915
2.87633
2.68342
2.3126
1.65271
0.567252
-1.00718
-2.94283
-4.58659
-5.05567
-4.31482
-3.13912
-2.17559
-1.5597
-1.16137
-0.859122
-0.620618
-0.450587
-0.338944
-0.263473
-0.209948
-0.173607
-0.1491
-0.124598
-0.0907313
-0.0352177
3.05375
3.05853
3.06883
3.07923
3.07827
3.04364
2.92961
2.64761
2.04956
0.912292
-0.930546
-3.4468
-5.61144
-5.99048
-4.74448
-3.15519
-2.03209
-1.40857
-1.03911
-0.758718
-0.537413
-0.384535
-0.283987
-0.210157
-0.154749
-0.119879
-0.101909
-0.0864554
-0.0629505
-0.0192285
3.08526
3.09648
3.12384
3.16541
3.21536
3.25948
3.25897
3.11739
2.64094
1.47884
-0.740397
-4.24375
-7.24545
-7.35312
-5.262
-3.08811
-1.79037
-1.18229
-0.850607
-0.595623
-0.407927
-0.302483
-0.245079
-0.196076
-0.149988
-0.117261
-0.0989088
-0.0842307
-0.0644913
-0.0303224
3.11933
3.13769
3.18418
3.26133
3.37147
3.51355
3.66447
3.73155
3.4802
2.38013
-0.33306
-5.51752
-9.83704
-9.24819
-5.81043
-2.87274
-1.43142
-0.90384
-0.629336
-0.375389
-0.192859
-0.124916
-0.12014
-0.116142
-0.100677
-0.0822044
-0.0614594
-0.0350858
-0.00791239
0.0115718
3.15295
3.17851
3.24442
3.35859
3.5337
3.78775
4.12758
4.49021
4.62873
3.76355
0.424273
-7.56966
-13.9054
-11.664
-6.13754
-2.37717
-0.865815
-0.520454
-0.394258
-0.180494
-0.00209331
0.0459916
0.0107004
-0.0357677
-0.0741929
-0.0976234
-0.0956616
-0.0675543
-0.0271692
-0.0149053
3.18308
3.21512
3.29856
3.44695
3.68493
4.05374
4.60424
5.35292
6.11631
5.90322
1.80614
-11.0144
-20.3819
-14.9337
-6.03188
-1.56609
-0.0984277
0.00413883
-0.0910854
0.0178808
0.158197
0.197164
0.159668
0.101561
0.0315355
-0.0252468
-0.040057
-0.00111217
0.0603029
0.0718214
3.20695
3.24394
3.34085
3.51589
3.80437
4.27152
5.0186
6.18302
7.77295
9.02203
7.35252
-11.2692
-30.1054
-21.0301
-5.5587
-0.427327
0.93556
0.681382
0.27609
0.192345
0.212064
0.193249
0.15122
0.0995821
0.0116342
-0.0807217
-0.129435
-0.103472
-0.0380047
-0.00882319
3.22246
3.26225
3.36683
3.55661
3.87245
4.39553
5.26644
6.71912
9.00043
11.7816
13.9581
-16.0924
-44.9919
-26.5535
-5.47273
0.720643
2.08227
1.4953
0.809162
0.526856
0.382331
0.264956
0.194279
0.139961
0.0438198
-0.0714877
-0.142487
-0.124093
-0.0619145
0.0051525
3.22839
3.26864
3.3744
3.56635
3.88583
4.41308
5.29024
6.7549
9.06099
11.8957
15.8891
-16.2622
-49.4584
-28.3818
-5.27429
0.943893
2.12496
1.48817
0.861921
0.615081
0.471129
0.358024
0.300128
0.263727
0.177031
0.0567156
-0.0290698
-0.0301152
0.0107649
0.0583343
3.2246
3.26281
3.3629
3.54361
3.84038
4.31972
5.08685
6.28563
7.94354
9.33
10.9757
-13.2019
-37.1986
-23.004
-5.1751
-0.228733
0.718319
0.377085
0.0981714
0.0606302
0.0336941
-0.00756791
-0.0129694
-0.00588105
-0.0429844
-0.113467
-0.156969
-0.133727
-0.0670293
-0.00845858
3.21195
3.24585
3.33399
3.49064
3.74114
4.12947
4.71127
5.51124
6.36708
6.32205
2.5237
-9.97465
-19.4297
-14.1478
-5.57952
-1.50185
-0.301753
-0.124611
-0.0429774
0.0811164
0.118901
0.0927842
0.0786418
0.0768329
0.0517096
0.00431851
-0.0248506
-0.0081133
0.038345
0.0546334
3.19228
3.2203
3.29232
3.41724
3.60914
3.88845
4.26671
4.68915
4.92558
4.21234
1.09463
-6.6811
-13.0259
-10.9452
-5.79917
-2.32702
-0.906951
-0.493713
-0.316342
-0.189051
-0.15819
-0.188594
-0.202181
-0.185701
-0.167922
-0.163016
-0.15419
-0.125375
-0.074784
-0.0357471
3.16807
3.18941
3.24327
3.33331
3.46318
3.63405
3.82705
3.95597
3.79668
2.8234
0.271957
-4.76642
-9.07255
-8.62164
-5.46335
-2.70542
-1.33645
-0.833498
-0.594009
-0.423888
-0.335317
-0.305452
-0.270274
-0.208371
-0.145046
-0.103737
-0.0800105
-0.0563663
-0.0202067
0.0043368
3.14217
3.15676
3.19248
3.24848
3.32017
3.39523
3.43812
3.35686
2.96288
1.90534
-0.193117
-3.59557
-6.58554
-6.80019
-4.90778
-2.88636
-1.68662
-1.1411
-0.846981
-0.633713
-0.496212
-0.421204
-0.357908
-0.280797
-0.207108
-0.159002
-0.134866
-0.115334
-0.0793348
-0.0404941
3.1174
3.12585
3.1452
3.17113
3.19323
3.19061
3.11992
2.89526
2.37054
1.32023
-0.430251
-2.87575
-5.03484
-5.4951
-4.39598
-2.93842
-1.90929
-1.34509
-1.00682
-0.757794
-0.582737
-0.472407
-0.388125
-0.304033
-0.227354
-0.173455
-0.141019
-0.113228
-0.0707931
-0.0273595
3.09635
3.09978
3.10582
3.10776
3.09145
3.03108
2.88082
2.56424
1.97028
0.958929
-0.542325
-2.42642
-4.06841
-4.60134
-3.97586
-2.91402
-2.03753
-1.48136
-1.12135
-0.854774
-0.659932
-0.52874
-0.432563
-0.346618
-0.269361
-0.209665
-0.166995
-0.130221
-0.0822449
-0.0357993
3.08112
3.081
3.07771
3.06307
3.02081
2.92262
2.72266
2.35234
1.72445
0.749088
-0.59161
-2.15799
-3.50559
-4.05278
-3.68986
-2.87484
-2.10715
-1.56497
-1.19429
-0.916905
-0.708223
-0.561178
-0.454122
-0.363521
-0.282391
-0.215797
-0.164689
-0.122069
-0.0732814
-0.029369
3.07309
3.07115
3.06301
3.03984
2.98443
2.86748
2.64355
2.24855
1.60735
0.65292
-0.609475
-2.03211
-3.2471
-3.7933
-3.54596
-2.84818
-2.1365
-1.60406
-1.22901
-0.946284
-0.731117
-0.577146
-0.465685
-0.373593
-0.291431
-0.22274
-0.169433
-0.126429
-0.0787696
-0.0358863
2.96045
2.95113
2.92462
2.87122
2.77387
2.60402
2.31887
1.8612
1.16894
0.195312
-1.03419
-2.36182
-3.45154
-3.91016
-3.64038
-2.95577
-2.25088
-1.70297
-1.3015
-0.991972
-0.748264
-0.565314
-0.434516
-0.34016
-0.268358
-0.211964
-0.166201
-0.124544
-0.0813789
-0.0262877
2.96962
2.96191
2.93974
2.89389
2.80787
2.65362
2.38738
1.94736
1.26081
0.262677
-1.038
-2.48374
-3.67752
-4.13372
-3.76463
-2.97937
-2.22595
-1.66828
-1.26963
-0.963476
-0.722685
-0.543362
-0.416728
-0.326313
-0.258271
-0.205724
-0.1636
-0.124317
-0.0817791
-0.0255599
2.98701
2.9825
2.96874
2.93759
2.87396
2.75113
2.52404
2.12268
1.45282
0.409629
-1.03675
-2.7387
-4.15864
-4.59849
-4.00916
-3.01566
-2.16822
-1.59447
-1.20386
-0.906703
-0.673282
-0.501285
-0.381059
-0.295343
-0.232159
-0.186775
-0.153967
-0.123918
-0.0879171
-0.0338703
3.01132
3.01141
3.00969
2.99986
2.96936
2.8944
2.72957
2.3942
1.76225
0.660636
-1.01416
-3.15774
-4.96562
-5.34202
-4.36186
-3.04253
-2.06494
-1.47442
-1.09889
-0.819549
-0.604127
-0.449973
-0.342008
-0.259622
-0.194753
-0.148757
-0.119127
-0.0951268
-0.0668665
-0.0218214
3.04051
3.04625
3.05941
3.07636
3.08861
3.07784
3.00178
2.76888
2.21253
1.05745
-0.931587
-3.78505
-6.20696
-6.4082
-4.78406
-3.01009
-1.8889
-1.29752
-0.944551
-0.684285
-0.493895
-0.37533
-0.302451
-0.243109
-0.188814
-0.146296
-0.117442
-0.0945271
-0.0689165
-0.0298819
3.07208
3.08407
3.11383
3.1612
3.2236
3.29165
3.33173
3.24808
2.83042
1.66284
-0.729709
-4.704
-8.05157
-7.84641
-5.23884
-2.87955
-1.61467
-1.0668
-0.769086
-0.526937
-0.343234
-0.245311
-0.204438
-0.175828
-0.145062
-0.116242
-0.0906095
-0.0629029
-0.0329833
-0.00153825
3.10325
3.12153
3.16811
3.24693
3.36297
3.51985
3.70179
3.8219
3.63829
2.55094
-0.342845
-6.08688
-10.7469
-9.5976
-5.56208
-2.5879
-1.20784
-0.751921
-0.576896
-0.396121
-0.229037
-0.139787
-0.114104
-0.109563
-0.110714
-0.113336
-0.108402
-0.0872546
-0.0526588
-0.0226844
3.13121
3.15512
3.21687
3.3248
3.49212
3.73856
4.0753
4.44919
4.62583
3.8009
0.374097
-8.08939
-14.7312
-11.7367
-5.5675
-1.98146
-0.623085
-0.345156
-0.351304
-0.276053
-0.152674
-0.0719998
-0.0363763
-0.0259623
-0.0383588
-0.063857
-0.0787137
-0.0607289
-0.0189088
0.0136634
3.15344
3.18163
3.25499
3.38553
3.59455
3.917
4.39407
5.03071
5.6544
5.39886