/*--------------------------------*- C++ -*----------------------------------*\
| =========                 |                                                 |
| \\      /  F ield         | OpenFOAM: The Open Source CFD Toolbox           |
|  \\    /   O peration     | Version:  2512                                  |
|   \\  /    A nd           | Website:  www.openfoam.com                      |
|    \\/     M anipulation  |                                                 |
\*---------------------------------------------------------------------------*/
FoamFile
{
    version     2.0;
    format      ascii;
    arch        "LSB;label=32;scalar=64";
    class       surfaceScalarField;
    location    "280";
    object      phi;
}
// * * * * * * * * * * * * * * * * * * * * * * * * * * * * * * * * * * * * * //

dimensions      [0 3 -1 0 0 0 0];

oriented        oriented;

internalField   nonuniform List<scalar> 
260615
(
1.59993
-5.93102e-05
0.000125349
1.59987
-0.000195451
0.000256594
1.59984
-0.00038141
0.000414012
1.59989
-0.00066542
0.000612553
1.60013
-0.00111295
0.000863886
1.60073
-0.0017604
0.00115792
1.60151
-0.00226158
0.00147325
1.60472
-0.00507535
0.00186225
1.60846
-0.00634375
0.00259096
1.6138
-0.00839458
0.00305502
1.62034
-0.00983946
0.00329733
1.61868
-0.00139792
0.00306383
1.62971
-0.0134512
0.00242613
1.62928
-0.000893935
0.00132032
1.62632
0.0027592
0.000224363
1.62258
0.00430185
-0.000539512
1.61836
0.00488892
-0.000652089
1.61631
0.00283196
-0.000763425
1.61438
0.00265183
-0.000702054
1.6129
0.00203361
-0.000536346
1.61186
0.00137884
-0.000319935
1.61119
0.000785914
-0.00010383
1.61077
0.000304968
0.000118112
1.61052
-7.86388e-05
0.000332316
1.61039
-0.000397408
0.000527103
1.61035
-0.000662829
0.000699545
1.61039
-0.000873832
0.000837603
1.61045
-0.00102866
0.000959386
1.61052
-0.00114425
0.00106679
-0.0012107
0.0011717
1.59992
-0.00011322
0.000128818
1.59984
-0.000374717
0.000262871
1.59976
-0.000733372
0.000424537
1.59975
-0.00128455
0.000630669
1.5999
-0.0021611
0.000895987
1.60041
-0.00349732
0.0012181
1.60167
-0.0051062
0.00158016
1.60408
-0.00949548
0.00200196
1.60784
-0.012971
0.00286391
1.61348
-0.0174986
0.00345697
1.6208
-0.0209806
0.00382442
1.61993
-0.0041847
0.00365977
1.63118
-0.027561
0.0028683
1.63038
-0.00171595
0.00162662
1.62687
0.00596784
0.000332978
1.62268
0.00907026
-0.000555459
1.61892
0.00933167
-0.000660894
1.61617
0.00639205
-0.00078984
1.61417
0.00537718
-0.000708798
1.61271
0.00404723
-0.000532758
1.61171
0.00270218
-0.000306137
1.61107
0.00150384
-7.13964e-05
1.61068
0.000542725
0.000160494
1.61045
-0.000228251
0.000387303
1.61033
-0.000877256
0.000600934
1.6103
-0.00142248
0.000786086
1.61033
-0.0018611
0.000951181
1.61039
-0.00218628
0.00109633
1.61047
-0.00245502
0.00122415
-0.00272783
0.00137134
1.59991
-0.000157806
0.000134149
1.59978
-0.000524096
0.000274027
1.59964
-0.00102976
0.000441742
1.5995
-0.00181465
0.000664072
1.59945
-0.00308108
0.000962078
1.59968
-0.00507618
0.00134962
1.60048
-0.00776458
0.00184445
1.60271
-0.0140182
0.00229032
1.60642
-0.0201494
0.00345784
1.61267
-0.028091
0.00434091
1.62173
-0.0350397
0.00499461
1.62256
-0.00999574
0.00498424
1.63428
-0.0431346
0.00385241
1.63267
-0.00240687
0.00232323
1.62793
0.0101735
0.000567102
1.62277
0.0148595
-0.000601415
1.61845
0.0143227
-0.000647384
1.61568
0.010012
-0.0008246
1.61366
0.00806423
-0.000633498
1.61223
0.00589563
-0.000402345
1.61132
0.00375722
-0.000123379
1.61077
0.00191292
0.000153709
1.61044
0.000463257
0.000413905
1.61026
-0.0007059
0.000657622
1.6102
-0.00170168
0.000888946
1.61022
-0.00253876
0.00108861
1.6103
-0.00321107
0.00126991
1.61039
-0.00371039
0.00143087
1.61045
-0.00410088
0.00157262
-0.00447728
0.00175599
1.59989
-0.000188776
0.000137261
1.59971
-0.000629998
0.000288223
1.59945
-0.00124403
0.000468629
1.59913
-0.00220933
0.000711122
1.59879
-0.00379735
0.00105577
1.59856
-0.00638381
0.00153028
1.59875
-0.0101483
0.00218498
1.60039
-0.0184922
0.0028283
1.60385
-0.028053
0.00443108
1.61098
-0.0410838
0.00585301
1.62326
-0.0543557
0.00702026
1.62733
-0.0210705
0.00698014
1.63937
-0.0612125
0.00603466
1.63643
-0.00318102
0.0037274
1.62952
0.016003
0.00110415
1.62274
0.0222779
-0.000621902
1.6178
0.0199674
-0.000689518
1.61487
0.0137639
-0.000807373
1.61279
0.010652
-0.000480574
1.61143
0.00736705
-9.12985e-05
1.61062
0.00419328
0.000380766
1.61016
0.001557
0.000824621
1.60988
-0.000485995
0.00122366
1.60975
-0.00216166
0.00158151
1.60975
-0.00361051
0.00190693
1.60983
-0.00482691
0.00219934
1.60996
-0.00581016
0.00245804
1.61008
-0.0065113
0.00267655
1.61022
-0.00712559
0.00287757
-0.00764708
0.00311992
1.59987
-0.000202798
0.000143918
1.59962
-0.000681366
0.000298557
1.59923
-0.00135319
0.000500593
1.59867
-0.00242448
0.000772274
1.59792
-0.00422738
0.00117045
1.59704
-0.00727466
0.00176649
1.59625
-0.0119981
0.00263188
1.59679
-0.0226644
0.00362054
1.59942
-0.0365919
0.00589178
1.60763
-0.0575242
0.00820228
1.62581
-0.0827954
0.0102316
1.65542
-0.061554
0.0108355
1.64695
-0.0627022
0.00992636
1.64219
-0.00492705
0.0065032
1.63161
0.0243695
0.00221138
1.62245
0.0318696
-0.00044469
1.61684
0.0260683
-0.000507766
1.61377
0.0174242
-0.000602099
1.6117
0.0130646
-0.000326443
1.61054
0.00847456
5.95075e-05
1.60997
0.00414323
0.000635858
1.60965
0.000666347
0.00120371
1.60947
-0.00203144
0.00172506
1.6094
-0.00431609
0.00220838
1.60946
-0.00634118
0.00266299
1.60959
-0.00806517
0.00308688
1.60981
-0.0095159
0.0034818
1.61001
-0.0105453
0.00381485
1.61036
-0.0116114
0.00413016
-0.0121922
0.00456927
1.59984
-0.000198004
0.000150858
1.59952
-0.000671453
0.000313241
1.59897
-0.0013406
0.000532128
1.59813
-0.00242241
0.000839755
1.59688
-0.00428677
0.0013014
1.59513
-0.00756888
0.00203633
1.5931
-0.013163
0.00318216
1.59146
-0.0257433
0.00470393
1.59195
-0.0450358
0.00793252
1.60113
-0.0783355
0.0116102
1.62987
-0.126833
0.0152179
1.65388
-0.103684
0.0180373
1.65773
-0.084604
0.0179731
1.65047
-0.0106593
0.0129483
1.63322
0.036566
0.0050564
1.62083
0.043793
0.000412119
1.61466
0.0314453
0.000719908
1.61113
0.0194461
0.0014428
1.60918
0.0126548
0.00231814
1.60842
0.00608293
0.00313646
1.60818
0.000391425
0.00398838
1.60808
-0.00391486
0.00466596
1.60812
-0.00729638
0.00521585
1.6084
-0.0103122
0.00569961
1.60897
-0.0131234
0.00619364
1.60984
-0.0156328
0.00668306
1.61101
-0.0179009
0.00720642
1.61227
-0.0195123
0.00770156
1.61438
-0.0219478
0.00822422
-0.0221037
0.00890506
1.59982
-0.000174201
0.000154659
1.59942
-0.000598833
0.000330511
1.59871
-0.00120067
0.000563787
1.59756
-0.00218103
0.000904102
1.59574
-0.00390823
0.00143973
1.59295
-0.00710556
0.00231873
1.58915
-0.0131746
0.00380399
1.58174
-0.0245889
0.00623553
1.57967
-0.0533811
0.0103902
1.58888
-0.103822
0.0162284
1.63432
-0.0386205
0.0224486
-0.0485264
-0.0480061
-0.0596541
1.67296
-0.0423747
0.0322064
-0.0378593
-0.0478114
-0.0465776
1.67422
-0.02548
0.0370303
-0.0259379
-0.0333615
-0.038141
1.66362
-0.0099674
0.0298593
0.00306137
-0.0174351
-0.00559469
1.63414
0.05
0.0160277
1.61701
0.0546947
0.00618162
1.61199
0.0331184
0.00326939
1.60753
0.0207997
0.00303727
1.60567
0.0105799
0.00388163
1.60561
0.000712319
0.00540233
1.60644
-0.00770265
0.0072432
1.60774
-0.0142526
0.00903033
1.60935
-0.0196954
0.0107816
1.61105
-0.0245843
0.0125506
1.6125
-0.0289413
0.0143534
1.61336
-0.0326458
0.0161405
1.61311
-0.0356533
0.0179911
1.61188
-0.0379271
0.0196446
1.60862
-0.0404526
0.0217523
-0.0400706
0.0236542
1.5998
-0.000133323
0.000157976
1.59932
-0.000469127
0.00034597
1.59847
-0.000942241
0.000591667
1.59703
-0.00170868
0.000963191
1.59463
-0.00307507
0.00156671
1.59059
-0.00565694
0.00258428
1.58397
-0.0109939
0.00442837
1.57371
-0.0222225
0.00787975
1.56016
-0.0528584
0.0129971
0.392668
-0.12232
0.0216495
0.389068
0.389455
0.385763
0.397413
-0.0446661
0.00125467
-0.408026
0.422877
-0.0614757
0.00419749
-0.427765
0.430587
-0.0380261
0.00971881
-0.427743
0.42818
-0.0190645
0.00868558
1.63922
0.0511756
0.0557898
-0.422377
-0.425074
-0.421336
-0.427357
1.61952
0.0274137
0.0469578
1.6076
-0.000264523
0.0452485
1.60055
-0.0170625
0.044842
1.59585
-0.0295599
0.0447731
1.59056
-0.0397181
0.0456714
1.5829
-0.0468668
0.046802
1.57259
-0.0513578
0.0473961
1.55961
-0.0543354
0.0476059
1.54383
-0.0564984
0.0476727
1.52525
-0.0579971
0.0476262
1.50416
-0.0590222
0.0474536
1.48042
-0.0592942
0.0473726
1.45595
-0.0603983
0.046927
1.42538
-0.0573915
0.0474961
-0.0624207
0.046682
1.59979
-7.93623e-05
0.00016045
1.59925
-0.000295271
0.000358399
1.59828
-0.000589994
0.000612567
1.59661
-0.00105111
0.00101082
1.59372
-0.00185788
0.00166843
1.58862
-0.00336739
0.00280485
1.57923
-0.00658018
0.00496743
1.5617
-0.0138855
0.0091849
1.52766
-0.0342829
0.0154427
0.378358
-0.103648
0.0222974
0.372525
0.372029
0.363711
0.385077
-0.0567555
-0.000289329
0.0502444
0.425084
-0.408604
0.0809031
-0.0268593
-0.0245574
-0.03039
-0.0225083
0.00352832
0.0002721
0.00358359
-0.000626043
-0.429254
0.433364
0.0610243
-0.0281099
-0.0258317
-0.0316146
-0.0206114
0.0127551
0.00785042
0.00873257
0.0116011
-0.441489
0.450749
0.0419419
-0.0191368
-0.0308025
-0.0249554
-0.0154722
0.00795734
0.0101381
0.0126718
0.00835528
1.36722
-0.0105305
0.117381
-0.418444
-0.335222
-0.418709
-0.250529
1.3382
-0.0224465
0.0789023
1.31223
-0.0430161
0.0686962
1.28982
-0.053616
0.058933
1.26896
-0.0596708
0.050944
1.24706
-0.063524
0.045687
1.22381
-0.0654619
0.0418282
1.20033
-0.0662394
0.0383456
1.17738
-0.0666731
0.0352799
1.15529
-0.0670438
0.032624
1.13445
-0.0674229
0.0302508
1.1153
-0.0679799
0.0280947
1.09834
-0.068681
0.0263265
1.08407
-0.070424
0.0242805
1.07233
-0.0686586
0.0229767
-0.0751182
0.0198114
1.59976
-1.80055e-05
0.000176764
1.59918
-9.61862e-05
0.000378586
1.59813
-0.000183785
0.000642069
1.59631
-0.000285669
0.00105284
1.59313
-0.000415377
0.00173896
1.5874
-0.000592179
0.00294926
1.57634
-0.000846125
0.00531422
1.55359
-0.00124746
0.0101069
1.50428
-0.00194433
0.0169527
0.352681
-0.00351457
0.0158709
0.348523
0.343331
0.343676
-0.0325735
-0.014769
0.0513379
0.0844105
0.0898652
0.0857138
0.0886217
0.0287557
-0.100375
0.104995
-0.0253856
-0.00272067
-0.00211183
-0.00186562
-0.00132509
-0.10534
0.051397
0.103071
-0.0135269
-0.0175894
-0.0191212
-0.0151391
0.00552415
0.00274502
0.00449114
0.00330135
-0.060662
0.0199835
-0.0123788
-0.00197374
0.0549241
0.111764
-0.0249072
-0.368867
0.0105868
0.0544872
0.113236
0.0931229
0.4211
0.0283271
-0.360176
0.604931
0.0414222
-0.268346
0.722975
0.0382922
-0.21
0.802457
0.0294406
-0.168631
0.85621
0.0195135
-0.136825
0.89419
0.00938292
-0.11286
0.923637
-0.000700862
-0.0950218
0.948484
-0.01012
-0.0814373
0.970871
-0.0185449
-0.0709225
0.992229
-0.0259417
-0.0628747
1.01335
-0.0322757
-0.0568626
1.03511
-0.0378453
-0.0526329
1.05639
-0.0421946
-0.0495483
1.08254
-0.0459548
-0.0489005
-0.050885
-0.0472248
1.59975
4.3669e-05
0.000191858
1.59915
0.000105148
0.000393958
1.59808
0.000226749
0.000654848
1.59624
0.000485464
0.00107027
1.59302
0.00103805
0.00175762
1.58733
0.0022171
0.00288185
1.57622
0.0049446
0.00531402
1.55335
0.0114949
0.0101204
1.50375
0.0306411
0.0169943
0.348205
0.097523
0.0158941
0.352358
0.343282
0.342929
0.00131293
0.029984
-0.0207351
0.0821039
0.086666
0.0818908
0.0869092
0.000760185
-0.097425
0.0903098
0.00892127
-0.000353863
-0.000911388
-0.000348431
-0.00096688
0.00981236
0.0169969
-0.0092736
-0.00721375
-0.00949993
0.0798263
0.085645
-0.388837
0.0413048
2.04758e-05
0.0631587
0.0941164
0.376136
0.0828283
-0.35093
0.576353
0.110494
-0.269408
0.72271
0.120821
-0.228958
0.832586
0.122785
-0.20326
0.915215
0.119182
-0.18233
0.979219
0.110625
-0.165282
1.03146
0.0984512
-0.151429
1.07572
0.0852476
-0.139667
1.11415
0.0723559
-0.129368
1.14815
0.0602097
-0.120182
1.17868
0.0490924
-0.111933
1.20638
0.0388678
-0.104447
1.23152
0.0299159
-0.0972898
1.25653
0.0216323
-0.0926451
0.0100436
-0.0814707
1.59975
9.91695e-05
0.000190773
1.59921
0.000287371
0.000356865
1.59823
0.000595437
0.000615658
1.5965
0.00117032
0.00104079
1.59353
0.00230167
0.00169963
1.58841
0.00457887
0.00275362
1.57886
0.00949432
0.00500028
1.56098
0.0201112
0.00925815
1.52617
0.0498566
0.015586
0.371799
0.118052
0.0224642
0.377574
0.36281
0.370979
-0.0492168
0.0549891
-0.0039878
0.0931944
0.0903426
0.0918659
0.0945769
-0.0275791
-0.100677
0.106484
-0.00451462
0.0262969
-0.0098085
-0.104475
0.109192
0.00772365
0.0336764
-0.00811641
-0.013633
-0.0145547
-0.0194307
-0.104813
0.00263957
0.10087
0.0208592
1.01993
0.00373777
0.163041
-0.274092
-0.388588
-0.103435
-0.334882
0.949909
0.0385635
0.11422
0.905088
0.0703759
0.0848442
0.894299
0.0811692
0.0503767
0.914241
0.0843276
0.0184747
0.956413
0.0846351
-0.00766009
1.00917
0.0830324
-0.0251973
1.0651
0.0794698
-0.0369952
1.11969
0.0745898
-0.0439698
1.17158
0.0683669
-0.0479322
1.21969
0.061563
-0.049496
1.26394
0.0541575
-0.0493433
1.30436
0.0463502
-0.0479403
1.34107
0.0385199
-0.0453562
1.37762
0.0295997
-0.0445595
0.0205167
-0.0358351
1.59978
0.000142704
0.000176551
1.5993
0.000430077
0.000330762
1.59844
0.000879414
0.000579691
1.59694
0.00168516
0.000985731
1.59444
0.00320257
0.00159127
1.59027
0.00613402
0.00261941
1.5834
0.0118652
0.004493
1.57266
0.0228423
0.00800648
1.55813
0.0511623
0.0132238
0.388202
0.10122
0.0220571
0.391783
0.384617
0.388302
-0.0489899
0.39168
0.0437771
0.0017288
-0.0791
-0.406552
0.419641
0.0609408
0.00504198
-0.0644214
-0.422598
0.426223
0.0410821
0.0198369
-0.0445349
-0.429539
0.434465
0.0236153
0.0160984
1.65091
-0.0134282
0.0756424
-0.430353
-0.423766
-0.432023
-0.423205
1.62619
-0.0124408
0.0756964
1.60345
0.0124791
0.080588
1.5822
0.0213296
0.0810486
1.56471
0.0241397
0.0776549
1.55217
0.0247733
0.0723717
1.54472
0.0239382
0.0665142
1.54208
0.0218751
0.0602094
1.54334
0.0190409
0.0542611
1.54758
0.0158652
0.0482373
1.55358
0.012516
0.0430195
1.56074
0.00889927
0.0380762
1.56829
0.00512509
0.0336504
1.57589
0.00130951
0.0295826
1.58263
-0.00293148
0.0257585
-0.00655859
0.0219521
1.59981
0.00016986
0.000158481
1.59939
0.000519869
0.00033442
1.59865
0.00105301
0.000562543
1.59743
0.001981
0.000924203
1.5955
0.00366532
0.00146439
1.59254
0.00673064
0.00236117
1.58845
0.0120726
0.00387966
1.58055
0.0243645
0.00637813
1.57759
0.0434725
0.0106579
1.58527
0.0768383
0.016709
1.62779
0.125879
0.0233142
-0.0381142
-0.047664
-0.0472887
-0.0586241
1.66399
0.106587
0.0337788
-0.0426374
-0.0384399
-0.0480436
-0.047416
1.66542
0.0953762
0.0415278
-0.0281179
-0.0301259
-0.0368188
-0.0431835
1.65819
0.0312881
0.0364311
-0.0151178
-0.00338251
-0.0251893
-0.0167314
1.6308
-0.0118051
0.0257972
1.61698
-0.0186276
0.0200031
1.61615
-0.00673982
0.0200305
1.6149
0.00280026
0.0197559
1.61459
0.00616504
0.0182717
1.61458
0.00857583
0.0161864
1.61448
0.0100375
0.0139785
1.61428
0.0103643
0.0116936
1.61405
0.00987726
0.00937378
1.6139
0.0089151
0.00708327
1.61373
0.00759773
0.00507573
1.61371
0.00595223
0.00295354
1.61369
0.00399725
0.00113757
1.61382
0.00178019
-0.000623747
1.6136
-0.000461741
-0.00227874
-0.00321019
-0.00381448
1.59984
0.000178632
0.000151805
1.59949
0.000550416
0.00031797
1.5989
0.00110558
0.000538722
1.59797
0.00204737
0.000859176
1.5966
0.003703
0.00132916
1.59467
0.00658189
0.002084
1.59235
0.0111258
0.00326655
1.59023
0.021621
0.0048581
1.59
0.035506
0.00820918
1.59806
0.0566744
0.0121088
1.62505
0.082818
0.0160813
1.6478
0.0642716
0.0195801
1.65158
0.0705531
0.0210755
1.64647
0.0189562
0.0174718
1.63165
-0.00748522
0.0105278
1.62138
-0.014863
0.00651731
1.61708
-0.00977949
0.00733673
1.61486
-0.00286323
0.0078802
1.61357
-0.000712904
0.00816125
1.61295
0.00109483
0.0080972
1.61267
0.00234473
0.0079555
1.6126
0.00280761
0.00762252
1.61265
0.0026655
0.0071484
1.61282
0.0021948
0.00654651
1.61302
0.00150002
0.00589688
1.61326
0.000593317
0.0051125
1.61343
-0.000523876
0.00434048
1.61359
-0.00180286
0.00340843
1.61372
-0.00316051
0.00254712
-0.00499326
0.00140534
1.59986
0.000168987
0.000145029
1.59959
0.000522343
0.000303996
1.59914
0.00104126
0.000511407
1.59849
0.00190269
0.000790942
1.59762
0.00337573
0.00120181
1.59654
0.00583692
0.00181911
1.59547
0.00947917
0.00272132
1.59559
0.0177284
0.00377538
1.59763
0.0273178
0.00615716
1.60501
0.0406335
0.008661
1.62212
0.0547209
0.010996
1.65091
0.023353
0.0121397
1.64262
0.0666762
0.0121757
1.63937
0.0125416
0.00968711
1.63059
-0.0046421
0.00595611
1.62295
-0.0107369
0.00352585
1.61858
-0.00897683
0.00357829
1.61647
-0.00406672
0.00331954
1.61508
-0.00252547
0.00320789
1.6143
-0.00107386
0.00294684
1.61389
9.84596e-05
0.00265466
1.6137
0.000783427
0.00221841
1.61363
0.00103739
0.00169581
1.61365
0.00103955
0.00113255
1.61372
0.000869023
0.000559157
1.61381
0.000523022
-1.84816e-05
1.61388
-4.23077e-06
-0.000588021
1.61393
-0.000691355
-0.00117085
1.61378
-0.00138471
-0.00165082
-0.00229373
-0.00225003
1.59989
0.00014272
0.000138474
1.59967
0.000441724
0.00029418
1.59936
0.00087515
0.000480519
1.59895
0.00158227
0.000731521
1.59847
0.00276469
0.00108948
1.59805
0.00467206
0.00158549
1.59797
0.00728159
0.00227586
1.59924
0.0134876
0.0029791
1.60221
0.0196733
0.00467813
1.60872
0.0278662
0.00626094
1.62031
0.0354504
0.00768085
1.62395
0.0116977
0.00802276
1.63614
0.0468196
0.00767743
1.63423
0.00845436
0.00600467
1.62862
-0.00278519
0.00376103
1.62303
-0.00728261
0.0021501
1.61911
-0.0071212
0.00207395
1.617
-0.00372007
0.00177304
1.61554
-0.00286037
0.00179378
1.6146
-0.00187355
0.00175017
1.61401
-0.000993149
0.00168591
1.61365
-0.000395775
0.00154266
1.61344
-0.000102723
0.00135879
1.61333
-9.55962e-06
0.00115972
1.6133
-4.97823e-05
0.000954772
1.61331
-0.00021937
0.000736308
1.61331
-0.000524054
0.00051447
1.6133
-0.000944169
0.000257322
1.61327
-0.00140273
3.1318e-05
-0.00214812
-0.000291644
1.5999
0.000103045
0.000135436
1.59975
0.000319004
0.000280393
1.59954
0.000629135
0.000454414
1.5993
0.00112871
0.000685634
1.59912
0.00195058
0.000997259
1.59916
0.00323158
0.00140623
1.59971
0.00479423
0.00193534
1.6016
0.00916249
0.00243649
1.6049
0.0126883
0.00368817
1.61067
0.0173966
0.00470394
1.61927
0.0212996
0.0055592
1.61984
0.00529722
0.00583246
1.63173
0.0298276
0.00509928
1.63088
0.0053254
0.00398468
1.62715
-0.00154319
0.00249569
1.62299
-0.00450572
0.00140054
1.61956
-0.00499537
0.0013093
1.6175
-0.0026085
0.000953939
1.61602
-0.00225679
0.000890473
1.61496
-0.00162337
0.000809306
1.61426
-0.00101434
0.000732589
1.61381
-0.000567737
0.00062847
1.61353
-0.000322147
0.000503791
1.61337
-0.000216322
0.000369529
1.6133
-0.000198996
0.00023112
1.61328
-0.00026164
6.70956e-05
1.61326
-0.000408709
-0.00010368
1.61324
-0.00063187
-0.000296666
1.61319
-0.00088175
-0.000476788
-0.00127347
-0.000744428
1.59992
5.40221e-05
0.000130096
1.5998
0.000167179
0.00026948
1.59966
0.000328813
0.000437681
1.59955
0.000587192
0.000652938
1.59956
0.00100795
0.000932057
1.59989
0.00162901
0.00127548
1.60091
0.0021094
0.00167085
1.60301
0.00491588
0.00214438
1.60641
0.00621393
0.0030827
1.61166
0.00835827
0.0037898
1.61863
0.0100115
0.00432303
1.6176
0.0019468
0.00438135
1.62902
0.0145301
0.00387741
1.62884
0.00258197
0.00292799
1.62617
-0.000690112
0.00182973
1.62284
-0.00216422
0.00100139
1.61986
-0.00286573
0.000858299
1.61773
-0.00107575
0.000594044
1.61622
-0.00122149
0.000488619
1.6151
-0.00094573
0.00044398
1.61433
-0.000653891
0.0004226
1.61382
-0.000438244
0.000384044
1.6135
-0.00032086
0.000327622
1.6133
-0.000271785
0.000262361
1.61318
-0.00026323
0.000188305
1.61312
-0.000289642
9.25558e-05
1.61308
-0.000355898
-1.65853e-05
1.61303
-0.000457186
-0.000130655
1.61297
-0.000581519
-0.000246266
-0.000767911
-0.0004086
1.59993
0.000126595
1.59983
0.000263306
1.59973
0.000427361
1.59968
0.000635123
1.59979
0.000900332
1.60021
0.00121562
1.60075
0.00156369
1.60367
0.00200288
1.60708
0.00280391
1.61207
0.00337361
1.61832
0.00376458
1.61654
0.00372425
1.62775
0.0033228
1.62788
0.00245031
1.62569
0.00150946
1.62275
0.000785422
1.61926
0.000620977
1.61782
0.000370537
1.61636
0.00024288
1.61523
0.000184116
1.61444
0.00014938
1.61391
9.06934e-05
1.61357
2.51176e-05
1.61334
-4.61521e-05
1.61321
-0.000124131
1.61313
-0.000207463
1.61308
-0.000310495
1.61303
-0.000408523
1.61296
-0.000511837
-0.000639513
1.60005
-5.86878e-05
0.000128156
1.60011
-0.000192779
0.000390391
1.6002
-0.000375039
0.000696704
1.60038
-0.000652508
0.00108191
1.60075
-0.00108841
0.00157383
1.60139
-0.00152906
0.0020465
1.60203
-0.00116826
0.00199956
1.60229
-0.00329221
0.00488213
1.60602
-0.00640902
0.00526765
1.61156
-0.00838192
0.00589386
1.61491
-0.0062995
0.00623943
1.61505
-0.00259521
0.00552602
1.62411
-0.011549
0.00491481
1.62679
-0.00390859
0.00254872
1.62362
0.0029914
0.000422826
1.61994
0.00438729
-0.00123319
1.61876
0.00298678
-0.00243815
1.6169
0.00159148
-0.000479653
1.61504
0.00227066
-0.0010912
1.61359
0.001855
-0.000916768
1.61257
0.00121739
-0.000503071
1.61187
0.000641848
-3.98722e-05
1.61141
0.000171652
0.000414114
1.61113
-0.000208029
0.000827511
1.61094
-0.000526295
0.00124365
1.61081
-0.000787229
0.0016169
1.61085
-0.000992435
0.00178311
1.61095
-0.00113706
0.00198755
1.61109
-0.00124456
0.00216797
-0.00128055
0.00237002
1.60005
-0.000113058
0.000130426
1.60009
-0.000370758
0.000398202
1.60014
-0.000722654
0.000713191
1.60027
-0.00126167
0.00111365
1.60055
-0.00211608
0.0016332
1.60143
-0.00336009
0.00217279
1.6039
-0.00434292
0.00227489
1.60424
-0.00690521
0.00526863
1.60756
-0.0125416
0.00567216
1.61267
-0.0166976
0.00665619
1.6154
-0.0123972
0.00719849
1.61678
-0.00650492
0.00618661
1.62558
-0.0236419
0.0061679
1.6293
-0.00907008
0.0030691
1.62635
0.00574082
0.000556969
1.6227
0.00869807
-0.00119527
1.62114
0.00652607
-0.00261756
1.61723
0.00537386
-0.000640109
1.615
0.00497197
-0.0011571
1.61356
0.00372947
-0.00094794
1.61257
0.00243403
-0.000515749
1.6119
0.00129078
-3.63611e-05
1.61144
0.000372203
0.000427877
1.61113
-0.000372493
0.000867766
1.61087
-0.00100069
0.00133139
1.61075
-0.00152963
0.00164459
1.61077
-0.00195271
0.00189153
1.61084
-0.00225949
0.00214204
1.61095
-0.00251188
0.00237152
-0.00271818
0.00266081
1.60004
-0.000157544
0.000134678
1.60004
-0.000519055
0.000413845
1.60003
-0.00101479
0.000745799
1.60003
-0.00178187
0.00117679
1.60013
-0.00301542
0.00175816
1.60054
-0.00492382
0.00249966
1.60203
-0.00713494
0.00313993
1.60266
-0.0107265
0.00547679
1.60605
-0.0191597
0.00667451
1.61173
-0.0263616
0.00832521
1.61732
-0.0224276
0.00943112
1.61969
-0.0121674
0.00828538
1.62959
-0.0379266
0.00823306
1.63131
-0.0125156
0.00406411
1.62721
0.00970332
0.000739531
1.62254
0.0141575
-0.00137204
1.62
0.0108826
-0.00243763
1.61663
0.00918677
-0.00124955
1.61458
0.00768454
-0.00126358
1.61317
0.00558966
-0.000836622
1.61225
0.00352451
-0.000280825
1.61166
0.00175895
0.000292887
1.61126
0.000372144
0.000822145
1.61097
-0.000747366
0.00132277
1.61074
-0.0016981
0.00180722
1.61072
-0.00249701
0.00207806
1.61079
-0.00313528
0.00237858
1.61089
-0.00360042
0.0026625
1.61099
-0.00396457
0.00291601
-0.00424043
0.00325492
1.60002
-0.000188569
0.000146711
1.59998
-0.000624
0.000429662
1.59986
-0.00122573
0.000791758
1.59969
-0.00216849
0.00126687
1.59951
-0.00371319
0.00193064
1.59947
-0.00621747
0.00286026
1.60005
-0.00956576
0.00403199
1.60038
-0.0144963
0.00625298
1.60358
-0.026421
0.00848162
1.6101
-0.0381721
0.0111377
1.61848
-0.036873
0.0130748
1.62556
-0.0234483
0.0111733
1.63415
-0.0531153
0.0126235
1.63482
-0.0155022
0.00605285
1.62866
0.01597
0.00101693
1.62245
0.0217292
-0.00197027
1.61908
0.0163303
-0.00274102
1.61592
0.0134128
-0.00185291
1.61386
0.0106692
-0.00137291
1.61251
0.00752334
-0.000653487
1.61169
0.00452549
0.000213801
1.61116
0.00203048
0.00108786
1.61076
7.53683e-05
0.00192176
1.61049
-0.00153593
0.00263302
1.61037
-0.00292573
0.00324365
1.61044
-0.0040906
0.00372212
1.61059
-0.00502523
0.00418543
1.61074
-0.00568531
0.00459669
1.61095
-0.00625788
0.00495897
-0.00663471
0.00540817
1.59998
-0.000202717
0.000175105
1.59988
-0.000673559
0.000439626
1.59965
-0.00133479
0.000842842
1.59925
-0.00237851
0.00137852
1.59868
-0.00412979
0.00214908
1.598
-0.00707268
0.00329876
1.59741
-0.0113547
0.00500055
1.59702
-0.0181292
0.00762989
1.59944
-0.0341666
0.0112106
1.60717
-0.0531575
0.015445
1.62256
-0.0616413
0.0195706
1.65527
-0.0627276
0.0173518
1.64294
-0.050012
0.0190985
1.64046
-0.0160136
0.00947317
1.6307
0.0262461
0.00169838
1.62229
0.0325811
-0.0029001
1.61793
0.0235242
-0.00335733
1.61489
0.0182036
-0.00235467
1.6129
0.0139168
-0.00157482
1.61176
0.00944521
-0.000706339
1.61117
0.00539869
0.0003516
1.61078
0.0022023
0.00142584
1.6104
-0.000296405
0.00246603
1.61021
-0.0024096
0.00324999
1.61022
-0.00428967
0.00400845
1.61036
-0.00589481
0.00473207
1.6106
-0.00721772
0.00542076
1.61085
-0.00813945
0.0060076
1.6112
-0.00903938
0.00654852
-0.00926238
0.00721332
1.59994
-0.000198183
0.000204174
1.59977
-0.000664133
0.00046377
1.5994
-0.00131834
0.000887576
1.59874
-0.00238034
0.00150282
1.59769
-0.00418442
0.00239912
1.59619
-0.00734643
0.00380378
1.59443
-0.0124737
0.00605389
1.5929
-0.0215513
0.00963957
1.59308
-0.0415221
0.0150953
1.6021
-0.0728005
0.0221926
1.64245
-0.117803
0.0309904
1.65835
-0.090087
0.0294619
1.66908
-0.074412
0.0316157
1.64946
-0.000733159
0.0172715
1.63322
0.0441302
0.003391
1.62226
0.0477525
-0.00382709
1.61654
0.0333558
-0.00343521
1.61312
0.0243295
-0.00128912
1.61122
0.017742
0.000375028
1.61036
0.0114311
0.00199303
1.60998
0.00601564
0.00374308
1.60971
0.00179154
0.00533522
1.60944
-0.00152878
0.0067074
1.60946
-0.00446394
0.00770765
1.60972
-0.00714066
0.00875826
1.6102
-0.00944931
0.00973713
1.61089
-0.0113811
0.010659
1.61162
-0.0126177
0.0114279
1.61292
-0.0143388
0.0122124
-0.0139201
0.0129415
1.5999
-0.000174771
0.000221034
1.59964
-0.000592796
0.000521154
1.59913
-0.00118151
0.000930215
1.59819
-0.00213461
0.00160361
1.5966
-0.00382311
0.00266249
1.5941
-0.00688823
0.00435012
1.59082
-0.012643
0.00724353
1.58626
-0.0229413
0.0121743
1.58165
-0.0468849
0.0203446
1.58676
-0.0942192
0.0325071
1.62963
-0.0414015
0.0491796
-0.0550299
-0.0378386
-0.0531701
1.66495
-0.0388819
0.0513108
-0.0373167
-0.0339958
-0.0343632
1.66648
-0.0213752
0.0535365
-0.0297077
-0.0161671
-0.0252649
1.65894
-0.00659866
0.0338864
0.00127707
0.00111278
0.00695329
1.6345
0.0779287
0.00671079
1.6213
0.071446
-0.00430556
1.6146
0.0468913
-0.00359112
1.61059
0.0326261
-0.00129066
1.60912
0.0224893
0.000568719
1.60879
0.0143606
0.00278234
1.60878
0.00811363
0.00513452
1.60876
0.0037404
0.0070804
1.60896
0.000329791
0.00869765
1.60956
-0.00277978
0.0102409
1.61038
-0.00567382
0.0120425
1.61122
-0.00816177
0.0139884
1.61179
-0.0100867
0.0161085
1.61194
-0.0112249
0.0180923
1.61175
-0.0130626
0.0206524
-0.0106316
0.022846
1.59987
-0.000134416
0.000236916
1.59951
-0.000465365
0.000581621
1.59884
-0.000928224
0.00100452
1.59766
-0.00167381
0.00167879
1.59551
-0.00299433
0.00288884
1.59183
-0.0054678
0.00483427
1.58569
-0.0105812
0.00849378
1.57663
-0.0209469
0.0149391
1.56287
-0.0469173
0.0267705
0.390836
-0.114637
0.0481206
0.386879
0.391474
0.3876
-0.0069192
0.394895
-0.0498788
0.0112974
-0.00991689
-0.406064
0.419539
-0.0576256
0.015167
-0.0188025
-0.423484
0.425087
-0.0267907
0.0226077
-0.0203952
-0.424317
0.424169
-0.0105485
0.0245011
1.63179
0.166674
0.015758
-0.418981
-0.421161
-0.419374
-0.420901
1.61591
0.129354
0.0050102
1.60643
0.0896402
0.0120233
1.60204
0.0637744
0.0181051
1.60091
0.0455112
0.0228864
1.60049
0.0319377
0.0285058
1.59954
0.0218473
0.0340027
1.59763
0.0144537
0.0385799
1.59419
0.00874908
0.0426055
1.5884
0.00411231
0.0465458
1.57951
0.000389467
0.0504303
1.5673
-0.00251582
0.0540014
1.55143
-0.00420491
0.0573508
1.53322
-0.00576172
0.0596621
1.50804
-0.00410321
0.063706
-0.00728771
0.0638822
1.59985
-8.10485e-05
0.000248032
1.59942
-0.000294591
0.000618066
1.59859
-0.000583411
0.00109375
1.59716
-0.00103264
0.00179767
1.59457
-0.00181341
0.00307898
1.58998
-0.00325822
0.00517794
1.58112
-0.00627892
0.00951937
1.56499
-0.01296
0.0173098
1.53261
-0.0326731
0.033565
0.373114
-0.105483
0.068417
0.363478
0.374551
0.366171
-0.0676862
0.0141908
-0.00518008
0.055067
0.0943969
0.0943216
0.0934281
0.0945217
-0.00148965
-0.0998575
0.0213551
0.105563
-0.0277292
0.00215653
-0.109054
-0.0129673
0.00910932
0.108327
-0.00858086
0.0131555
-0.10653
-0.0169501
0.00627775
-0.00946278
0.0189141
0.107756
1.53846
0.318581
-0.00150967
-0.418209
-0.326608
-0.420756
-0.405779
1.52663
0.239949
-0.0197537
1.52137
0.172063
-0.00836905
1.51454
0.130223
-0.00062335
1.50384
0.101944
0.0052323
1.48832
0.0811934
0.0119565
1.46716
0.0655639
0.0192648
1.44112
0.0531899
0.0256343
1.41071
0.0429139
0.0315037
1.37665
0.0340841
0.0366832
1.34017
0.0263233
0.0407706
1.30291
0.0193182
0.0435042
1.26746
0.0127531
0.0447956
1.23551
0.00598631
0.0444565
1.20788
0.00228143
0.0442001
-0.0100658
0.0389937
1.59986
-2.0344e-05
0.000250874
1.5994
-9.88479e-05
0.000637298
1.59851
-0.000185919
0.00113769
1.59691
-0.000287658
0.00190057
1.59403
-0.000414418
0.00321861
1.58886
-0.000583042
0.00544218
1.57865
-0.000829608
0.0100688
1.5583
-0.00121556
0.018706
1.50724
-0.00188834
0.0372134
0.335892
-0.00344669
0.0837762
0.333122
0.335137
0.333131
-0.0448912
0.0089391
0.0110236
0.0680805
0.0703933
0.0751011
0.0715543
0.0756692
0.0023637
0.00395554
-0.00571129
0.00639818
-0.00232662
-0.00111013
-0.00130167
-0.00111675
-0.00115178
-0.0071422
0.0013793
-0.00503564
0.00536891
0.00817877
-0.000615009
-0.000767691
-0.000715829
-0.000645963
-0.00132314
-5.87404e-05
0.00219101
-0.00202438
0.00017534
0.00102422
0.79059
0.00537203
-0.435877
-0.0391911
-0.0449649
-0.225077
-0.10101
0.99352
0.0221224
-0.345155
1.12005
0.0293374
-0.252039
1.19821
0.0333732
-0.191217
1.24589
0.0339824
-0.148279
1.27419
0.0319817
-0.115879
1.28958
0.0282784
-0.090963
1.29698
0.0231006
-0.0723385
1.29957
0.0171318
-0.0582633
1.29959
0.010691
-0.0475727
1.29892
0.00389759
-0.0397994
1.29896
-0.00305733
-0.0345433
1.30078
-0.0103196
-0.031408
1.30417
-0.0172929
-0.0296897
1.31139
-0.0241146
-0.029753
-0.0337886
-0.0305095
1.59988
4.08659e-05
0.000245112
1.59945
9.91992e-05
0.000626496
1.5986
0.000216284
0.00109475
1.59703
0.000466368
0.00188861
1.59416
0.000998576
0.00320787
1.58881
0.00211825
0.005531