/*--------------------------------*- C++ -*----------------------------------*\
| =========                 |                                                 |
| \\      /  F ield         | OpenFOAM: The Open Source CFD Toolbox           |
|  \\    /   O peration     | Version:  2512                                  |
|   \\  /    A nd           | Website:  www.openfoam.com                      |
|    \\/     M anipulation  |                                                 |
\*---------------------------------------------------------------------------*/
FoamFile
{
    version     2.0;
    format      ascii;
    arch        "LSB;label=32;scalar=64";
    class       surfaceScalarField;
    location    "280";
    object      phi;
}
// * * * * * * * * * * * * * * * * * * * * * * * * * * * * * * * * * * * * * //

dimensions      [0 3 -1 0 0 0 0];

oriented        oriented;

internalField   nonuniform List<scalar> 
278528
(
1.59955
0.000374478
7.77517e-05
1.5992
0.000162642
0.000188071
1.59916
-0.000257361
0.000301502
1.59959
-0.000879664
0.00044867
1.5995
-0.00052892
0.00062515
1.59944
-0.000733579
0.000812956
1.59944
-0.00133421
0.001353
1.60203
-0.00396928
0.00141193
1.60454
-0.00418064
0.00168619
1.61394
-0.0110738
0.00168509
1.61803
-0.00557251
0.00148761
1.61281
0.00434378
0.000880329
1.62067
-0.00805964
0.000211044
1.61903
0.00213942
-0.000484555
1.61685
0.0030499
-0.000863755
1.6151
0.00267776
-0.000923142
1.61306
0.0026294
-0.000584424
1.61273
0.000859199
-0.000525417
1.61207
0.00110304
-0.000444858
1.61155
0.000798096
-0.000288964
1.6112
0.000464039
-0.000116951
1.61094
0.000224129
2.14315e-05
1.61074
4.34055e-05
0.000150172
1.61057
-0.000119359
0.000281946
1.61042
-0.000268845
0.000415071
1.61028
-0.000405772
0.000540879
1.61016
-0.00053872
0.000653752
1.61008
-0.000676117
0.000763725
1.61
-0.000798766
0.000875259
-0.000950662
0.00100353
1.6
0.000301118
7.83712e-05
1.59998
-5.89318e-06
0.000189003
1.60003
-0.000621019
0.000316232
1.60014
-0.00145357
0.000462738
1.6001
-0.00109126
0.000608868
1.60058
-0.00207243
0.000879345
1.59976
-0.00202399
0.00153399
1.60193
-0.00769692
0.00158324
1.60565
-0.00978656
0.0019111
1.61425
-0.021536
0.00187495
1.61887
-0.0118941
0.00170609
1.6138
0.00842453
0.000985438
1.62141
-0.0157447
8.3961e-05
1.61934
0.00490961
-0.000689629
1.61685
0.00665168
-0.00110013
1.61502
0.00565942
-0.00112789
1.61365
0.0047221
-0.000717607
1.61268
0.00251634
-0.000677291
1.61197
0.00238851
-0.000575
1.61148
0.0016783
-0.000401481
1.61116
0.000990822
-0.000207251
1.61091
0.000506194
-4.63085e-05
1.61072
0.000129129
0.000102449
1.61055
-0.00022552
0.000266106
1.61039
-0.000561849
0.000441406
1.61025
-0.000877627
0.000602799
1.61013
-0.00118568
0.000761822
1.61004
-0.00150005
0.000910694
1.60999
-0.00179293
0.00105025
-0.00219908
0.00121416
1.59999
0.000236902
8.12758e-05
1.59998
-0.000199241
0.000201814
1.59985
-0.000826803
0.000339309
1.59988
-0.00197861
0.000497925
1.59973
-0.00153492
0.000598394
1.59959
-0.00293518
0.00101662
1.59998
-0.0042325
0.00184184
1.60087
-0.0105091
0.00195589
1.60479
-0.0160743
0.00239019
1.61487
-0.0340377
0.00243398
1.62069
-0.0199047
0.00220142
1.61584
0.012056
0.00121613
1.62293
-0.0225976
-0.000216359
1.61992
0.00907281
-0.00112852
1.61676
0.0113954
-0.00156769
1.61476
0.00914904
-0.00146629
1.6133
0.00702946
-0.000826364
1.61242
0.00422814
-0.000824833
1.61174
0.00369242
-0.000613279
1.61133
0.00246548
-0.000373351
1.61107
0.00138861
-0.000140186
1.61087
0.000668841
3.00275e-05
1.6107
0.000110005
0.000176689
1.61055
-0.000422316
0.00033701
1.61039
-0.00093751
0.000518352
1.61025
-0.00143947
0.000694719
1.61012
-0.00194903
0.000885432
1.61003
-0.0024851
0.00108071
1.60995
-0.00298867
0.0012696
-0.00369832
0.0015173
1.60002
0.000133223
8.51538e-05
1.5999
-0.00029647
0.000218394
1.59971
-0.00100878
0.000370687
1.59952
-0.00232994
0.000552818
1.59954
-0.00219541
0.000643165
1.5989
-0.00345819
0.00118005
1.59789
-0.00547072
0.00226807
1.59957
-0.0147014
0.00255043
1.60396
-0.0235971
0.00315576
1.6159
-0.0495692
0.00360797
1.62387
-0.0308981
0.00305349
1.61959
0.0151577
0.00122307
1.62537
-0.0278758
-0.000437342
1.62076
0.0156432
-0.0019211
1.61652
0.0180995
-0.00242796
1.61434
0.0135107
-0.00214265
1.61288
0.00976246
-0.00125746
1.61198
0.00630872
-0.00116126
1.61132
0.0051169
-0.0007444
1.61097
0.00306743
-0.000250433
1.61075
0.00137199
0.000237653
1.61059
0.000213831
0.000621634
1.61045
-0.000721943
0.000964315
1.61032
-0.00159489
0.00129227
1.61018
-0.00241517
0.00160286
1.61005
-0.00320533
0.00189256
1.60993
-0.00401061
0.0021774
1.60982
-0.00483334
0.00244851
1.60981
-0.00568484
0.00271158
-0.00685812
0.00302892
1.60003
2.0764e-05
8.68155e-05
1.59981
-0.000311538
0.000238114
1.59958
-0.00119486
0.000412407
1.59925
-0.00261879
0.000626111
1.60009
-0.00376004
0.00072905
1.59882
-0.00337944
0.00120051
1.59773
-0.00722665
0.00286715
1.59758
-0.0180147
0.00349516
1.60391
-0.03453
0.00462197
1.6176
-0.0688952
0.00567492
1.62921
-0.046626
0.004191
1.64563
-0.00225813
0.00109656
1.62868
-0.00946641
-0.0013723
1.62157
0.0261638
-0.00333785
1.61583
0.0276889
-0.00382348
1.61371
0.0188167
-0.00317069
1.61237
0.0131478
-0.0020356
1.61151
0.0092301
-0.00205068
1.61101
0.0073758
-0.00173901
1.61087
0.00451532
-0.00128303
1.61076
0.00229523
-0.000798802
1.61065
0.000719018
-0.000380668
1.61053
-0.000666687
6.73874e-05
1.61039
-0.00201262
0.000561299
1.61022
-0.00332951
0.00108355
1.61004
-0.00466031
0.00162672
1.60991
-0.00608494
0.00220608
1.60981
-0.00752779
0.00278792
1.60997
-0.00918412
0.00335177
-0.011085
0.00413653
1.60001
-7.02368e-05
8.59775e-05
1.59989
-0.000448271
0.00025689
1.59934
-0.00109479
0.00044996
1.59858
-0.00258403
0.00072057
1.59869
-0.00473834
0.000881772
1.60024
-0.00563245
0.000707013
1.59775
-0.00810479
0.00338365
1.59702
-0.0226841
0.00542157
1.60283
-0.0476479
0.00733374
1.60835
-0.0837546
0.0093912
1.63836
-0.0821109
0.0056371
1.64113
-0.00495981
0.000126786
1.63327
0.00292955
-0.00433648
1.62189
0.0442936
-0.00663463
1.61392
0.0425179
-0.0068166
1.61225
0.0257172
-0.00522474
1.61114
0.0170909
-0.00283516
1.60997
0.0122087
-0.00180927
1.60961
0.00832948
-0.000575659
1.6096
0.00389288
0.000654921
1.60958
0.000640785
0.00169439
1.60963
-0.00185505
0.00254416
1.60983
-0.00418679
0.00334582
1.61019
-0.00646105
0.00410526
1.61071
-0.00867599
0.00483582
1.61142
-0.0108775
0.00551796
1.61227
-0.0131426
0.00621504
1.61315
-0.0153135
0.00691033
1.61447
-0.0181427
0.00765322
-0.0201033
0.00872754
1.60008
-0.000232969
8.49667e-05
1.59983
-0.0004548
0.000251675
1.59949
-0.00113855
0.000390336
1.59852
-0.00237445
0.000757298
1.59694
-0.00449146
0.00134069
1.59795
-0.00744562
0.000812109
1.59735
-0.0103746
0.0028755
1.59229
-0.0258248
0.00821402
1.59529
-0.0626037
0.0119698
1.61255
-0.0245016
0.0153027
-0.0283032
-0.0295065
-0.0339361
1.65188
-0.0378787
0.00652091
-0.0193995
-0.0439007
-0.0266242
1.6566
-0.00250267
-0.00136039
0.00294712
-0.00507147
-0.00352179
1.63978
0.0129965
-0.00974774
0.0108583
0.00636446
-0.000620003
1.6214
0.0201453
-0.0120517
0.0221398
0.014679
0.0178429
1.61106
0.0649183
-0.0121103
1.60865
0.0393654
-0.011286
1.60972
0.0260876
-0.0100888
1.6084
0.0226315
-0.00911626
1.60846
0.0157655
-0.00748393
1.60911
0.00891652
-0.00565064
1.61015
0.00357178
-0.00394855
1.61156
-0.0010177
-0.00221883
1.61294
-0.00531113
-0.000226405
1.61371
-0.00930464
0.00209267
1.61333
-0.013047
0.00477093
1.6114
-0.0167128
0.00777084
1.60746
-0.0202842
0.0110966
1.6019
-0.0242462
0.0145027
1.59239
-0.0269044
0.0182774
-0.0332137
0.0226186
1.59994
-0.000254437
8.37849e-05
1.59996
-0.000667391
0.000193499
1.59997
-0.00103635
-0.000116753
1.59924
-0.00197204
0.000329525
1.59598
-0.00367972
0.00244682
1.59314
-0.00669245
0.00208982
1.5914
-0.0116359
0.00300351
1.58024
-0.0262291
0.0115612
0.395664
-0.0135695
0.0194549
0.393289
0.394708
0.392371
-0.0228077
-0.0161168
-0.0253426
0.399694
-0.0306922
0.0021529
0.412788
-0.0439261
0.000221171
-0.406845
-0.418032
0.425184
-0.0079702
-0.00162654
-0.422934
0.420732
0.0184428
-0.00320521
-0.414168
0.410142
0.0277094
-0.00350228
1.60956
0.0886214
-0.0150765
-0.404616
-0.405539
-0.403525
-0.404511
1.61286
0.0433046
-0.00728356
1.61206
0.0285562
-0.0017133
1.61164
0.0208122
0.00222133
1.60992
0.0101724
0.00731901
1.60412
0.00147637
0.0132627
1.59327
-0.00477622
0.0192294
1.57728
-0.0100137
0.0250202
1.55614
-0.0148034
0.030676
1.53015
-0.0193193
0.0360276
1.50028
-0.0239592
0.0408095
1.46796
-0.0292108
0.0448404
1.43475
-0.0350327
0.0479743
1.40286
-0.0425173
0.0501758
1.37065
-0.0457906
0.051116
-0.0642298
0.0508501
1.59988
-0.000215221
8.47268e-05
1.5996
-0.000587647
0.000201838
1.59985
-0.00103225
-0.000256189
1.59983
-0.00161807
-0.000341706
1.59607
-0.00227836
0.00235952
1.59032
-0.00489867
0.0039588
1.58402
-0.0103656
0.00502849
0.392791
-0.0222857
0.015166
0.39136
0.391059
0.38969
0.390214
-0.0132902
0.00228608
0.394271
-0.0512305
0.00633574
0.0389315
-0.388412
0.416483
0.00141063
-0.410882
0.052528
-0.0167703
-0.0133805
-0.0186981
-0.0104508
0.433266
-0.431696
0.00740452
-0.000272087
-0.000475427
-0.00446255
0.00309673
0.000336205
-0.00326213
-0.00135838
-0.0021094
-0.425073
0.423485
-0.0255926
0.00848124
0.00980273
0.00791453
0.0095463
-0.000548138
-0.00307769
-0.00373438
-0.000941094
-0.420325
0.414923
-0.0365001
0.00876202
0.00839536
0.00833483
0.00695912
-0.000770998
0.00465861
0.00585172
-0.000335716
1.37241
0.0558433
0.0393082
-0.392441
-0.318744
-0.38672
-0.281179
1.35315
0.0164355
0.0460118
1.3187
0.0110924
0.0518363
1.28103
0.00564487
0.0528076
1.23867
-0.00156782
0.0540943
1.19289
-0.00742189
0.054678
1.14774
-0.0132472
0.0536482
1.10734
-0.0207284
0.0511351
1.07514
-0.0300351
0.0474567
1.0535
-0.0405087
0.042854
1.04335
-0.0514737
0.0376762
1.04406
-0.06232
0.032412
1.05434
-0.0725883
0.0272858
1.07064
-0.0818824
0.0230818
1.09684
-0.0892488
0.0172575
-0.0998362
0.0142487
1.59985
-0.000155532
8.73671e-05
1.59939
-0.000400358
0.000274468
1.59879
-0.000678514
0.000242932
1.59845
-0.00103784
-0.000234799
1.59618
-0.00156521
0.00154995
1.58895
-0.00244372
0.00477795
1.57602
-0.00412442
0.00668591
0.388213
-0.00836729
0.0176336
0.386596
0.385733
0.383903
0.379788
-0.00783216
0.00398504
0.0122429
0.0119287
-0.0931644
0.0924442
-0.011969
0.000718201
0.0153654
-0.110094
0.106496
0.00228887
-0.00472784
-0.00239191
-0.0050676
-0.00193988
-0.000313109
-0.111168
0.111752
0.00225511
-0.00138971
-0.000608897
-0.00119288
0.000786709
-0.0980179
-0.00509967
0.0913234
-0.00319631
0.00327614
0.00391388
0.00401398
0.00375517
-0.0783344
-0.00357288
0.00249335
0.00605562
0.073424
0.703652
0.0743934
-0.0250991
-0.164125
-0.167439
-0.196876
-0.168816
0.710561
0.0507631
-0.0413774
0.725695
0.0378297
-0.0419718
0.750298
0.0243573
-0.0433641
0.778565
0.0113822
-0.0412369
0.811676
-0.0014001
-0.0391331
0.851313
-0.014343
-0.0385255
0.896674
-0.0273019
-0.0387611
0.945801
-0.0398864
-0.0392481
0.996561
-0.0514691
-0.0397752
1.04699
-0.0616539
-0.0402292
1.09541
-0.0702163
-0.040502
1.14086
-0.0772974
-0.0407288
1.18191
-0.0824657
-0.0404598
1.22246
-0.087655
-0.0421376
-0.0888001
-0.0390621
1.59985
-9.06874e-05
8.85749e-05
1.59937
-0.000198893
0.000278398
1.59873
-0.000296751
0.000251251
1.59832
-0.000409511
-0.000217842
1.59592
-0.000749133
0.00158634
1.58843
0.000185123
0.00485587
1.57465
0.0027652
0.00688586
0.385786
0.00808649
0.0183875
0.386906
0.382906
0.384191
0.00334829
0.376526
0.00134122
0.00453282
0.0025175
-0.0894223
0.0829082
0.0024157
0.00158059
0.0238903
-0.0174796
0.0640807
0.0157785
-0.0169384
-0.0230078
-0.0195944
-0.0263326
-0.00830115
-0.0725215
0.0708619
0.0169764
-0.00698409
-0.0741858
-0.012525
0.0173262
-0.00362764
0.0730969
0.82542
0.132145
-0.0504615
-0.184776
-0.161358
-0.239482
-0.247183
0.831884
0.126055
-0.0818612
0.863957
0.100475
-0.0947964
0.912044
0.0802823
-0.104051
0.966109
0.0638076
-0.106508
1.02286
0.0467906
-0.10495
1.08055
0.0298438
-0.101866
1.13696
0.0138495
-0.0975431
1.19002
-0.000460437
-0.0924638
1.2385
-0.0128063
-0.0871188
1.28188
-0.0231958
-0.0818204
1.32005
-0.031694
-0.0766861
1.3533
-0.0386413
-0.0718933
1.38175
-0.0438494
-0.0670616
1.4077
-0.0491831
-0.0644218
-0.0508295
-0.05623
1.59986
-3.64803e-05
8.82701e-05
1.59952
-7.77669e-05
0.000213503
1.59967
-0.000213113
-0.000232075
1.59947
8.79708e-05
-0.000295341
1.59534
0.000928359
0.00244846
1.58872
0.00263061
0.00417192
1.58012
0.00580296
0.00556236
0.388977
0.0170696
0.0170859
0.390193
0.386857
0.388006
-0.00723264
0.38274
0.0096818
0.00377391
-0.00980815
0.04793
0.012512
-0.0136827
-0.0112966
-0.0157109
0.0916395
0.0890106
0.0903327
0.0928654
-0.373671
-0.0307477
-0.0971839
0.0985404
0.00288294
0.0266215
-0.0812269
-0.0823164
0.0738208
0.0353933
0.0542031
-0.0424667
-0.0640077
0.06296
0.00381942
0.0396247
-0.0359101
-0.0569035
0.0118292
0.0549227
0.0260646
1.17405
0.0305492
0.0524899
-0.199294
-0.315296
-0.251014
-0.359422
1.20226
0.0572031
0.0405613
1.22968
0.0496005
0.0233901
1.26722
0.0377669
0.00495269
1.31068
0.0294292
-0.0090975
1.35533
0.0211515
-0.0190152
1.39866
0.0126133
-0.0260865
1.43854
0.00490057
-0.0309201
1.4738
-0.00156435
-0.0341288
1.50414
-0.00698227
-0.0361408
1.52964
-0.0114579
-0.0372203
1.55073
-0.0150742
-0.0376915
1.56784
-0.018003
-0.037742
1.5816
-0.02027
-0.0373424
1.59251
-0.0225789
-0.0375097
-0.0231837
-0.0350038
1.59991
-3.44862e-05
8.94829e-05
1.59984
-0.000225584
0.00021216
1.5997
5.90202e-06
-7.96878e-05
1.59868
0.00070695
0.000399524
1.59487
0.0021533
0.00258648
1.59086
0.00423774
0.00239935
1.58655
0.00633118
0.00378369
1.56878
0.0212438
0.0135957
0.386861
0.0607511
0.025955
-0.011437
-0.0202844
-0.0131749
-0.0220844
0.389766
0.384763
0.387662
-0.0405384
0.387043
0.0342084
0.00622858
-0.0874157
0.403018
0.069181
0.0100748
-0.394742
-0.0862315
-0.418372
0.432615
0.05664
0.015329
-0.0422625
-0.435129
0.43396
0.0214702
0.021758
-0.00728564
-0.429272
0.421373
-0.00298693
0.0181733
1.63791
0.00047329
0.0496771
-0.414807
-0.413337
-0.418055
-0.41139
1.63253
0.0142966
0.0482216
1.62649
0.014775
0.0408267
1.62382
0.00727863
0.0331273
1.62316
0.00356061
0.0265176
1.62289
0.000538602
0.020883
1.62253
-0.0027614
0.015743
1.622
-0.00562408
0.0110754
1.62125
-0.00774675
0.0069538
1.62051
-0.00936574
0.00314328
1.6196
-0.0106064
7.32674e-05
1.61873
-0.0114631
-0.00272571
1.61785
-0.0120686
-0.00504213
1.61703
-0.0124671
-0.00698328
1.61597
-0.0128543
-0.00866841
-0.013061
-0.0103282
1.60004
-0.000166964
9.25737e-05
1.59969
-0.000151725
0.00027641
1.59914
0.000114222
0.000439368
1.59782
0.00117352
0.000849051
1.59561
0.0028431
0.00151903
1.59542
0.00325563
0.00117531
1.59254
0.00551336
0.00370448
1.58263
0.0210054
0.0101458
1.57656
0.0500381
0.0167802
1.58875
0.102414
0.0280831
-0.0284966
-0.0374448
-0.0335355
-0.0431697
1.64041
0.135162
0.0350734
-0.0567191
-0.0479877
-0.0629602
-0.0542784
1.66205
0.0755734
0.0371199
-0.0347219
-0.028625
-0.036285
-0.0348745
1.65038
0.055287
0.0276356
-0.0142665
-0.0117967
-0.0212554
-0.0240907
1.63057
-0.00223722
0.0194065
0.00126361
0.00674412
-0.00559884
0.000119735
1.62021
-0.00738207
0.0181382
1.61757
0.00206356
0.0148148
1.61804
0.00278128
0.0114891
1.6163
0.000955083
0.00803693
1.6157
-0.00111949
0.00527218
1.61525
-0.0020631
0.00305873
1.61466
-0.00336568
0.00119978
1.61409
-0.00471267
-0.000321346
1.6136
-0.00574041
-0.00150231
1.6132
-0.00653909
-0.00240278
1.61271
-0.00721884
-0.002889
1.61241
-0.00776661
-0.0033804
1.61213
-0.00819593
-0.00358431
1.61195
-0.00850333
-0.0037901
1.61179
-0.00876924
-0.00392581
-0.0090234
-0.00412575
1.59996
-0.000223155
9.51615e-05
1.59972
-0.000194471
0.000286409
1.59894
0.000379143
0.000507804
1.59781
0.00147402
0.000826622
1.59729
0.00229223
0.00107736
1.59777
0.00168947
0.00108541
1.59344
0.0056893
0.00414994
1.58967
0.0177183
0.00705727
1.59095
0.0379472
0.010799
1.59435
0.0821846
0.0168076
1.63149
0.0780953
0.0198769
1.64389
0.0440386
0.0190574
1.63963
0.0453645
0.0140849
1.62837
0.000174397
0.00876175
1.62077
-0.00672652
0.00688674
1.61924
-0.0024944
0.0060363
1.61784
-0.00148425
0.00563544
1.61633
-0.00145221
0.00389847
1.61552
-0.00293864
0.00262366
1.61498
-0.00315205
0.00162822
1.61443
-0.00358307
0.000775534
1.61395
-0.00420768
-6.05828e-06
1.61356
-0.00470328
-0.000633452
1.61324
-0.00506743
-0.00113739
1.61293
-0.00539289
-0.00150077
1.61269
-0.00567191
-0.00184359
1.61244
-0.00588524
-0.00206229
1.6123
-0.00602245
-0.00233677
1.61223
-0.00615772
-0.00253972
-0.00628079
-0.00284955
1.59998
-0.000297288
9.72874e-05
1.59962
-0.000109985
0.000271258
1.59916
0.000362541
0.000476362
1.59845
0.00144375
0.000740062
1.5987
0.00110748
0.000931196
1.59652
0.00230152
0.00156809
1.59404
0.00461283
0.00355287
1.59194
0.0150136
0.00480417
1.59593
0.0268171
0.00712538
1.60885
0.0589014
0.0103344
1.62474
0.0501656
0.0119993
1.6473
0.0102719
0.0111487
1.6334
0.0507145
0.00847834
1.62698
0.00150627
0.00502528
1.6216
-0.0047388
0.00334522
1.61949
-0.00315908
0.00273337
1.6178
-0.00238897
0.00257301
1.61655
-0.00160685
0.00139185
1.61564
-0.00273991
0.000706114
1.61505
-0.00279978
0.000234733
1.61453
-0.0029024
-0.000146599
1.61407
-0.00319852
-0.000538962
1.61369
-0.00346458
-0.000850323
1.61337
-0.00365085
-0.00108216
1.61307
-0.00381875
-0.00126734
1.61281
-0.00397181
-0.00142961
1.61259
-0.00408531
-0.00157911
1.61244
-0.00413979
-0.00172967
1.61227
-0.00416635
-0.00182367
-0.00407069
-0.00200151
1.59997
-0.000360901
9.6529e-05
1.59971
-0.000105367
0.000254044
1.59928
0.000348082
0.00043854
1.59872
0.00133532
0.000670855
1.5982
0.000773728
0.000844947
1.59679
0.00218133
0.0015271
1.59474
0.00378615
0.00287409
1.59514
0.0109971
0.00360847
1.59833
0.0186197
0.00499435
1.61014
0.0403525
0.00670967
1.62074
0.0317365
0.00779738
1.62044
0.00340617
0.00712612
1.62868
0.0369229
0.00551893
1.62489
0.00187208
0.00337463
1.62106
-0.00303223
0.00209479
1.61902
-0.00277211
0.00162041
1.61748
-0.00258702
0.00171872
1.6164
-0.00154644
0.00100046
1.61551
-0.00247163
0.000618703
1.61488
-0.00248382
0.000319924
1.61434
-0.00242655
6.82448e-05
1.61387
-0.0025238
-0.000199566
1.61349
-0.00264541
-0.000421554
1.61316
-0.00272404
-0.000590295
1.61287
-0.00278942
-0.000730619
1.61261
-0.00285081
-0.000860902
1.6124
-0.0028921
-0.000976169
1.61224
-0.00289412
-0.00108823
1.61211
-0.00287658
-0.00116871
-0.00281735
-0.00131174
1.59993
-0.000384222
9.32981e-05
1.59978
-0.000196701
0.000239139
1.59941
0.000305382
0.00040953
1.59909
0.00103622
0.000617672
1.59845
0.000611137
0.000797015
1.59767
0.0016233
0.00134415
1.59725
0.00181335
0.00238172
1.59728
0.00811924
0.00283997
1.60057
0.0115087
0.00380578
1.61082
0.025445
0.00462837
1.61844
0.0187554
0.00534114
1.61635
0.000430685
0.00503514
1.62545
0.0241228
0.00368261
1.62334
0.00158332
0.00237029
1.62065
-0.0017487
0.00138474
1.61887
-0.00196415
0.000943518
1.61741
-0.00217528
0.00103336
1.6164
-0.0010168
0.00047668
1.61549
-0.00174632
0.000178179
1.6148
-0.00175629
-3.73924e-05
1.61425
-0.00167994
-0.000191485
1.61378
-0.00170955
-0.000345442
1.6134
-0.00177198
-0.000483398
1.61308
-0.00180616
-0.000590113
1.6128
-0.00182517
-0.00067439
1.61255
-0.00184166
-0.000759809
1.61234
-0.00184935
-0.000834668
1.61218
-0.0018369
-0.000893709
1.61206
-0.00181433
-0.000950583
-0.00179921
-0.00107282
1.59994
-0.000416496
9.0844e-05
1.59978
-0.000264051
0.000227471
1.5996
0.000100398
0.000387971
1.59937
0.000674229
0.000583355
1.59888
0.000296777
0.000804674
1.59878
0.000524663
0.00119236
1.59731
0.00125214
0.00202925
1.59885
0.00420461
0.00235636
1.60222
0.00504096
0.00308038
1.61113
0.0129351
0.00357727
1.61713
0.00872566
0.00400175
1.61415
-0.000311371
0.00370744
1.62346
0.0119181
0.00286929
1.62231
0.000871035
0.00183814
1.6203
-0.000809157
0.0010418
1.61871
-0.00102475
0.00062654
1.61739
-0.00152759
0.00065528
1.61631
-0.000261131
0.000311515
1.61542
-0.000922166
6.14941e-05
1.61472
-0.000967405
-8.82456e-05
1.61417
-0.000932247
-0.000189119
1.61371
-0.000942307
-0.000300763
1.61332
-0.000967501
-0.000410142
1.61299
-0.00097631
-0.000492895
1.6127
-0.000976364
-0.000553497
1.61245
-0.000977696
-0.000609716
1.61224
-0.000979194
-0.000661984
1.61207
-0.00097321
-0.000697688
1.61197
-0.000972625
-0.000739072
-0.00099169
-0.000815704
1.59949
9.02037e-05
1.599
0.000226822
1.59873
0.00037357
1.59883
0.000569091
1.59831
0.000818608
1.59771
0.00111774
1.59714
0.00182498
1.5992
0.00213056
1.60149
0.00273898
1.61125
0.00316285
1.61655
0.00340936
1.61311
0.00311465
1.62253
0.00248787
1.62181
0.00157629
1.62013
0.000858476
1.61865
0.00044483
1.61668
0.000433211
1.61627
0.000139949
1.61546
-0.0001078
1.61475
-0.000255337
1.61417
-0.000359502
1.6137
-0.000469499
1.61331
-0.000563951
1.61296
-0.000631689
1.61267
-0.000681479
1.61242
-0.0007203
1.61221
-0.000773406
1.61204
-0.000808374
1.61193
-0.000856361
-0.00091879
1.59965
0.000322669
0.000104918
1.59936
0.0001402
0.000332843
1.59933
-0.000248914
0.000583138
1.59942
-0.000490107
0.000856268
1.60013
-0.00141059
0.00132664
1.60061
-0.00141048
0.00176004
1.6013
-0.00161029
0.00229884
1.60425
-0.00437121
0.00284674
1.60689
-0.00420659
0.00327081
1.60986
-0.00459437
0.00332236
1.61518
-0.00675748
0.00293379
1.60911
0.00550531
0.00144642
1.61513
-0.0066771
0.000881683
1.61664
-0.00133941
-0.000639035
1.61427
0.00294106
-0.001424
1.61257
0.00258094
-0.0017926
1.61353
0.000639969
-0.00218281
1.6134
-0.00046909
7.59445e-05
1.61282
0.000633276
-0.000495243
1.61234
0.000549287
-0.000364054
1.61201
0.000252324
-4.98084e-05
1.61173
4.48842e-05
0.000250277
1.61146
-0.000108921
0.000518489
1.61122
-0.000249305
0.000767723
1.61095
-0.000381362
0.00105659
1.61065
-0.000501617
0.00133553
1.61047
-0.000619879
0.00144788
1.61035
-0.000740658
0.00162528
1.61027
-0.000850697
0.00181376
-0.000982898
0.00205346
1.60004
0.00024951
0.000107432
1.60005
-2.58371e-05
0.000341788
1.60013
-0.000606488
0.000598606
1.60014
-0.000864599
0.000837161
1.60022
-0.00232669
0.00144907
1.60081
-0.00297637
0.00187122
1.60175
-0.00348344
0.00248517
1.60421
-0.00836045
0.00313726
1.60802
-0.00976257
0.00367841
1.61261
-0.0110976
0.00379926
1.61603
-0.0118037
0.00333763
1.61059
0.0107556
0.00118158
1.61587
-0.0130015
0.0011319
1.61839
-0.00357187
-0.000961959
1.61646
0.00562379
-0.00183994
1.6151
0.00486684
-0.00203632
1.61587
0.00169091
-0.00253149
1.61373
0.00125656
-0.000255836
1.61278
0.00173739
-0.000733726
1.61233
0.00114956
-0.000547463
1.61202
0.000544408
-0.000201009
1.61175
0.000138764
0.000120745
1.61149
-0.000162288
0.00041165
1.61123
-0.000442942
0.000708551
1.61091
-0.000705839
0.00106942
1.61065
-0.000955677
0.00130824
1.61048
-0.00120337
0.00151492
1.61037
-0.00146114
0.00174714
1.61029
-0.00170474
0.00198362
-0.00204777
0.00229797
1.6
0.000212582
0.000112864
1.60006
-0.000243077
0.000360184
1.59997
-0.000805893
0.000633475
1.59995
-0.00116291
0.000822293
1.59975
-0.00320406
0.00167518
1.59989
-0.00419434
0.00210891
1.60221
-0.006827
0.00288948
1.60334
-0.0112876
0.00378203
1.60732
-0.0159325
0.00460777
1.61263
-0.0188697
0.00490967
1.61027
-0.0115503
0.00431181
1.61285
0.00799196
0.00139968
1.61837
-0.0198171
0.0010938
1.61876
-0.00339465
-0.00167424
1.61623
0.00921376
-0.00260133
1.6146
0.00753201
-0.00248281
1.61482
0.00302265
-0.00236305
1.61334
0.00281422
-0.000887754
1.61262
0.00274121
-0.000886286
1.61222
0.00165184
-0.000477227
1.61197
0.000683461
-3.11843e-05
1.61173
5.64044e-05
0.000338659
1.61149
-0.00041209
0.000656273
1.61122
-0.000835827
0.000992103
1.61089
-0.00123374
0.00136358
1.61067
-0.00161342
0.00155979
1.61051
-0.00199719
0.00183835
1.61039
-0.0024051
0.00214084
1.61031
-0.00279142
0.00244061
-0.00332876
0.0028691
1.60004
0.000136212
0.000120606
1.59996
-0.000337926
0.00038631
1.59985
-0.0010086
0.000684909
1.59985
-0.00147613
0.000873598
1.59945
-0.00408531
0.00193561
1.59901
-0.00504072
0.00247451
1.5999
-0.00896275
0.00353766
1.60203
-0.0156988
0.00486011
1.60635
-0.0233107
0.00623931
1.61369
-0.0293527
0.00676441
1.61821
-0.0190015
0.00600658
1.61757
0.00901363
0.000877723
1.6203
-0.0246686
0.00172407
1.61949
-0.00172502
-0.00273838
1.61595
0.014328
-0.00396464
1.61411
0.0107284
-0.00348253
1.61412
0.00446947
-0.00269161
1.61298
0.00438656
-0.00158
1.61232
0.00377291
-0.00110416
1.612
0.00211031
-0.000378043
1.6118
0.00077
0.00035406
1.61158
-9.72848e-05
0.000984069
1.61132
-0.000783167
0.00159061
1.61104
-0.00141335
0.00214227
1.61077
-0.00200335
0.00263251
1.61058
-0.00257174
0.00302995
1.61043
-0.00315902
0.00347676
1.61032
-0.0037731
0.0039291
1.6103
-0.00442766
0.00436593
-0.00534136
0.00494398
1.60004
5.09077e-05
0.000130114
1.5999
-0.000377974
0.000418662
1.59977
-0.00121711
0.00075056
1.60016
-0.00220939
0.000975303
1.59639
-0.000593536
0.00100745
1.59801
-0.00965206
0.00420735
1.59843
-0.0109735
0.00447797
1.59966
-0.0199322
0.00652089
1.60535
-0.0333193
0.00896339
1.6174
-0.0456617
0.00996637
1.62756
-0.0337689
0.00888329
1.64533
-0.00804909
0.000529489
1.62485
-0.00654266
0.00111565
1.62053
0.00443003
-0.00509798
1.61535
0.0218506
-0.00612494
1.61354
0.014348
-0.00496003
1.61331
0.00605723
-0.00338498
1.61245
0.00556612
-0.00235347
1.61197
0.00413719
-0.00161848
1.61185
0.00173981
-0.000776497
1.61178
6.28528e-05
-1.81523e-05
1.61163
-0.000951747
0.00062612
1.61134
-0.00174588
0.0013214
1.61109
-0.00248103
0.00187992
1.61086
-0.00317165
0.00247614
1.61066
-0.00386381
0.00311458
1.61049
-0.00463217
0.00384125
1.61035
-0.00544889
0.00460203
1.61036
-0.00645459
0.0053774
-0.00766423
0.00653585
1.60011
-0.000120528
0.000140931
1.59991
-0.000353043
0.00043948
1.59951
-0.00116796
0.000795279
1.59936
-0.00248903
0.00115809
1.60249
-0.00320856
0.000369078
1.59678
-0.00906592
0.00584247
1.59647
-0.0130376
0.00577547
1.59671
-0.02372
0.008981
1.60277
-0.045408
0.0133899
1.62024
-0.0694296
0.0157598
1.64772
-0.06878
0.0132688
1.6432
-0.00218826
-0.00112308
1.64447
-0.0101264
-0.00194461
1.62198
0.0309286
-0.0105608
1.61433
0.0336168
-0.0109195
1.61338
0.018143
-0.00806222
1.61256
0.00899723
-0.00496105
1.61143
0.00783694
-0.00295209
1.61106
0.00498273
-0.00104836
1.61106
0.00148053
0.000926354
1.61104
-0.000833095
0.00261904
1.61095
-0.00231642
0.0040181
1.61078
-0.00354236
0.00531857
1.61077
-0.00466255
0.00631025
1.6108
-0.00571062
0.00734209
1.6109
-0.00674322
0.00830017
1.61109
-0.00785404
0.00925317
1.61129
-0.00889713
0.0101579
1.61195
-0.0105805
0.0111299
-0.0115132
0.0123574
1.59996
-0.000140928
0.000145424
1.60008
-0.000679175
0.000451241
1.59973
-0.000926875
0.000506849
1.5992
-0.0023265
0.00111933
1.59939
-0.00383112
0.00177554
1.59371
-0.00757971
0.00501566
1.58961
-0.0147052
0.00864845
1.58991
-0.0283964
0.0126029
1.60075
-0.0647095
0.0204749
1.61286
-0.024948
0.0253861
-0.024591
-0.0241156
-0.0179116
1.64444
-0.0350328
0.0212464
-0.0250883
-0.0285979
-0.0262688
1.64238
-5.25194e-05
-0.0014371
-1.62805e-05
0.000914669
-0.000745544
1.63193
0.00707571
-0.00782811
-0.00372495
0.00487536
-0.00969357
1.61787
0.0139298
-0.0185107
0.0157803
0.0112595
0.0105689
1.61115
0.0463605
-0.0181074
1.61197
0.0185705
-0.012539
1.61119
0.00800759
-0.008338
1.61023
0.00591118
-0.00624195
1.61075
0.00107014
-0.00408675
1.61155
-0.00312139
-0.0018401
1.61209
-0.00530121
-2.76465e-06
1.61238
-0.00635631
0.00154765
1.6125
-0.00692399
0.00305327
1.61245
-0.00715537
0.00465724
1.61206
-0.00714834
0.00661385
1.61129
-0.00705338
0.00885406
1.61002
-0.00693011
0.0114536
1.60825
-0.00686234
0.0142422
1.60534
-0.00702459
0.0176439
-0.00673208
0.0219464
1.59998
-0.000191814
0.000145804
1.59977
-0.000561728
0.000287095
1.59932
-0.00143381
0.000846741
1.59813
-0.00219906
0.00138727
1.598
-0.00246589
0.00121928
1.5939
-0.00703227
0.00563836
1.58466
-0.0141153
0.0116568
1.58279
-0.0324099
0.0174563
0.395155
-0.0150855
0.0338104
0.393191
0.396097
0.393963
-0.0227775
-0.0152547
-0.0215322
-0.00627163
0.398115
-0.0306068
0.00898561
-0.00336935
0.410102
-0.0422936
0.00606911
-0.405439
0.0020762
-0.415782
0.419754
-0.00420237
-0.00187842
0.00377186
-0.417481
0.415844
0.00861223
-0.00365444
0.00472906
-0.412528
0.408915
0.0185023
-0.00563797
1.60682
0.0667139
-0.024738
-0.404048
-0.404389
-0.404687
-0.404395
1.60743
0.0218938
-0.0112373
1.60436
0.0110116
-0.0016673
1.60336
0.00503388
0.00408178
1.60319
-0.00188168
0.0104369
1.60189
-0.00583258
0.0172661
1.5991
-0.00678404
0.0235154
1.59466
-0.006126
0.0292425
1.58803
-0.00453573
0.0349324
1.57852
-0.00226423
0.0406568
1.56571
0.000235496
0.046246
1.54966
0.00241806
0.0514261
1.53047
0.00414817
0.0560871
1.50969
0.0044571
0.0596444
1.48307
0.00713762
0.0635733
-0.000215894
0.0640007
1.59992
-0.000190255
0.000156849
1.59981
-0.000511284
0.000261701
1.59862
-0.000994156
0.000496152
1.59516
-0.00183409
0.00275144
1.59616
-0.00266288
0.00155445
1.59126
-0.00416112
0.0059936
1.58
-0.00996002
0.0121272
0.391391
-0.0243759
0.0252815
0.389561
0.391815
0.389089
-0.00585443
0.388833
-0.0149226
0.00824642
0.389287
-0.0445557
0.0172741
-0.0118901
0.0372987
-0.387455
0.00637745
-0.00218792
-0.405644
0.050555
0.103817
0.102977
0.103257
0.10328
-0.0129096
-0.0170433
-0.0139883
-0.0183026
0.0032933
-0.105499
0.00286205
0.108003
-0.00457271
-0.00405407
-0.105886
0.00234898
-0.00226779
0.105064
0.002117
-0.00135368
-0.103856
0.000763339
-0.00573265
0.00608
-0.00138028
0.104137
1.53762
0.0979424
0.0235544
-0.398133
-0.373167
-0.400372
-0.381397
1.51477
0.0480272
0.0427147
1.48772
0.0350689
0.0548064
1.45616
0.0282143
0.0611729
1.42023
0.0218759
0.0662548
1.38251
0.0175324
0.0690392
1.34624
0.0144018
0.0687423
1.31428
0.0112535
0.0657305
1.28802
0.00794002
0.0612605
1.26798
0.00476277
0.0558777
1.25396
0.00187801
0.050071
1.24516
-0.000702482
0.0443403
1.24064
-0.00294943
0.0389008
1.23968
-0.00537189
0.0338767
1.24095
-0.00596185
0.0290933
-0.0106492
0.0241023
1.59987
-0.000152437
0.000171506
1.59956
-0.000393757
0.000472006
1.59948
-0.000666255
-6.93667e-06
1.59695
-0.00101704
0.00147459
1.59465
-0.0015279
0.00271889
1.59083
-0.00238087
0.00681368
1.57968
-0.00394848
0.0118195
0.387893
-0.00783335
0.0312822
0.387118
0.386815
0.387662
0.378727
-0.00863264
0.0122488
-0.00847185
0.0140091
-0.00551513
0.0116445
-0.0923391
0.0911084
-0.0118639
0.00693997
-0.000990439
0.00537965
-0.0263413