/*--------------------------------*- C++ -*----------------------------------*\
| =========                 |                                                 |
| \\      /  F ield         | OpenFOAM: The Open Source CFD Toolbox           |
|  \\    /   O peration     | Version:  2512                                  |
|   \\  /    A nd           | Website:  www.openfoam.com                      |
|    \\/     M anipulation  |                                                 |
\*---------------------------------------------------------------------------*/
FoamFile
{
    version     2.0;
    format      ascii;
    arch        "LSB;label=32;scalar=64";
    class       volVectorField;
    location    "280";
    object      U;
}
// * * * * * * * * * * * * * * * * * * * * * * * * * * * * * * * * * * * * * //

dimensions      [0 1 -1 0 0 0 0];

internalField   nonuniform List<vector> 
90398
(
(20.0001 -0.000279492 0.000175448)
(20.0006 -0.000884484 0.000565374)
(20.0018 -0.00166756 0.00102282)
(20.0043 -0.00280525 0.00158467)
(20.0091 -0.00450078 0.00228084)
(20.0179 -0.00697981 0.00311939)
(20.0332 -0.010408 0.00412051)
(20.0579 -0.0147266 0.00517629)
(20.0946 -0.0191226 0.00599316)
(20.1433 -0.0220232 0.00622875)
(20.198 -0.0204708 0.00540786)
(20.2446 -0.0125994 0.0034454)
(20.2661 -0.00142673 0.000796241)
(20.2571 0.00739411 -0.00169382)
(20.2285 0.0106564 -0.00329585)
(20.1987 0.00939097 -0.00380248)
(20.1787 0.00695895 -0.00355258)
(20.1675 0.00531676 -0.00307266)
(20.1592 0.00407507 -0.00258719)
(20.1519 0.00274419 -0.00204536)
(20.1465 0.00163361 -0.00143193)
(20.1429 0.000969047 -0.000819881)
(20.1399 0.000528279 -0.000252274)
(20.137 3.63852e-05 0.000278689)
(20.1342 -0.000596798 0.000787759)
(20.1317 -0.00134533 0.00125741)
(20.1293 -0.00214043 0.00172547)
(20.1273 -0.002922 0.00214796)
(20.1257 -0.00358208 0.00261263)
(20.1244 -0.00439562 0.0031471)
(20.0001 -0.000817415 0.000179664)
(20.0005 -0.00259083 0.000580747)
(20.0014 -0.00489577 0.0010555)
(20.0033 -0.00826214 0.00164783)
(20.0073 -0.0133212 0.00239672)
(20.015 -0.0208048 0.00332642)
(20.0291 -0.0313091 0.00446583)
(20.0533 -0.0447987 0.00572465)
(20.0908 -0.0589685 0.00680024)
(20.1432 -0.0687789 0.00725492)
(20.2043 -0.0642525 0.00626627)
(20.2567 -0.0389106 0.00382322)
(20.2788 -0.00306996 0.000591811)
(20.2651 0.0246868 -0.00244119)
(20.2304 0.0343237 -0.00426651)
(20.1972 0.0295429 -0.00471096)
(20.177 0.0215468 -0.00431833)
(20.1665 0.0164256 -0.00375664)
(20.1584 0.0125593 -0.00321302)
(20.1511 0.00829658 -0.00259167)
(20.1461 0.00462122 -0.00190334)
(20.1428 0.00231304 -0.00123688)
(20.1399 0.000903955 -0.00060191)
(20.1369 -0.000241041 4.41287e-05)
(20.134 -0.00138388 0.000722756)
(20.1314 -0.00261839 0.00139995)
(20.1289 -0.00395496 0.00208317)
(20.127 -0.00535823 0.00271676)
(20.1254 -0.00658896 0.00334272)
(20.1247 -0.00844606 0.00409802)
(20 -0.00130037 0.000189382)
(20.0001 -0.00412972 0.000614609)
(20.0004 -0.00783074 0.00112615)
(20.0012 -0.0132901 0.00178338)
(20.0035 -0.0216262 0.00264443)
(20.009 -0.0342177 0.00375997)
(20.0206 -0.0524577 0.00519317)
(20.0431 -0.076708 0.00689633)
(20.082 -0.103513 0.00850669)
(20.1421 -0.123726 0.00942902)
(20.2176 -0.116554 0.00800687)
(20.2829 -0.068228 0.00438477)
(20.3059 -0.00112758 -0.000187217)
(20.2813 0.0488398 -0.00439411)
(20.2331 0.0643756 -0.0066224)
(20.1927 0.0537687 -0.00675184)
(20.1726 0.0390666 -0.00582706)
(20.1638 0.0304568 -0.00483837)
(20.1559 0.0237393 -0.00390509)
(20.1487 0.0159053 -0.00287865)
(20.1444 0.00858478 -0.00187744)
(20.1421 0.00280803 -0.00106908)
(20.1398 -0.00202914 -0.00043221)
(20.137 -0.00638088 0.000156632)
(20.1341 -0.0102346 0.000790286)
(20.1314 -0.013682 0.00148124)
(20.1289 -0.0168863 0.00225193)
(20.1268 -0.0199715 0.00303615)
(20.1252 -0.022557 0.00383975)
(20.1239 -0.0259754 0.00495799)
(20 -0.00169845 0.000202418)
(19.9997 -0.00540316 0.000660813)
(19.999 -0.0102896 0.00122427)
(19.9981 -0.0175987 0.00197499)
(19.9977 -0.0290187 0.00300552)
(19.9994 -0.0468167 0.00440742)
(20.0066 -0.0737693 0.00632288)
(20.0255 -0.111576 0.00879582)
(20.0655 -0.156834 0.0114095)
(20.1384 -0.195097 0.0132725)
(20.2402 -0.184724 0.0109222)
(20.3283 -0.100994 0.00500642)
(20.3514 0.00949645 -0.00177918)
(20.3068 0.0846324 -0.00797423)
(20.2358 0.101325 -0.0109562)
(20.1844 0.0781932 -0.0107668)
(20.1654 0.0546246 -0.00936324)
(20.1595 0.043351 -0.00801801)
(20.1518 0.0350765 -0.00641654)
(20.1442 0.0262459 -0.00422819)
(20.1403 0.0194568 -0.00179525)
(20.1384 0.0146833 0.000466729)
(20.1363 0.0100111 0.00243551)
(20.1337 0.00486917 0.00415868)
(20.1312 -0.0002749 0.00570644)
(20.1288 -0.00523721 0.00710973)
(20.1264 -0.0101628 0.00843579)
(20.1246 -0.0152844 0.00963673)
(20.123 -0.0198924 0.0107379)
(20.1234 -0.0273048 0.0120669)
(19.9999 -0.0019799 0.00021808)
(19.9991 -0.00630561 0.000717235)
(19.9971 -0.012066 0.00134665)
(19.9939 -0.0208266 0.0022166)
(19.9899 -0.034918 0.00348437)
(19.986 -0.0577948 0.00531334)
(19.9856 -0.0945986 0.0079931)
(19.9969 -0.149972 0.0117594)
(20.0358 -0.223768 0.0163162)
(20.1296 -0.296664 0.0200423)
(20.2777 -0.282323 0.0150765)
(20.4022 -0.136724 0.00356222)
(20.4206 0.0420338 -0.00772282)
(20.3399 0.152419 -0.0162101)
(20.2328 0.162191 -0.0189364)
(20.1683 0.111459 -0.0169811)
(20.1553 0.0704024 -0.0144767)
(20.1556 0.0499256 -0.0135034)
(20.1492 0.0313776 -0.0129476)
(20.1428 0.0125902 -0.0118047)
(20.1408 -0.00119805 -0.0101394)
(20.1397 -0.0111724 -0.00809475)
(20.137 -0.0210307 -0.00567613)
(20.1337 -0.0317106 -0.0029132)
(20.1307 -0.0422415 8.85615e-05)
(20.1281 -0.0518127 0.00320309)
(20.1257 -0.0602599 0.0063855)
(20.1244 -0.067419 0.00953696)
(20.1233 -0.0740371 0.0123619)
(20.1272 -0.080104 0.0162272)
(19.9998 -0.00211857 0.000235261)
(19.9984 -0.00675077 0.000778984)
(19.9949 -0.0129698 0.00148375)
(19.989 -0.022596 0.00249456)
(19.9801 -0.0385971 0.00406515)
(19.9681 -0.0659295 0.00650657)
(19.9558 -0.113246 0.0103741)
(19.9521 -0.191847 0.016342)
(19.9825 -0.311222 0.0244385)
(20.1088 -0.445629 0.0328421)
(20.3408 -0.42523 0.0206015)
(20.5267 -0.18542 -0.00208428)
(20.5283 0.0888688 -0.021769)
(20.3822 0.255376 -0.0339534)
(20.2146 0.257559 -0.0354487)
(20.1326 0.172781 -0.029496)
(20.1318 0.119513 -0.0212214)
(20.1392 0.0976137 -0.0135393)
(20.1321 0.0754542 -0.00633936)
(20.1267 0.0544172 6.94552e-05)
(20.1275 0.0420573 0.00494684)
(20.1279 0.0350698 0.00871419)
(20.1265 0.0276001 0.0120628)
(20.1268 0.017335 0.0153667)
(20.1307 0.00428258 0.0186913)
(20.1382 -0.0109577 0.0220844)
(20.1484 -0.0279542 0.0257539)
(20.1598 -0.044846 0.029857)
(20.1733 -0.064687 0.0340154)
(20.1885 -0.0860492 0.0415231)
(19.9998 -0.0020983 0.000253126)
(19.9976 -0.00668058 0.000840368)
(19.9926 -0.0128639 0.00161859)
(19.9835 -0.0225406 0.00277771)
(19.9687 -0.0391551 0.00469347)
(19.946 -0.0690554 0.00788554)
(19.9148 -0.126273 0.0134662)
(19.8828 -0.230821 0.0229569)
(19.8895 -0.440268 0.0379822)
(20.0624 -0.668886 0.053264)
(20.4308 -0.605222 0.021653)
(20.7068 -0.174924 -0.0113179)
(20.6807 0.190568 -0.04245)
(20.4392 0.413181 -0.0629619)
(20.181 0.348853 -0.0647361)
(20.082 0.196909 -0.0653755)
(20.1064 0.120624 -0.0686104)
(20.1246 0.0837671 -0.0688823)
(20.1162 0.0413746 -0.0631216)
(20.1149 0.000383366 -0.054225)
(20.1285 -0.0311818 -0.0445346)
(20.1451 -0.0584333 -0.0336474)
(20.1591 -0.086142 -0.0202585)
(20.1694 -0.114701 -0.00372835)
(20.1711 -0.142913 0.0157947)
(20.1574 -0.16941 0.0376052)
(20.1243 -0.192528 0.060949)
(20.0593 -0.211342 0.0842922)
(19.9981 -0.225688 0.107229)
(19.8037 -0.238718 0.13422)
(19.9997 -0.00192428 0.000268971)
(19.9969 -0.0060776 0.000902234)
(19.9903 -0.011667 0.00174988)
(19.978 -0.0204917 0.00301448)
(19.9569 -0.0359641 0.0052042)
(19.9208 -0.0648429 0.00920126)
(19.8624 -0.126212 0.0171671)
(19.7732 -0.252669 0.0314258)
(19.7063 -0.575729 0.0648119)
(19.9002 -0.813321 0.0384584)
(20.4677 -0.883757 0.00315223)
(21.0066 -0.310506 -0.0491612)
(20.9851 0.457111 -0.044687)
(20.6305 0.700734 -0.0477309)
(20.102 0.615718 -0.0469057)
(20.0402 0.366545 -0.00745372)
(20.1334 0.272254 0.0168155)
(20.1763 0.219953 0.0314048)
(20.1592 0.161156 0.0525115)
(20.1109 0.111805 0.0808101)
(20.0135 0.0759162 0.11022)
(19.846 0.0467435 0.138341)
(19.607 0.0219364 0.164525)
(19.3044 0.000886484 0.187512)
(18.9487 -0.0195076 0.205749)
(18.5541 -0.0437744 0.217951)
(18.1412 -0.0728083 0.22356)
(17.7242 -0.114883 0.223038)
(17.3594 -0.135893 0.216715)
(16.8969 -0.243131 0.197873)
(19.9996 -0.00160803 0.000281946)
(19.9963 -0.00500899 0.000950458)
(19.9884 -0.0094727 0.00186876)
(19.9734 -0.0162887 0.00324903)
(19.9463 -0.0284886 0.00553548)
(19.8965 -0.0518649 0.0102615)
(19.8042 -0.102801 0.0197184)
(19.6283 -0.236798 0.0457314)
(19.5471 -0.444539 0.0390264)
(19.5 -1.39955 0.0908661)
(20.7713 -1.33577 0.0314907)
(21.6579 -0.224122 -0.0109755)
(21.2776 0.80911 -0.123856)
(20.7474 1.13074 -0.0636531)
(17.0639 0.746747 0.498238)
(16.8718 0.298219 0.413373)
(16.6936 0.116858 0.4047)
(16.3127 0.0290112 0.384298)
(15.7851 -0.0465605 0.354059)
(15.219 -0.0938111 0.314711)
(14.6463 -0.123929 0.267403)
(14.0942 -0.15771 0.214196)
(13.6177 -0.201018 0.158376)
(13.2663 -0.252421 0.103248)
(13.0625 -0.312508 0.0519787)
(13.0065 -0.382114 0.00687425)
(13.0781 -0.458593 -0.0312516)
(13.2723 -0.540981 -0.0602196)
(13.472 -0.60226 -0.0899982)
(13.9738 -0.723632 -0.106515)
(19.9996 -0.00118452 0.000291197)
(19.9959 -0.00357967 0.000981497)
(19.9871 -0.00650868 0.00194094)
(19.9701 -0.0106803 0.00344939)
(19.9395 -0.0176035 0.00601617)
(19.8781 -0.0302762 0.0111899)
(19.7622 -0.0599219 0.0225659)
(19.4659 -0.136561 0.0569244)
(19.1833 -0.347311 0.0645515)
(18.6444 -1.41144 0.0567746)
(22.2776 -1.83513 0.0357865)
(22.6124 -0.289982 -0.255735)
(19.0928 0.473307 1.03401)
(15.1359 0.24538 0.641053)
(7.97162 0.86624 -0.511521)
(8.32832 0.352313 -0.843392)
(8.96841 0.211995 -0.882418)
(9.29369 0.134491 -0.82559)
(9.55988 0.0611937 -0.756279)
(9.93655 -0.00932571 -0.700336)
(10.3987 -0.0935729 -0.657855)
(10.9241 -0.196104 -0.622825)
(11.5096 -0.305078 -0.591272)
(12.136 -0.407498 -0.561499)
(12.7725 -0.497778 -0.532556)
(13.3937 -0.574873 -0.5041)
(13.9796 -0.640393 -0.476908)
(14.536 -0.691307 -0.449223)
(14.9873 -0.737392 -0.431645)
(15.6179 -0.761547 -0.39156)
(19.9996 -0.00070111 0.000295016)
(19.9958 -0.00195629 0.000994382)
(19.9867 -0.00313447 0.00196849)
(19.969 -0.00422084 0.0035007)
(19.9373 -0.0049592 0.00612571)
(19.8728 -0.00492015 0.0114397)
(19.7511 0.00128952 0.0231812)
(19.4285 0.0204033 0.0593706)
(19.0282 0.0245389 0.0747045)
(17.1926 0.0827521 0.112987)
(9.45084 1.11146 -6.47117)
(15.2226 1.88489 -2.16638)
(14.5971 1.7809 -0.94007)
(9.66558 0.40114 -0.266232)
(9.86989 0.545116 -0.597241)
(10.5533 0.455949 -0.713995)
(11.1254 0.308634 -0.747264)
(11.7354 0.168109 -0.746804)
(12.4379 0.0316575 -0.728006)
(13.1645 -0.0970135 -0.695823)
(13.8783 -0.208005 -0.652207)
(14.5612 -0.299232 -0.604636)
(15.1976 -0.371448 -0.558422)
(15.7721 -0.427694 -0.515996)
(16.2796 -0.471298 -0.477756)
(16.7211 -0.506713 -0.443988)
(17.1108 -0.53211 -0.412753)
(17.4188 -0.562568 -0.391311)
(17.8088 -0.563694 -0.353567)
(19.9996 -0.000213685 0.000293151)
(19.9959 -0.000329143 0.000988942)
(19.9871 0.000231339 0.0019481)
(19.9702 0.00209793 0.00340179)
(19.9399 0.0074377 0.00581852)
(19.8823 0.0197733 0.0109101)
(19.7729 0.0525364 0.0213134)
(19.5439 0.150344 0.0517331)
(19.2397 0.333774 0.0636728)
(18.3444 1.61865 0.193379)
(19.7407 3.18671 0.199837)
(14.9096 8.28705 1.8341)
(12.5951 5.32065 -0.782248)
(10.9888 3.97295 0.738935)
(14.3206 0.614109 0.856643)
(14.67 0.893846 0.59106)
(15.1545 0.859515 0.430495)
(15.601 0.757045 0.316986)
(16.1012 0.649209 0.230122)
(16.6631 0.527483 0.163021)
(17.2284 0.401362 0.110285)
(17.7538 0.284113 0.0662753)
(18.2254 0.182 0.0293451)
(18.6365 0.0941108 -0.0022556)
(18.9841 0.0195617 -0.0292141)
(19.2709 -0.0426421 -0.0520027)
(19.5044 -0.0949884 -0.0711257)
(19.6941 -0.137594 -0.0864114)
(19.8415 -0.178192 -0.100305)
(19.9914 -0.207189 -0.112338)
(19.9996 0.000223757 0.000287092)
(19.9962 0.00111827 0.000963299)
(19.9882 0.003161 0.00187614)
(19.9733 0.00765211 0.00324765)
(19.9471 0.0175493 0.00565329)
(19.9012 0.0380715 0.0102005)
(19.8203 0.0905675 0.0196685)
(19.6816 0.198949 0.0378978)
(19.4858 0.560194 0.0861894)
(19.3355 1.07624 0.10793)
(19.8904 1.97056 0.178617)
(21.3451 1.96963 0.244232)
(21.7952 0.79056 0.437465)
(21.2823 -0.0303879 0.414306)
(20.5279 0.0505626 0.286266)
(20.3365 0.150273 0.285302)
(20.3274 0.0906878 0.26295)
(20.3159 0.0136335 0.230486)
(20.2931 -0.0370933 0.196212)
(20.2878 -0.0788251 0.163209)
(20.2898 -0.113164 0.13248)
(20.2868 -0.134269 0.104539)
(20.2794 -0.144273 0.0792661)
(20.2702 -0.149032 0.0563171)
(20.2587 -0.151417 0.0357291)
(20.2446 -0.151789 0.0177117)
(20.2299 -0.150567 0.00238457)
(20.2171 -0.148279 -0.010298)
(20.2059 -0.147563 -0.0206811)
(20.2005 -0.142141 -0.0322646)
(19.9997 0.000565962 0.00027708)
(19.9967 0.00224452 0.000921857)
(19.9899 0.00533812 0.0017811)
(19.9775 0.011452 0.00308308)
(19.957 0.0238142 0.00529205)
(19.9236 0.0489691 0.00910359)
(19.8722 0.102101 0.0161815)
(19.8006 0.212149 0.0294453)
(19.7318 0.451316 0.053703)
(19.7988 0.847958 0.0966251)
(20.1862 1.08818 0.123527)
(20.6636 0.772691 0.127653)
(20.795 0.314984 0.105744)
(20.5726 -0.0124201 0.0767948)
(20.2923 -0.041705 0.0701979)
(20.1844 0.0227606 0.0608756)
(20.2024 0.034853 0.0463398)
(20.215 0.0287872 0.0305475)
(20.2035 0.0303892 0.0167486)
(20.1947 0.0293136 0.00541237)
(20.1925 0.0216356 -0.00393256)
(20.1887 0.0121365 -0.0114912)
(20.1821 0.00242647 -0.0174009)
(20.1749 -0.00883832 -0.0218623)
(20.1676 -0.021101 -0.0250345)
(20.1603 -0.0322386 -0.026969)
(20.1538 -0.041055 -0.0277226)
(20.1497 -0.0476841 -0.0274145)
(20.1468 -0.0529861 -0.026685)
(20.1511 -0.059807 -0.0255735)
(19.9997 0.000790464 0.000264387)
(19.9973 0.00293092 0.000875475)
(19.9919 0.00658365 0.00167698)
(19.9824 0.0134346 0.0028508)
(19.9676 0.0265519 0.00472793)
(19.9456 0.0514449 0.0077871)
(19.9164 0.099242 0.0129231)
(19.8846 0.187141 0.0217761)
(19.8718 0.340103 0.0359248)
(19.9493 0.570887 0.0581126)
(20.2002 0.715626 0.0717809)
(20.4961 0.541878 0.0669933)
(20.5934 0.212018 0.0507537)
(20.4695 -0.0290888 0.0313088)
(20.2954 -0.078372 0.02167)
(20.2124 -0.0304486 0.0172411)
(20.2118 -0.00706191 0.013108)
(20.2159 -0.0122922 0.00793474)
(20.2036 -0.0187573 0.00312259)
(20.1929 -0.0243875 -0.000728912)
(20.189 -0.0332401 -0.00413342)
(20.1854 -0.043397 -0.00734546)
(20.1795 -0.0526067 -0.0102016)
(20.1731 -0.0607408 -0.012507)
(20.1671 -0.0674737 -0.01423)
(20.1618 -0.0717404 -0.0154119)
(20.1572 -0.0732293 -0.016117)
(20.1543 -0.0726459 -0.0163723)
(20.1521 -0.0714402 -0.0165855)
(20.1563 -0.0705152 -0.0169218)
(19.9998 0.000877845 0.000250925)
(19.9979 0.00316278 0.000826186)
(19.9938 0.00688789 0.00156113)
(19.9871 0.0135924 0.00260205)
(19.9773 0.0258344 0.00417284)
(19.9645 0.0478432 0.006554)
(19.9506 0.0867901 0.0102588)
(19.9423 0.151983 0.0160815)
(19.9559 0.251918 0.0245336)
(20.0272 0.382531 0.0357073)
(20.1905 0.460609 0.0423923)
(20.3815 0.360835 0.0389019)
(20.465 0.155113 0.0284523)
(20.4079 0.000256455 0.0158501)
(20.3014 -0.0407877 0.00839951)
(20.2358 -0.0171084 0.00543198)
(20.2206 -0.00412009 0.00330232)
(20.216 -0.0103429 0.000650421)
(20.2046 -0.0153002 -0.00168568)
(20.1944 -0.0160371 -0.00336742)
(20.1893 -0.0182353 -0.00485534)
(20.1852 -0.0223913 -0.00634922)
(20.1795 -0.0262578 -0.00764152)
(20.1735 -0.0289742 -0.00853421)
(20.1683 -0.0305626 -0.00907133)
(20.1638 -0.0308271 -0.00937681)
(20.1599 -0.0298471 -0.00958011)
(20.1569 -0.0281283 -0.00967773)
(20.1548 -0.0267826 -0.00986272)
(20.1537 -0.0264097 -0.0101517)
(19.9998 0.000836507 0.00023801)
(19.9985 0.00296338 0.000778035)
(19.9956 0.00632176 0.00145207)
(19.9911 0.0121827 0.00237605)
(19.9854 0.0224976 0.00369439)
(19.9794 0.0402317 0.00557837)
(19.9758 0.0697433 0.00832989)
(19.9809 0.115834 0.0122999)
(20.006 0.179907 0.0174879)
(20.0691 0.253713 0.0235533)
(20.1829 0.29396 0.0271352)
(20.312 0.236913 0.0253824)
(20.3793 0.112605 0.0194512)
(20.356 0.00894558 0.0115297)
(20.2891 -0.0302674 0.0061639)
(20.2383 -0.0258641 0.00385872)
(20.2193 -0.0193387 0.00273664)
(20.2121 -0.021249 0.00153997)
(20.2027 -0.0222898 0.000334746)
(20.193 -0.0208252 -0.000668875)
(20.1866 -0.0209631 -0.00158247)
(20.1816 -0.0231997 -0.0024638)
(20.1761 -0.0254231 -0.00321137)
(20.1707 -0.0266568 -0.00375845)
(20.1659 -0.0271677 -0.00417672)
(20.1618 -0.0272024 -0.00455039)
(20.1582 -0.0268895 -0.00494388)
(20.155 -0.0264014 -0.00528455)
(20.1528 -0.0263135 -0.00566242)
(20.1513 -0.0269248 -0.00606734)
(19.9999 0.000683718 0.000226977)
(19.9989 0.00239577 0.000737458)
(19.997 0.00504129 0.00136257)
(19.9943 0.00955486 0.0021915)
(19.9916 0.0172792 0.0033251)
(19.9903 0.0301278 0.0048763)
(19.9933 0.05057 0.00699888)
(20.0058 0.080866 0.0098302)
(20.0355 0.120146 0.0132116)
(20.0918 0.161498 0.0167276)
(20.1777 0.181923 0.0185892)
(20.2708 0.149726 0.0173875)
(20.3255 0.0766895 0.0134206)
(20.3198 0.0104615 0.00814373)
(20.2782 -0.0186448 0.00422161)
(20.24 -0.0186546 0.00226164)
(20.2209 -0.0134077 0.00129468)
(20.2117 -0.0128833 0.00037798)
(20.2022 -0.0133401 -0.000570628)
(20.1925 -0.0127121 -0.00132007)
(20.1851 -0.0127304 -0.00185665)
(20.1797 -0.0137983 -0.00229648)
(20.1746 -0.0147254 -0.00269507)
(20.1696 -0.0149816 -0.00305576)
(20.1651 -0.0149204 -0.00339744)
(20.1611 -0.0148171 -0.00371744)
(20.1575 -0.0146907 -0.00403457)
(20.1542 -0.0144862 -0.00426782)
(20.152 -0.0145091 -0.00449539)
(20.1499 -0.0147112 -0.00475827)
(19.9999 0.000446368 0.000218592)
(19.9992 0.00155382 0.000707443)
(19.998 0.00324084 0.00129745)
(19.9965 0.00607547 0.00205981)
(19.9958 0.0108375 0.00307035)
(19.9974 0.018586 0.00440459)
(20.0042 0.030538 0.00614158)
(20.0205 0.0476578 0.00830918)
(20.052 0.068867 0.0107067)
(20.1035 0.0899071 0.0129376)
(20.1739 0.0992744 0.0139759)
(20.2472 0.0824193 0.0130499)
(20.2939 0.0440328 0.0101966)
(20.297 0.00749774 0.00644759)
(20.27 -0.0100936 0.00342425)
(20.2398 -0.0116365 0.00169832)
(20.221 -0.00943059 0.000812143)
(20.2104 -0.00960873 0.000126998)
(20.2009 -0.0104659 -0.00051384)
(20.1915 -0.010404 -0.000994036)
(20.184 -0.0102563 -0.0013152)
(20.1784 -0.0106232 -0.00159485)
(20.1734 -0.0111236 -0.00189282)
(20.1684 -0.0114798 -0.00218158)
(20.1639 -0.0118082 -0.00243223)
(20.1598 -0.0121605 -0.00262013)
(20.1562 -0.012443 -0.00277602)
(20.1529 -0.0125679 -0.00284682)
(20.1506 -0.0126565 -0.00294913)
(20.1487 -0.012859 -0.00301424)
(19.9999 0.00015519 0.00021429)
(19.9994 0.000538733 0.000692634)
(19.9985 0.00111877 0.00126595)
(19.9976 0.00208572 0.00199686)
(19.9979 0.00369471 0.00295005)
(20.0009 0.00628137 0.00418012)
(20.0094 0.0102122 0.00574252)
(20.0275 0.0157398 0.00761351)
(20.0595 0.0224042 0.00956386)
(20.1085 0.0288246 0.0112265)
(20.1721 0.0314922 0.0119137)
(20.2367 0.0262166 0.0110836)
(20.2795 0.0142771 0.00870584)
(20.2864 0.00263469 0.00563459)
(20.2659 -0.00326335 0.00301499)
(20.2397 -0.00406115 0.00137953)
(20.2213 -0.00347111 0.000486756)
(20.2103 -0.00348515 -0.000164381)
(20.2009 -0.00364029 -0.000771481)
(20.1917 -0.00343417 -0.00126945)
(20.184 -0.00317925 -0.00163155)
(20.1781 -0.00315382 -0.00192704)
(20.1729 -0.00326341 -0.00220113)
(20.1679 -0.00337472 -0.00243189)
(20.1633 -0.00346438 -0.00261348)
(20.1593 -0.00350619 -0.00274632)
(20.1558 -0.00345112 -0.00289361)
(20.1525 -0.0032738 -0.00299926)
(20.1503 -0.00304685 -0.00318702)
(20.1476 -0.00277704 -0.0033648)
(20.0001 -0.000278964 0.000532229)
(20.0006 -0.000874187 0.00166749)
(20.0019 -0.00164108 0.00297869)
(20.0045 -0.00275004 0.00459034)
(20.0094 -0.00440462 0.00659311)
(20.0182 -0.0068176 0.00902657)
(20.0335 -0.0101489 0.0118036)
(20.058 -0.0143288 0.014663)
(20.0941 -0.0186173 0.0169137)
(20.1419 -0.0213616 0.0176378)
(20.1955 -0.0200093 0.0155913)
(20.2412 -0.0126662 0.010151)
(20.2627 -0.00216757 0.00278719)
(20.2544 0.00614782 -0.00381821)
(20.227 0.00919249 -0.00757909)
(20.1984 0.00796396 -0.00815084)
(20.1793 0.00565462 -0.00687005)
(20.1685 0.00408957 -0.00526068)
(20.1605 0.00290664 -0.00377023)
(20.1535 0.00166057 -0.00220348)
(20.1483 0.000634163 -0.000540913)
(20.1448 2.91089e-05 0.00102422)
(20.1419 -0.000353854 0.00241936)
(20.1391 -0.000757839 0.00369643)
(20.1363 -0.00126152 0.00493241)
(20.1339 -0.00184745 0.00608315)
(20.1316 -0.0024696 0.00723271)
(20.1299 -0.00307615 0.00825829)
(20.1284 -0.00360327 0.00939774)
(20.1277 -0.00421728 0.0106221)
(20.0001 -0.000815001 0.00054467)
(20.0005 -0.00256049 0.0017118)
(20.0014 -0.0048203 0.00307151)
(20.0035 -0.0081059 0.00476582)
(20.0076 -0.013044 0.00691535)
(20.0155 -0.0203251 0.00959286)
(20.0297 -0.0305152 0.0127578)
(20.0537 -0.0435243 0.0161675)
(20.0908 -0.0572827 0.0190206)
(20.1421 -0.0665383 0.0201961)
(20.2019 -0.0626648 0.0179427)
(20.2532 -0.039079 0.0111836)
(20.2754 -0.00539407 0.00220139)
(20.2626 0.0208339 -0.00551694)
(20.2295 0.0298729 -0.00959567)
(20.1976 0.0253738 -0.0098699)
(20.1782 0.0179647 -0.00820259)
(20.1679 0.0132803 -0.00639527)
(20.16 0.00977695 -0.00476102)
(20.1529 0.00591598 -0.0030068)
(20.148 0.0025713 -0.00120255)
(20.1449 0.00042262 0.000418865)
(20.1422 -0.000962035 0.00187284)
(20.1393 -0.0021166 0.00331541)
(20.1365 -0.00323478 0.00482576)
(20.134 -0.00439436 0.00631922)
(20.1317 -0.0056021 0.00782823)
(20.13 -0.00683779 0.00921579)
(20.1285 -0.00791587 0.0106292)
(20.1281 -0.00948071 0.0122944)
(20 -0.00129608 0.000571839)
(20.0002 -0.00408041 0.00180569)
(20.0005 -0.00770752 0.00326707)
(20.0014 -0.0130333 0.00513506)
(20.0039 -0.0211604 0.00760076)
(20.0096 -0.0333909 0.0108226)
(20.0215 -0.0510489 0.0148796)
(20.0439 -0.0743644 0.0195722)
(20.0824 -0.100285 0.0239234)
(20.1409 -0.119409 0.0263026)
(20.2141 -0.113496 0.0235495)
(20.2777 -0.0688232 0.0138488)
(20.3009 -0.00573351 0.0012456)
(20.2779 0.0414199 -0.00877881)
(20.2322 0.055803 -0.0132573)
(20.1937 0.0455818 -0.0124314)
(20.1743 0.0316769 -0.00949283)
(20.1657 0.0236679 -0.00688575)
(20.1581 0.0177609 -0.00457758)
(20.151 0.0111963 -0.00207662)
(20.1468 0.00533537 0.000287139)
(20.1445 0.000915304 0.00210137)
(20.1422 -0.0027807 0.00348842)
(20.1395 -0.00620978 0.00477669)
(20.1368 -0.00934443 0.00617142)
(20.1344 -0.0122116 0.00766692)
(20.1321 -0.0149246 0.00933386)
(20.1303 -0.0175877 0.0110001)
(20.1289 -0.0198496 0.0127566)
(20.1281 -0.0228556 0.0151162)
(20 -0.00169361 0.000609669)
(19.9997 -0.00533971 0.0019375)
(19.9991 -0.0101266 0.00354541)
(19.9984 -0.0172523 0.00566822)
(19.9983 -0.0283761 0.00862284)
(20.0004 -0.0456282 0.0127255)
(20.008 -0.0716088 0.0183013)
(20.027 -0.107807 0.0253148)
(20.0665 -0.151234 0.0326147)
(20.1369 -0.187281 0.0375585)
(20.2345 -0.180266 0.033556)
(20.32 -0.103683 0.0181564)
(20.3436 0.000592817 -0.00039004)
(20.3018 0.0723118 -0.0142431)
(20.2345 0.0884592 -0.0194403)
(20.1857 0.0668931 -0.0169664)
(20.1676 0.0444959 -0.0124208)
(20.162 0.0329747 -0.00897445)
(20.155 0.0241299 -0.00553755)
(20.148 0.0152198 -0.00117569)
(20.1444 0.00884701 0.00334336)
(20.1425 0.00493005 0.00722092)
(20.1404 0.00150901 0.0104615)
(20.1379 -0.00210706 0.0133044)
(20.1354 -0.005618 0.015925)
(20.1332 -0.00894137 0.0183937)
(20.1311 -0.0122493 0.0208832)
(20.1296 -0.0157695 0.0232322)
(20.1282 -0.0190357 0.0255501)
(20.1294 -0.0245077 0.0284404)
(19.9999 -0.00197418 0.000655731)
(19.9991 -0.00623184 0.00210035)
(19.9973 -0.0118712 0.00389385)
(19.9944 -0.0204068 0.00635455)
(19.9908 -0.0340756 0.0099422)
(19.9875 -0.0562029 0.0152796)
(19.9879 -0.0915157 0.0232313)
(19.9998 -0.144195 0.034143)
(20.0383 -0.214398 0.0472698)
(20.127 -0.282069 0.0572435)
(20.2673 -0.276073 0.0479778)
(20.389 -0.144967 0.0216168)
(20.4092 0.0230394 -0.00523351)
(20.3337 0.128763 -0.0237995)
(20.2324 0.139593 -0.0283107)
(20.1708 0.0936156 -0.0219281)
(20.1575 0.0583506 -0.0149815)
(20.1569 0.0429498 -0.0118456)
(20.1508 0.0286736 -0.00958803)
(20.1452 0.0131616 -0.00638862)
(20.1439 0.00155709 -0.0029104)
(20.1433 -0.00672513 0.000495612)
(20.1412 -0.014754 0.00415464)
(20.1385 -0.0233334 0.00823399)
(20.136 -0.0316527 0.0126472)
(20.1339 -0.0391014 0.0172859)
(20.1317 -0.0455731 0.022236)
(20.1303 -0.0510142 0.0272655)
(20.129 -0.0559143 0.0320972)
(20.13 -0.0606242 0.038867)
(19.9998 -0.00211368 0.000707756)
(19.9984 -0.00667164 0.00228404)
(19.9952 -0.0127602 0.00429379)
(19.9896 -0.0221387 0.00716801)
(19.9814 -0.0375897 0.0115323)
(19.9705 -0.0638736 0.0185622)
(19.9596 -0.109026 0.0300534)
(19.9575 -0.183066 0.0472535)
(19.9882 -0.294724 0.0712176)
(20.1044 -0.420332 0.0923677)
(20.3213 -0.420911 0.0680749)
(20.5034 -0.200773 0.0167464)
(20.5105 0.0557314 -0.0272453)
(20.3741 0.212128 -0.0530706)
(20.2164 0.214631 -0.0534418)
(20.1401 0.127227 -0.0377036)
(20.1404 0.0693767 -0.0215818)
(20.1474 0.0470049 -0.00961601)
(20.1403 0.030043 0.00158081)
(20.135 0.0161441 0.0119586)
(20.136 0.0102035 0.0197881)
(20.1367 0.00891374 0.0258439)
(20.1349 0.00730111 0.0317334)
(20.1333 0.00357419 0.0379809)
(20.1332 -0.00217479 0.0443835)
(20.1345 -0.00949496 0.0506467)
(20.1368 -0.0180485 0.0568465)
(20.1402 -0.026882 0.0627292)
(20.1447 -0.0379199 0.0687612)
(20.1547 -0.0510868 0.0765083)
(19.9998 -0.00209644 0.000758325)
(19.9977 -0.00660329 0.00247434)
(19.9929 -0.0126431 0.00471898)
(19.9843 -0.0220957 0.00804365)
(19.9705 -0.038173 0.0133589)
(19.9495 -0.0669152 0.0225525)
(19.9212 -0.120802 0.0390103)
(19.8929 -0.218635 0.0669481)
(19.9014 -0.406984 0.109737)
(20.0522 -0.620713 0.153137)
(20.3951 -0.629765 0.0968371)
(20.6691 -0.210632 0.0132105)
(20.6512 0.131783 -0.0593969)
(20.4254 0.345216 -0.100128)
(20.1794 0.302434 -0.0939274)
(20.0829 0.176367 -0.0731321)
(20.1089 0.108381 -0.0624773)
(20.1331 0.0700401 -0.0546806)
(20.1331 0.0295285 -0.0407531)
(20.1372 -0.0053513 -0.0251989)
(20.1477 -0.028721 -0.0129826)
(20.1544 -0.0461922 -0.00255447)
(20.1555 -0.0623851 0.00930407)
(20.1539 -0.0784382 0.0241669)
(20.1505 -0.0941338 0.0421421)
(20.1439 -0.108805 0.0626565)
(20.1336 -0.121734 0.0854485)
(20.1137 -0.130608 0.109121)
(20.0987 -0.140757 0.135254)
(20.0293 -0.139741 0.169937)
(19.9997 -0.00191764 0.000803896)
(19.997 -0.00602146 0.00263831)
(19.9907 -0.0114799 0.0051144)
(19.979 -0.019989 0.00897935)
(19.9591 -0.0349329 0.0153166)
(19.9258 -0.0627868 0.0267889)
(19.8726 -0.120178 0.0501551)
(19.7944 -0.236101 0.093749)
(19.737 -0.522327 0.178722)
(19.835 -0.856001 0.211268)
(20.3116 -1.00813 0.140436)
(20.9105 -0.55451 -0.03408)
(20.8931 0.238818 -0.0626175)
(20.5697 0.523528 -0.113967)
(20.0801 0.378268 -0.152277)
(19.9814 0.109105 -0.0698066)
(20.0341 0.0339235 -0.0140284)
(20.0576 0.00525839 0.0212982)
(20.0484 -0.0264883 0.0639672)
(20.0384 -0.0432011 0.111534)
(20.0194 -0.0413085 0.157048)
(19.9776 -0.0296512 0.200787)
(19.9073 -0.0125559 0.245985)
(19.8048 0.0082965 0.292599)
(19.6641 0.0299905 0.338494)
(19.4824 0.0488841 0.38083)
(19.2631 0.0643093 0.417743)
(19.0005 0.0712537 0.446482)
(18.7593 0.0868533 0.469329)
(18.3032 0.0598274 0.478524)
(19.9996 -0.00160564 0.00084384)
(19.9964 -0.00494887 0.00276924)
(19.9888 -0.00934658 0.00539768)
(19.9744 -0.0160959 0.00972829)
(19.9488 -0.0276726 0.0171942)
(19.9029 -0.0498825 0.0311524)
(19.8195 -0.0973572 0.0608633)
(19.6669 -0.218223 0.129053)
(19.5171 -0.453757 0.198889)
(19.439 -1.30138 0.407102)
(20.3722 -1.47334 0.106102)
(21.355 -1.19623 -0.406097)
(21.0504 0.367832 -0.208583)
(20.8482 0.676079 -0.146283)
(19.0596 0.777095 0.161895)
(18.907 0.255029 0.239708)
(18.7874 0.102199 0.333247)
(18.4623 0.0523924 0.401961)
(18.0108 0.0137087 0.456985)
(17.5362 -0.0065415 0.490777)
(17.0694 -0.0123498 0.500337)
(16.6326 -0.0156391 0.492362)
(16.2558 -0.0187748 0.474419)
(15.9586 -0.0195173 0.450334)
(15.7434 -0.0190066 0.423013)
(15.602 -0.0204529 0.394615)
(15.5203 -0.0251762 0.365729)
(15.4906 -0.038388 0.337652)
(15.4944 -0.0358248 0.304216)
(15.5272 -0.0826115 0.268872)
(19.9996 -0.00118232 0.00086919)
(19.996 -0.00354885 0.00287034)
(19.9876 -0.00639824 0.0055856)
(19.9713 -0.0105099 0.0100018)
(19.9423 -0.01755 0.018102)
(19.8858 -0.030356 0.0335289)
(19.7816 -0.057535 0.0681066)
(19.5316 -0.128685 0.157246)
(19.1828 -0.338566 0.287382)
(18.3672 -1.42313 0.679268)
(21.6105 -2.15164 0.363993)
(23.2744 -4.9281 -3.32734)
(17.4237 1.47768 1.73828)
(21.6172 1.80359 -2.38758)
(9.626 1.49518 0.92578)
(11.1379 0.803534 0.506666)
(12.1815 0.513147 0.353294)
(12.6923 0.367548 0.278123)
(13.0089 0.271972 0.23051)
(13.2897 0.207195 0.181067)
(13.5325 0.156597 0.129323)
(13.7334 0.110379 0.0812969)
(13.9126 0.0693536 0.0391871)
(14.0836 0.0368363 0.00211956)
(14.249 0.0125616 -0.0304312)
(14.4109 -0.00620093 -0.058501)
(14.5692 -0.0222338 -0.0837394)
(14.7357 -0.03688 -0.105239)
(14.8712 -0.0481108 -0.132169)
(15.1028 -0.0611518 -0.15043)
(19.9996 -0.000702613 0.000880344)
(19.9959 -0.00194033 0.00290759)
(19.9871 -0.00311733 0.0056654)
(19.9702 -0.0041438 0.010155)
(19.9402 -0.00453565 0.0184401)
(19.8808 -0.00390606 0.0342755)
(19.7713 0.00120281 0.0700689)
(19.4992 0.0196638 0.164076)
(19.0452 0.023462 0.321946)
(16.9988 0.0846999 1.00775)
(1.37642 0.43729 -2.64587)
(10.0425 -2.07726 0.0895839)
(12.3088 -1.46635 -0.375876)
(13.8372 -1.15743 -0.571312)
(14.6687 -0.977921 -0.652428)
(15.1881 -0.85094 -0.683272)
(15.5762 -0.760903 -0.694608)
(15.8608 -0.696396 -0.691703)
(16.0599 -0.645512 -0.67524)
(16.2023 -0.602035 -0.649051)
(16.3073 -0.562668 -0.618525)
(16.3833 -0.526805 -0.586463)
(16.4377 -0.494515 -0.553393)
(16.4778 -0.46741 -0.520859)
(16.5146 -0.441594 -0.486791)
(16.538 -0.429825 -0.464626)
(16.5859 -0.387907 -0.414131)
(19.9996 -0.000215563 0.000876451)
(19.996 -0.000344339 0.00288018)
(19.9875 0.000220616 0.00562877)
(19.9713 0.00213275 0.0102017)
(19.9426 0.00699381 0.018166)
(19.8893 0.0185698 0.0333071)
(19.7908 0.0488484 0.0661478)
(19.5919 0.135616 0.1469)
(19.2373 0.320002 0.274054)
(18.4321 1.41317 0.842887)
(19.0998 3.68106 1.33542)
(21.875 3.19183 0.585331)
(20.9902 -1.86951 1.02472)
(18.9279 -1.92139 -1.95593)
(20.2102 -1.11476 0.148483)