/*--------------------------------*- C++ -*----------------------------------*\
| =========                 |                                                 |
| \\      /  F ield         | OpenFOAM: The Open Source CFD Toolbox           |
|  \\    /   O peration     | Version:  2512                                  |
|   \\  /    A nd           | Website:  www.openfoam.com                      |
|    \\/     M anipulation  |                                                 |
\*---------------------------------------------------------------------------*/
FoamFile
{
    version     2.0;
    format      ascii;
    arch        "LSB;label=32;scalar=64";
    class       volVectorField;
    location    "280";
    object      U;
}
// * * * * * * * * * * * * * * * * * * * * * * * * * * * * * * * * * * * * * //

dimensions      [0 1 -1 0 0 0 0];

internalField   nonuniform List<vector> 
84826
(
(20 -0.000227606 0.000208149)
(19.9999 -0.00074921 0.000667497)
(20 -0.00145881 0.00121366)
(20.0006 -0.00253959 0.00190237)
(20.0029 -0.00423796 0.00279145)
(20.0085 -0.00688425 0.0039314)
(20.0201 -0.0108635 0.00535023)
(20.0417 -0.0165039 0.00700812)
(20.0783 -0.0236678 0.00872919)
(20.1339 -0.0310021 0.0101853)
(20.2084 -0.0357975 0.0109062)
(20.2911 -0.0327365 0.010281)
(20.3568 -0.0198507 0.00795903)
(20.38 -0.00289431 0.00434992)
(20.357 0.00992016 0.000529288)
(20.3083 0.015342 -0.00238379)
(20.2587 0.0150671 -0.00383886)
(20.2206 0.0125522 -0.00411432)
(20.1938 0.00993575 -0.00383585)
(20.1739 0.00752577 -0.00333908)
(20.1586 0.00518302 -0.00265957)
(20.1477 0.00308363 -0.00181611)
(20.1406 0.00139979 -0.000912003)
(20.1363 5.00789e-05 -4.83407e-05)
(20.1337 -0.00113116 0.000727687)
(20.1324 -0.00221021 0.00141487)
(20.132 -0.00315372 0.00201974)
(20.1322 -0.00394266 0.00254432)
(20.1322 -0.00457745 0.00298065)
(20.1313 -0.00534726 0.00355967)
(20 -0.000662039 0.000211968)
(19.9998 -0.00218308 0.000681164)
(19.9995 -0.00425928 0.00124269)
(19.9995 -0.0074356 0.0019587)
(20.0009 -0.0124588 0.00289767)
(20.0051 -0.020353 0.00412673)
(20.0149 -0.0323723 0.0056992)
(20.0346 -0.0496502 0.00761151)
(20.0702 -0.0720611 0.00970366)
(20.1272 -0.0956052 0.011596)
(20.2078 -0.112003 0.0126993)
(20.3011 -0.102993 0.0121354)
(20.3752 -0.0618903 0.00959874)
(20.3983 -0.00829805 0.00530243)
(20.3683 0.0316475 0.0007153)
(20.3119 0.0479331 -0.00272151)
(20.2576 0.0463062 -0.0043189)
(20.2182 0.0381833 -0.00454086)
(20.1915 0.0301254 -0.004217)
(20.1717 0.0226437 -0.00369344)
(20.1567 0.0152495 -0.00295509)
(20.1462 0.00864899 -0.0020255)
(20.1396 0.00346622 -0.00103078)
(20.1355 -0.000508088 -7.35597e-05)
(20.133 -0.00372222 0.000814168)
(20.1317 -0.00631429 0.0016296)
(20.1314 -0.00820443 0.00236474)
(20.1316 -0.00930477 0.00301045)
(20.1315 -0.0099408 0.00353167)
(20.131 -0.0103704 0.00426971)
(19.9999 -0.00104096 0.000220045)
(19.9994 -0.00344169 0.000709809)
(19.9985 -0.00673717 0.00130364)
(19.9974 -0.0118203 0.00207749)
(19.9968 -0.0199563 0.0031226)
(19.9982 -0.0329573 0.00454327)
(20.0042 -0.0532187 0.00644561)
(20.0196 -0.0832155 0.00890401)
(20.0524 -0.123747 0.0118209)
(20.1116 -0.168521 0.01471)
(20.2052 -0.203239 0.0167542)
(20.3222 -0.188375 0.0163383)
(20.4148 -0.111223 0.0134377)
(20.437 -0.0133901 0.00773767)
(20.3915 0.0581647 0.00141398)
(20.318 0.0856218 -0.0032174)
(20.2538 0.0803493 -0.00506095)
(20.2119 0.0650981 -0.00505099)
(20.1855 0.051247 -0.00448496)
(20.166 0.0382589 -0.00373789)
(20.1512 0.0249334 -0.00274116)
(20.1416 0.0126877 -0.00158633)
(20.1361 0.00258004 -0.000464408)
(20.1329 -0.00581197 0.000562217)
(20.1311 -0.0131577 0.0015251)
(20.1304 -0.0195079 0.00245662)
(20.1307 -0.0245867 0.00333973)
(20.1315 -0.0282234 0.00414241)
(20.132 -0.0307167 0.004788)
(20.1297 -0.0329233 0.00580357)
(19.9999 -0.00133415 0.000230665)
(19.999 -0.00442471 0.000748934)
(19.9971 -0.00869773 0.00138766)
(19.9942 -0.0153641 0.00224353)
(19.9908 -0.0262192 0.00344373)
(19.9877 -0.0439943 0.00515408)
(19.9873 -0.0726493 0.00757712)
(19.995 -0.117001 0.010939)
(20.0215 -0.180606 0.0152957)
(20.0821 -0.256374 0.0200359)
(20.1976 -0.324209 0.0238654)
(20.3576 -0.301948 0.023938)
(20.4816 -0.171461 0.0208608)
(20.5008 -0.016596 0.0130853)
(20.4284 0.093563 0.00362803)
(20.3258 0.13137 -0.00330692)
(20.2459 0.11758 -0.00578067)
(20.2012 0.092615 -0.00570219)
(20.1758 0.0728811 -0.00492944)
(20.1564 0.0552331 -0.00361968)
(20.1417 0.0377321 -0.00166781)
(20.133 0.0226568 0.00050682)
(20.1287 0.010964 0.00242653)
(20.1262 0.00144788 0.00398866)
(20.1248 -0.00705341 0.00531883)
(20.1248 -0.0146618 0.00652227)
(20.1259 -0.021146 0.00762471)
(20.1275 -0.0261948 0.00859933)
(20.1283 -0.0302784 0.00939439)
(20.1282 -0.0335397 0.0106237)
(19.9998 -0.001513 0.000243061)
(19.9984 -0.00503559 0.000795487)
(19.9953 -0.00994616 0.00149109)
(19.9902 -0.0177124 0.00245112)
(19.983 -0.0306311 0.00385209)
(19.9736 -0.0524643 0.00595434)
(19.9638 -0.0892553 0.00912037)
(19.9583 -0.149703 0.0138557)
(19.972 -0.243299 0.0205119)
(20.0287 -0.366334 0.0285374)
(20.1797 -0.496653 0.0353223)
(20.4151 -0.468306 0.0362147)
(20.5883 -0.254241 0.0327091)
(20.5975 -0.0178862 0.0219151)
(20.4812 0.145863 0.0069091)
(20.3332 0.189474 -0.00353133)
(20.2314 0.156025 -0.00638917)
(20.1858 0.113009 -0.00649231)
(20.1637 0.0797379 -0.00658778)
(20.1455 0.0495259 -0.0057943)
(20.1322 0.0213348 -0.00347846)
(20.126 -0.00124249 -0.000340195)
(20.1237 -0.0179251 0.00275088)
(20.1222 -0.0310885 0.00548336)
(20.1212 -0.0423934 0.00789158)
(20.1215 -0.0522299 0.0100314)
(20.1231 -0.0610493 0.0119342)
(20.1254 -0.0688746 0.0136462)
(20.1276 -0.0773004 0.0150111)
(20.1295 -0.0833783 0.0175079)
(19.9998 -0.00155794 0.000256565)
(19.9978 -0.00520623 0.000845624)
(19.9933 -0.0103307 0.00160829)
(19.9857 -0.0185507 0.00269268)
(19.9738 -0.0325492 0.00433272)
(19.9563 -0.0570986 0.00691866)
(19.9329 -0.100765 0.0110684)
(19.9065 -0.178252 0.0177332)
(19.8952 -0.310329 0.0279722)
(19.9335 -0.507349 0.0408887)
(20.1403 -0.750861 0.0526399)
(20.5052 -0.710638 0.0584358)
(20.7511 -0.385871 0.0607778)
(20.7371 -0.0298453 0.0473883)
(20.5479 0.228659 0.0209018)
(20.327 0.277082 0.00211671)
(20.1952 0.222923 -0.00138783)
(20.1506 0.169314 0.000613426)
(20.1329 0.126277 0.00240815)
(20.1164 0.0816938 0.00470194)
(20.1061 0.0396229 0.00789009)
(20.1043 0.00677941 0.0112243)
(20.106 -0.0171088 0.0142396)
(20.1084 -0.0349901 0.0170693)
(20.1128 -0.048312 0.0199187)
(20.1209 -0.0576388 0.0228168)
(20.1328 -0.0653052 0.0257827)
(20.1469 -0.0715653 0.0288623)
(20.1624 -0.0851912 0.0317606)
(20.1912 -0.0912241 0.0371855)
(19.9997 -0.00146116 0.000269738)
(19.9972 -0.00490532 0.000894726)
(19.9913 -0.00976582 0.00172003)
(19.9809 -0.0176475 0.00294281)
(19.9638 -0.031369 0.00485774)
(19.9366 -0.0563839 0.00800002)
(19.895 -0.103543 0.013349)
(19.8371 -0.195649 0.0225367)
(19.7774 -0.371389 0.0373685)
(19.7733 -0.696483 0.0584354)
(20.0441 -1.14431 0.0716965)
(20.6164 -1.01678 0.0944811)
(20.9815 -0.613366 0.129161)
(20.9516 -0.108829 0.117504)
(20.648 0.306381 0.0760567)
(20.3109 0.31186 0.0399667)
(20.1476 0.194824 0.0210267)
(20.1094 0.117875 0.0125389)
(20.0919 0.0637131 0.0113411)
(20.0732 0.00550316 0.0168542)
(20.0719 -0.0486205 0.0270182)
(20.0878 -0.0917055 0.039)
(20.1105 -0.126564 0.0515629)
(20.134 -0.156221 0.0643805)
(20.1558 -0.180178 0.0770095)
(20.1711 -0.197645 0.088784)
(20.1772 -0.211425 0.0998369)
(20.1574 -0.221706 0.109395)
(20.1482 -0.243271 0.119831)
(20.0421 -0.253083 0.13173)
(19.9997 -0.00122927 0.000281129)
(19.9966 -0.0041471 0.000938751)
(19.9895 -0.00826224 0.00181808)
(19.9764 -0.014946 0.00315815)
(19.9542 -0.0267813 0.00534278)
(19.9166 -0.0489318 0.00913526)
(19.8531 -0.0933567 0.0157928)
(19.7503 -0.187927 0.028465)
(19.5999 -0.396858 0.0464393)
(19.4783 -0.889997 0.0846081)
(19.7503 -1.26225 0.022239)
(20.6534 -1.66552 0.00739408)
(21.3636 -0.894562 0.12177)
(21.3885 -0.33819 0.111047)
(20.8978 0.478772 0.278939)
(20.2994 0.531962 0.249863)
(20.0863 0.389612 0.242493)
(20.0505 0.293323 0.235851)
(20.0046 0.224223 0.234334)
(19.9277 0.148321 0.239813)
(19.8362 0.0696218 0.24492)
(19.726 -0.00575209 0.244324)
(19.5845 -0.0787074 0.237869)
(19.4075 -0.146775 0.227239)
(19.1965 -0.20313 0.214128)
(18.95 -0.24441 0.199837)
(18.6748 -0.270227 0.1868)
(18.3443 -0.292152 0.173945)
(18.0749 -0.296649 0.16871)
(17.5125 -0.327861 0.158151)
(19.9996 -0.000884134 0.000289733)
(19.9961 -0.00300207 0.000971271)
(19.988 -0.00594272 0.00189451)
(19.9729 -0.0106365 0.00332107)
(19.9466 -0.018956 0.00570101)
(19.8996 -0.0345484 0.0100679)
(19.8154 -0.0673699 0.0180512)
(19.6551 -0.140274 0.0344295)
(19.3761 -0.33157 0.0569907)
(18.9091 -0.855225 0.100656)
(19.0943 -1.67245 -0.0160846)
(20.8294 -2.62647 0.143744)
(21.6044 -2.25127 0.477937)
(22.2027 -1.74124 0.427856)
(17.716 -0.441139 0.861442)
(16.7436 -0.509369 0.539944)
(16.4054 -0.805906 0.372405)
(16.2731 -0.98642 0.238973)
(16.0495 -1.05011 0.135563)
(15.7511 -1.0431 0.0628972)
(15.4476 -0.991605 0.0097419)
(15.1512 -0.922473 -0.032211)
(14.858 -0.857009 -0.0643496)
(14.5762 -0.801347 -0.0868204)
(14.3135 -0.751854 -0.100983)
(14.0713 -0.706287 -0.108535)
(13.8455 -0.663524 -0.109103)
(13.6381 -0.639218 -0.107131)
(13.4705 -0.593077 -0.0956922)
(13.2912 -0.621152 -0.0880863)
(19.9996 -0.000461595 0.000294518)
(19.9959 -0.0015955 0.000989078)
(19.9872 -0.0030736 0.00193467)
(19.9709 -0.00526138 0.00340655)
(19.9422 -0.0089047 0.00588872)
(19.8897 -0.0154779 0.0105116)
(19.7926 -0.0290644 0.0191878)
(19.5916 -0.0591428 0.0385657)
(19.1923 -0.14258 0.0641881)
(18.273 -0.388382 0.112214)
(17.743 -1.22628 -0.223935)
(20.6973 -3.41716 -0.436339)
(21.5731 -6.6855 0.776274)
(10.7664 -1.85039 -0.752998)
(-0.223449 1.75704 -2.70532)
(3.11863 1.64735 -2.66146)
(6.2088 1.15202 -2.21188)
(8.42092 0.74239 -1.81201)
(9.70188 0.454412 -1.5047)
(10.4615 0.262623 -1.26684)
(10.991 0.132497 -1.08609)
(11.3922 0.0334977 -0.949942)
(11.7137 -0.052443 -0.843526)
(12.0002 -0.129953 -0.756786)
(12.2785 -0.198619 -0.685096)
(12.5545 -0.25781 -0.62561)
(12.8188 -0.310386 -0.576148)
(13.0934 -0.356504 -0.532285)
(13.3051 -0.391623 -0.500169)
(13.759 -0.448835 -0.453583)
(19.9996 -7.23133e-06 0.000295046)
(19.9959 -7.42878e-05 0.000990754)
(19.9871 4.408e-05 0.00193587)
(19.9707 0.000623507 0.00340586)
(19.9418 0.00218507 0.00588521)
(19.889 0.00599918 0.0105189)
(19.7913 0.0155741 0.019234)
(19.589 0.0392685 0.0386767)
(19.1869 0.111527 0.0644968)
(18.2599 0.33258 0.113075)
(17.3881 0.550786 -0.283279)
(19.8353 0.530164 -0.634779)
(-3.57169 -2.41582 -0.0904212)
(-0.0315794 -1.37998 -3.24385)
(2.65067 -0.685025 -3.05193)
(5.70395 -0.149201 -2.54541)
(8.17251 0.0291314 -2.14268)
(9.84304 0.0502091 -1.84513)
(11.0128 0.0361986 -1.61866)
(11.9046 0.012523 -1.44414)
(12.6146 -0.0212749 -1.30712)
(13.1996 -0.0601749 -1.19355)
(13.7063 -0.100111 -1.09531)
(14.1611 -0.141188 -1.00836)
(14.5701 -0.181943 -0.929913)
(14.9325 -0.221955 -0.857556)
(15.2558 -0.251428 -0.787327)
(15.5199 -0.283343 -0.731178)
(15.898 -0.301271 -0.628397)
(19.9996 0.000428007 0.000290933)
(19.9961 0.00138214 0.000978214)
(19.9878 0.00302191 0.0019014)
(19.9723 0.00619211 0.00331196)
(19.9454 0.0126315 0.00570316)
(19.8974 0.0256768 0.0101237)
(19.8117 0.0548175 0.0182151)
(19.6479 0.122065 0.034788)
(19.3612 0.304161 0.0578368)
(18.876 0.810533 0.102953)
(18.537 1.60304 -0.0511881)
(20.656 3.32299 -0.275415)
(21.6433 4.56203 0.381827)
(20.5402 3.00276 -0.474615)
(14.0281 0.809877 0.514657)
(12.2118 0.941761 -0.102611)
(11.2338 1.31073 -0.381601)
(11.0441 1.46376 -0.53918)
(11.1719 1.4767 -0.637709)
(11.6262 1.4182 -0.676676)
(12.2695 1.32437 -0.6759)
(12.9749 1.21706 -0.654233)
(13.6731 1.11191 -0.618334)
(14.3409 1.01154 -0.574744)
(14.9697 0.912101 -0.527087)
(15.5505 0.811781 -0.4776)
(16.0792 0.712704 -0.427488)
(16.5544 0.62106 -0.376485)
(16.9615 0.537032 -0.334579)
(17.4932 0.428931 -0.259495)
(19.9997 0.000799267 0.000283418)
(19.9965 0.00261744 0.000948319)
(19.989 0.00549762 0.00183522)
(19.9754 0.010736 0.00317792)
(19.9523 0.0207784 0.00539538)
(19.9133 0.040601 0.00926253)
(19.8473 0.0819346 0.0160548)
(19.7396 0.172144 0.0290044)
(19.5797 0.375132 0.0475387)
(19.4384 0.861166 0.0874943)
(19.4185 1.36631 0.0329933)
(20.6075 2.06359 0.0739799)
(21.2629 1.49138 0.305014)
(21.5751 0.910589 0.171407)
(21.1358 -0.00365298 0.247557)
(20.5048 -0.113854 0.24582)
(20.1046 -0.00691458 0.291347)
(19.85 0.0650038 0.323646)
(19.6341 0.100734 0.333919)
(19.4586 0.121165 0.326754)
(19.3443 0.126894 0.309334)
(19.2897 0.120148 0.287192)
(19.2838 0.106217 0.265487)
(19.3198 0.0856859 0.245952)
(19.3869 0.0565218 0.228933)
(19.4728 0.0179873 0.214309)
(19.5661 -0.0259125 0.20127)
(19.657 -0.0691801 0.189046)
(19.7415 -0.111772 0.179177)
(19.8308 -0.145328 0.161243)
(19.9997 0.00106711 0.000273433)
(19.997 0.00350475 0.000907855)
(19.9907 0.00724583 0.00174829)
(19.9796 0.0138401 0.00299623)
(19.9613 0.0260184 0.00495563)
(19.9323 0.0491039 0.00817156)
(19.8878 0.0938863 0.0136602)
(19.8246 0.18301 0.0231298)
(19.7554 0.3562 0.0386177)
(19.7346 0.680677 0.0610352)
(19.9749 1.13745 0.0774185)
(20.5083 1.05317 0.105348)
(20.8615 0.716662 0.153429)
(20.8694 0.287915 0.144716)
(20.6175 -0.149984 0.105988)
(20.3106 -0.192385 0.0752267)
(20.1709 -0.068124 0.0644802)
(20.1618 0.0447502 0.0617618)
(20.1771 0.122281 0.0588447)
(20.1849 0.171452 0.054475)
(20.1891 0.19392 0.0487491)
(20.1907 0.19695 0.0415703)
(20.1878 0.190081 0.0333772)
(20.1827 0.177936 0.0247427)
(20.1787 0.16106 0.016208)
(20.1767 0.139627 0.00786905)
(20.1761 0.115617 0.000115348)
(20.1742 0.0916819 -0.00681651)
(20.173 0.0715917 -0.0134047)
(20.1635 0.0445441 -0.0189722)
(19.9998 0.00120963 0.000261117)
(19.9976 0.00396976 0.000863311)
(19.9926 0.00811439 0.00164491)
(19.9841 0.0152245 0.00275749)
(19.9709 0.0279247 0.00444248)
(19.9513 0.050932 0.00710785)
(19.9248 0.092865 0.0114067)
(19.8933 0.168607 0.0183607)
(19.8738 0.300018 0.029195)
(19.8994 0.499783 0.0432651)
(20.0868 0.754709 0.057188)
(20.4299 0.745516 0.0668521)
(20.6693 0.473553 0.0766965)
(20.6758 0.162606 0.0686522)
(20.5218 -0.0803726 0.0429689)
(20.3307 -0.1254 0.0224139)
(20.2189 -0.0677819 0.0169022)
(20.1859 -0.0165288 0.0180436)
(20.1763 0.00783921 0.0204219)
(20.1678 0.0152804 0.0235104)
(20.1637 0.0112376 0.0269337)
(20.1643 -1.44291e-05 0.0297103)
(20.1655 -0.0135968 0.0313425)
(20.1658 -0.0269041 0.0318182)
(20.1663 -0.0398888 0.0312378)
(20.1681 -0.0529936 0.0296502)
(20.1706 -0.0658818 0.0271753)
(20.1724 -0.0777367 0.0239867)
(20.1725 -0.0874271 0.0204466)
(20.172 -0.0980164 0.0154946)
(19.9998 0.00121815 0.000248403)
(19.9982 0.0039898 0.000815991)
(19.9945 0.00807872 0.00153252)
(19.9885 0.0149309 0.00252317)
(19.9798 0.026813 0.00397365)
(19.9683 0.0474823 0.00616104)
(19.9552 0.0830956 0.00947605)
(19.945 0.142641 0.0144828)
(19.9519 0.236573 0.0216404)
(19.9989 0.362868 0.0305726)
(20.1372 0.502517 0.0389459)
(20.3603 0.494889 0.0423154)
(20.5305 0.314266 0.0427816)
(20.5538 0.108192 0.0354126)
(20.4621 -0.0423299 0.0216408)
(20.3364 -0.0867919 0.0107112)
(20.25 -0.0627532 0.00672451)
(20.213 -0.033044 0.00578216)
(20.1964 -0.0141452 0.00534467)
(20.1847 0.00029969 0.00533197)
(20.1784 0.0123348 0.00551475)
(20.1772 0.0207492 0.00521202)
(20.1773 0.0260028 0.00415131)
(20.1766 0.0293009 0.00251264)
(20.1758 0.0309201 0.000551268)
(20.1759 0.0305073 -0.00158248)
(20.1768 0.0277907 -0.00378899)
(20.1768 0.0231242 -0.00600146)
(20.1768 0.0176113 -0.00802997)
(20.1677 0.00882422 -0.0102309)
(19.9999 0.00109853 0.00023656)
(19.9987 0.00359001 0.000771525)
(19.9962 0.00721348 0.00143278)
(19.9923 0.0131696 0.00232161)
(19.9874 0.0232413 0.003574)
(19.9821 0.04018 0.00537064)
(19.9787 0.0680694 0.00793805)
(19.982 0.112008 0.011545)
(20.0028 0.176271 0.0163264)
(20.0559 0.254907 0.0217584)
(20.1628 0.329872 0.0267611)
(20.3154 0.321183 0.0284422)
(20.4383 0.211093 0.0275914)
(20.4673 0.0752423 0.0220315)
(20.4117 -0.0263179 0.0137602)
(20.3256 -0.0651083 0.00694419)
(20.2584 -0.0580286 0.00398448)
(20.2225 -0.0411617 0.00332854)
(20.2034 -0.0279814 0.00329203)
(20.1903 -0.0167042 0.00348447)
(20.182 -0.00741022 0.00376386)
(20.1779 -0.00220289 0.00383388)
(20.1755 -0.000968266 0.00356919)
(20.1732 -0.00201816 0.00308952)
(20.1711 -0.00426512 0.00253768)
(20.17 -0.00765686 0.00197276)
(20.1697 -0.0124073 0.00139302)
(20.1693 -0.0184032 0.000811327)
(20.1683 -0.0242739 0.000198188)
(20.1652 -0.032156 -0.000523019)
(19.9999 0.000868858 0.000226359)
(19.9991 0.00283324 0.000733987)
(19.9976 0.00566008 0.00135178)
(19.9954 0.0102387 0.00216024)
(19.9933 0.0178314 0.00325898)
(19.9924 0.0302769 0.00476582)
(19.9955 0.0500743 0.00680648)
(20.007 0.0799186 0.00948896)
(20.0348 0.121095 0.0127668)
(20.0881 0.168051 0.0162099)
(20.1755 0.207694 0.0191102)
(20.2879 0.201407 0.019818)
(20.3805 0.136487 0.0183572)
(20.41 0.0502665 0.0141099)
(20.3771 -0.0153596 0.00867666)
(20.3168 -0.0424469 0.00423735)
(20.2639 -0.0400811 0.00207372)
(20.2306 -0.0289533 0.00139784)
(20.2106 -0.0190309 0.0010933)
(20.1964 -0.0106241 0.000852788)
(20.1863 -0.00388015 0.000708266)
(20.1802 8.41357e-05 0.000581703)
(20.1763 0.00155905 0.000373641)
(20.1733 0.00185714 7.78795e-05)
(20.171 0.001748 -0.000261772)
(20.1695 0.0011569 -0.000630189)
(20.1688 -0.00022655 -0.00104208)
(20.168 -0.00227291 -0.00150796)
(20.1673 -0.00448587 -0.00201939)
(20.1633 -0.00709305 -0.00278519)
(20 0.000555901 0.000218461)
(19.9995 0.00180923 0.000706173)
(19.9985 0.00360096 0.00129262)
(19.9975 0.0064753 0.00204432)
(19.9973 0.0111795 0.00303775)
(19.9993 0.0187578 0.00435236)
(20.0062 0.0305316 0.00605832)
(20.0223 0.0477699 0.00817878)
(20.0535 0.0706284 0.0105905)
(20.1055 0.0955199 0.0129476)
(20.1814 0.114774 0.0147177)
(20.2715 0.110487 0.0150071)
(20.3462 0.0758906 0.0134946)
(20.3752 0.0284899 0.0102035)
(20.3554 -0.00813044 0.00627617)
(20.3101 -0.0241274 0.00303676)
(20.2658 -0.0241742 0.00125712)
(20.2344 -0.0188489 0.000569208)
(20.2137 -0.0139481 0.000281475)
(20.1987 -0.0100025 0.000138897)
(20.1876 -0.00688397 0.000142648)
(20.1803 -0.00501924 0.000224045)
(20.1756 -0.00432655 0.000264252)
(20.1722 -0.00424347 0.000207788)
(20.1696 -0.00446971 6.99695e-05)
(20.1677 -0.00509433 -0.000122863)
(20.1664 -0.00625233 -0.000367747)
(20.1654 -0.00787716 -0.000645702)
(20.1644 -0.00951117 -0.000982275)
(20.1616 -0.0119057 -0.00141368)
(20 0.000191145 0.000214552)
(19.9996 0.000621329 0.000692655)
(19.999 0.00123473 0.00126421)
(19.9986 0.00221447 0.00198923)
(19.9993 0.00380745 0.00293333)
(20.0027 0.00635129 0.00415878)
(20.0114 0.0102543 0.00570933)
(20.0296 0.0158897 0.00756868)
(20.062 0.0232115 0.00958917)
(20.1132 0.0309986 0.011469)
(20.1835 0.0367264 0.0127704)
(20.2637 0.035173 0.0128749)
(20.3303 0.0243163 0.0113934)
(20.3589 0.00928932 0.00858361)
(20.345 -0.00247486 0.00529878)
(20.3067 -0.0078164 0.00254754)
(20.2666 -0.00811391 0.000925218)
(20.2364 -0.0065733 0.000224094)
(20.2155 -0.00505118 -8.46464e-05)
(20.2002 -0.0037554 -0.000264077)
(20.1889 -0.00260246 -0.000348749)
(20.1813 -0.00171375 -0.000388506)
(20.1763 -0.00111645 -0.000472859)
(20.1727 -0.000691813 -0.000639044)
(20.1699 -0.000371916 -0.000867142)
(20.1678 -0.000171193 -0.00112336)
(20.1665 -0.000119161 -0.00140028)
(20.1654 -0.000125974 -0.00168358)
(20.1644 -0.000209773 -0.00199615)
(20.1611 -8.58128e-05 -0.00238655)
(20 -0.000227805 0.000628271)
(20 -0.000742284 0.00196309)
(20.0001 -0.00143889 0.00352509)
(20.0009 -0.00249637 0.00549098)
(20.0034 -0.00415292 0.00803985)
(20.0092 -0.00672504 0.0113418)
(20.021 -0.0105801 0.0154907)
(20.0427 -0.0160028 0.0204689)
(20.0792 -0.0228751 0.0258856)
(20.1345 -0.0299196 0.0306568)
(20.2082 -0.0343705 0.0331086)
(20.2897 -0.0313253 0.0312659)
(20.3545 -0.0188064 0.0242453)
(20.3771 -0.00247451 0.0137478)
(20.3543 0.00967876 0.00331593)
(20.3067 0.0146497 -0.00383567)
(20.2582 0.0142588 -0.00683045)
(20.2208 0.0117779 -0.00693086)
(20.1941 0.00916507 -0.00579201)
(20.1741 0.00672579 -0.00421878)
(20.1589 0.0043688 -0.00225377)
(20.1482 0.00226976 4.30443e-05)
(20.1415 0.000584306 0.00239379)
(20.1376 -0.000765224 0.00455723)
(20.1357 -0.00192455 0.00646418)
(20.1352 -0.00295111 0.00810988)
(20.1357 -0.00381643 0.00950252)
(20.1371 -0.00450216 0.0106395)
(20.138 -0.00505352 0.0115702)
(20.139 -0.0055766 0.0126525)
(20 -0.00066184 0.000639014)
(19.9998 -0.00216139 0.00200156)
(19.9996 -0.00419955 0.00360691)
(19.9998 -0.00730754 0.00564889)
(20.0014 -0.0122062 0.00833589)
(20.0059 -0.0198781 0.0118837)
(20.016 -0.0315193 0.0164575)
(20.0359 -0.0481273 0.0221157)
(20.0715 -0.0696139 0.0285449)
(20.1282 -0.0922153 0.0346061)
(20.2079 -0.10751 0.0383654)
(20.2997 -0.0986496 0.0369806)
(20.3727 -0.0586341 0.0291419)
(20.3953 -0.00692146 0.0170509)
(20.3659 0.0308304 0.00490019)
(20.311 0.0456253 -0.00335096)
(20.2583 0.0437243 -0.00660697)
(20.2198 0.0358895 -0.00659454)
(20.1933 0.0280682 -0.00542049)
(20.1736 0.020748 -0.00388138)
(20.1586 0.0135437 -0.00188985)
(20.1482 0.00710643 0.000470007)
(20.1417 0.00198313 0.00286593)
(20.1378 -0.00200459 0.00509017)
(20.1356 -0.00522856 0.00711094)
(20.1348 -0.00780135 0.00893585)
(20.135 -0.00964285 0.0105517)
(20.1359 -0.0106908 0.0119278)
(20.1364 -0.0113214 0.0130547)
(20.1373 -0.0115654 0.0145349)
(19.9999 -0.00104037 0.000660773)
(19.9995 -0.00340704 0.00207934)
(19.9986 -0.00664167 0.00377238)
(19.9977 -0.0116127 0.00596904)
(19.9974 -0.0195401 0.00893839)
(19.9992 -0.0321592 0.0129954)
(20.0056 -0.0517638 0.0184684)
(20.0215 -0.080573 0.0255883)
(20.0545 -0.119347 0.0342249)
(20.1134 -0.162262 0.0432331)
(20.2056 -0.194789 0.0499471)
(20.3205 -0.180101 0.0494481)
(20.4115 -0.10446 0.0397415)
(20.4329 -0.00962487 0.0242921)
(20.3882 0.0577458 0.0082003)
(20.317 0.0821989 -0.00256897)
(20.2551 0.0762963 -0.00623472)
(20.2143 0.0613917 -0.0057109)
(20.1881 0.0479059 -0.00413351)
(20.1686 0.0354831 -0.00220882)
(20.154 0.0230347 0.000322226)
(20.1444 0.0116639 0.00316071)
(20.1389 0.00214123 0.00580419)
(20.1359 -0.00593564 0.00809942)
(20.1344 -0.0130871 0.0101553)
(20.1342 -0.0192428 0.0120554)
(20.135 -0.024097 0.0137859)
(20.1365 -0.0274713 0.0152557)
(20.1375 -0.029771 0.0164697)
(20.1368 -0.0313047 0.0181804)
(19.9999 -0.00133375 0.000690632)
(19.999 -0.00438069 0.00218706)
(19.9973 -0.00857348 0.00400345)
(19.9947 -0.0150895 0.00642194)
(19.9916 -0.0256588 0.00980653)
(19.9891 -0.0428886 0.0146338)
(19.9895 -0.070563 0.0215182)
(19.9979 -0.113063 0.0310472)
(20.0251 -0.173751 0.043542)
(20.0854 -0.246253 0.0579808)
(20.1989 -0.309923 0.0698356)
(20.3556 -0.287105 0.0708078)
(20.4771 -0.157289 0.0586765)
(20.4948 -0.00630304 0.038232)
(20.4232 0.0965152 0.0150144)
(20.3242 0.129287 -0.000641737)
(20.2479 0.114707 -0.00523458)
(20.2047 0.0896415 -0.00433565)
(20.1796 0.0691585 -0.00246512)
(20.1605 0.0512408 0.000397125)
(20.1462 0.0344564 0.00475139)
(20.1375 0.0205412 0.00960292)
(20.133 0.00987019 0.0138935)
(20.1306 0.00105883 0.0173986)
(20.1295 -0.00697416 0.0204123)
(20.1301 -0.0142843 0.0231219)
(20.1319 -0.0205483 0.025552)
(20.1344 -0.0253837 0.0275847)
(20.136 -0.029312 0.0293049)
(20.1379 -0.0317777 0.0315892)
(19.9998 -0.00151295 0.000727316)
(19.9985 -0.0049866 0.00231399)
(19.9955 -0.00980404 0.00427961)
(19.9908 -0.017387 0.00697792)
(19.984 -0.0299502 0.0109001)
(19.9755 -0.0510767 0.0167639)
(19.9668 -0.0865176 0.0256484)
(19.9629 -0.144259 0.038783)
(19.9779 -0.233364 0.057501)
(20.0347 -0.350733 0.0806268)
(20.1823 -0.473737 0.101625)
(20.4143 -0.442254 0.106608)
(20.5831 -0.221826 0.0939786)
(20.5887 0.0100264 0.0665645)
(20.4734 0.15912 0.0300265)
(20.3316 0.192545 0.00559699)
(20.2348 0.158575 -4.95859e-05)
(20.1903 0.117491 0.000576132)
(20.1682 0.0851294 0.000632949)
(20.1507 0.0556315 0.00228897)
(20.1384 0.028359 0.00694808)
(20.1324 0.0066151 0.0128882)
(20.13 -0.00942049 0.0183877)
(20.1285 -0.0219843 0.0231022)
(20.1279 -0.0326802 0.0273158)
(20.1288 -0.0419837 0.03115)
(20.1313 -0.050302 0.0346078)
(20.1344 -0.0576355 0.0375386)
(20.1375 -0.0653809 0.0401811)
(20.14 -0.0704046 0.0438568)
(19.9998 -0.00155906 0.000766876)
(19.9979 -0.005152 0.00245274)
(19.9936 -0.0101801 0.00456939)
(19.9863 -0.018207 0.00757566)
(19.9751 -0.0317938 0.0121307)
(19.9588 -0.0555003 0.0192783)
(19.9373 -0.0974264 0.0307743)
(19.9137 -0.171299 0.0491048)
(19.905 -0.296699 0.0768796)
(19.9438 -0.484117 0.114005)
(20.1474 -0.723395 0.152915)
(20.5113 -0.667383 0.169763)
(20.7536 -0.314244 0.164633)
(20.7286 0.038758 0.128015)
(20.5383 0.273654 0.063684)
(20.3294 0.299409 0.0208525)
(20.2082 0.231423 0.0141832)
(20.1657 0.170498 0.0188049)
(20.1474 0.12626 0.0223074)
(20.1312 0.0850975 0.0272884)
(20.1212 0.0477584 0.0348717)
(20.119 0.018996 0.0425913)
(20.1196 -0.00176478 0.049048)
(20.1204 -0.0171597 0.054583)
(20.1222 -0.0285513 0.0596974)
(20.1264 -0.0365375 0.0644049)
(20.1332 -0.042833 0.0688174)
(20.1412 -0.0480599 0.0726808)
(20.1501 -0.0581966 0.0770201)
(20.1679 -0.0610219 0.0816674)
(19.9997 -0.00146295 0.000804666)
(19.9973 -0.00485853 0.00259196)
(19.9916 -0.00961471 0.0048633)
(19.9817 -0.0173165 0.00814481)
(19.9655 -0.0306461 0.0133508)
(19.9399 -0.0547118 0.0219383)
(19.9012 -0.0997967 0.0366373)
(19.8476 -0.187319 0.0618775)
(19.7931 -0.354216 0.102817)
(19.7884 -0.666893 0.161887)
(20.0596 -1.13294 0.231978)
(20.6468 -0.927363 0.285112)
(21.0049 -0.445687 0.324607)
(20.9469 0.0358864 0.277958)
(20.6368 0.405779 0.159646)
(20.3136 0.410435 0.0786261)
(20.1646 0.294799 0.0489511)
(20.1337 0.209522 0.0387332)
(20.1228 0.149408 0.0381686)
(20.1087 0.090681 0.0479066)
(20.1019 0.0350765 0.0617696)
(20.1039 -0.0126296 0.0739527)
(20.1102 -0.0528874 0.0842275)
(20.1186 -0.0868178 0.0944171)
(20.1296 -0.113046 0.105656)
(20.1414 -0.13062 0.117771)
(20.151 -0.142029 0.131244)
(20.15 -0.147792 0.144376)
(20.1541 -0.162503 0.162747)
(20.1205 -0.160493 0.181624)
(19.9997 -0.0012328 0.000838095)
(19.9967 -0.00410975 0.00271245)
(19.9898 -0.00814462 0.00514233)
(19.9774 -0.0146464 0.00868189)
(19.9563 -0.0261476 0.0144247)
(19.9209 -0.0475932 0.0241728)
(19.8614 -0.0899591 0.0422574)
(19.7646 -0.179834 0.0754717)
(19.6227 -0.37631 0.133528)
(19.4877 -0.878921 0.224494)
(19.6285 -1.49532 0.248024)
(20.6001 -1.9178 0.32544)
(21.2966 -0.792754 0.598262)
(21.2341 -0.224946 0.677339)
(20.738 0.732787 0.476274)
(20.2239 0.605256 0.356437)
(20.0504 0.4026 0.331624)
(20.0437 0.297294 0.315999)
(20.0401 0.25198 0.313726)
(20.0196 0.221982 0.332371)
(20.0024 0.198139 0.358511)
(19.9876 0.176066 0.379643)
(19.9597 0.149951 0.395914)
(19.9071 0.119928 0.410497)
(19.8201 0.0914567 0.423804)
(19.6904 0.0693809 0.434383)
(19.5176 0.0563933 0.443484)
(19.2818 0.0454529 0.447871)
(19.07 0.0441733 0.462883)
(18.5917 0.0311546 0.46217)
(19.9996 -0.00088907 0.000863327)
(19.9963 -0.00298207 0.0028033)
(19.9884 -0.00586612 0.00534488)
(19.974 -0.0104483 0.00913075)
(19.949 -0.0185181 0.0153352)
(19.9049 -0.0334165 0.025989)
(19.826 -0.0647413 0.0467232)
(19.6747 -0.134268 0.0867974)
(19.4004 -0.315969 0.161416)
(18.8563 -0.856693 0.294821)
(18.6942 -2.10829 0.260654)
(20.4833 -3.58188 0.134867)
(21.6898 -1.22378 1.41327)
(21.5468 -1.04277 1.98027)
(19.4682 1.77601 1.10004)
(18.9934 1.27958 0.704035)
(18.9608 0.76594 0.611977)
(19.0085 0.423064 0.558094)
(18.932 0.211204 0.525197)
(18.7487 0.0768354 0.520685)
(18.5034 -0.00669231 0.525988)
(18.2032 -0.0601668 0.526226)
(17.8456 -0.0992348 0.519753)
(17.4387 -0.129338 0.506908)
(16.9971 -0.148978 0.487139)
(16.5369 -0.157985 0.460975)
(16.0706 -0.156122 0.431023)
(15.6416 -0.154782 0.397239)
(15.257 -0.131345 0.373731)
(14.882 -0.161299 0.32121)
(19.9996 -0.000468147 0.000877345)
(19.996 -0.00159339 0.00285622)
(19.9876 -0.00304581 0.00545937)
(19.9721 -0.00518026 0.00938047)
(19.9448 -0.0086939 0.015909)
(19.8954 -0.0149827 0.0274188)
(19.8046 -0.027791 0.0498079)
(19.616 -0.0549763 0.09411)
(19.2129 -0.13522 0.178543)
(18.0771 -0.398743 0.332295)
(16.1939 -1.67324 -0.0264129)
(19.2034 -11.3694 -4.27108)
(15.9406 -5.78433 12.7078)
(3.79511 -4.33261 0.27269)
(8.35803 3.17812 -2.06125)
(11.0944 2.77508 -2.03655)
(13.1785 2.20134 -1.57159)
(14.5795 1.76671 -1.17232)
(15.375 1.45464 -0.873191)
(15.8086 1.228 -0.644636)
(16.0544 1.0604 -0.476403)
(16.1829 0.92476 -0.358659)
(16.2331 0.80388 -0.276539)
(16.2423 0.689872 -0.221321)
(16.2396 0.580829 -0.189986)
(16.2416 0.476824 -0.178759)
(16.2512 0.373953 -0.182078)
(16.2852 0.272129 -0.191222)
(16.3088 0.181313 -0.207137)
(16.4535 0.0411274 -0.227404)
(19.9996 -1.57386e-05 0.000879079)
(19.996 -9.21238e-05 0.00286224)
(19.9876 8.20784e-06 0.00547686)
(19.9719 0.000539974 0.00940661)
(19.9444 0.00204549 0.0158851)
(19.8947 0.00568899 0.0273044)
(19.8034 0.0146281 0.0497319)
(19.6136 0.0356915 0.094193)
(19.2079 0.105266 0.179012)
(18.0647 0.345259 0.3341)
(15.5774 0.79579 -0.133486)
(-1.0167 0.60286 -3.32717)
(8.68397 -2.98483 -2.15164)
(11.0044 -2.43798 -2.06661)
(13.0018 -1.74739 -1.68828)
(14.4719 -1.27387 -1.38429)
(15.4226 -0.979742 -1.16519)
(16.0547 -0.791289 -1.00198)
(16.5129 -0.667635 -0.884406)
(16.8588 -0.589497 -0.801633)
(17.1274 -0.540612 -0.738715)
(17.3485 -0.511711 -0.688204)
(17.5407 -0.498768 -0.648382)
(17.7085 -0.498008 -0.617765)
(17.8509 -0.50708 -0.59296)
(17.971 -0.514888 -0.569363)
(18.0675 -0.535121 -0.551292)
(18.1853 -0.53652 -0.504928)
(19.9996 0.000419248 0.000869138)
(19.9962 0.00133834 0.00281437)
(19.9882 0.00295876 0.00540103)
(19.9734 0.00605175 0.00921181)
(19.9479 0.0122383 0.0153983)
(19.9028 0.0246087 0.0260607)
(19.8223 0.0523194 0.0469793)
(19.6678 0.116408 0.0875249)
(19.3864 0.289259 0.163265)
(18.8242 0.81333 0.300019)
(17.7979 2.10534 0.178081)
(19.1775 9.54671 -2.96468)
(17.821 4.07333 12.4364)
(7.40633 4.16667 1.70232)
(18.2339 -1.07625 1.71842)
(17.692 -0.574128 1.09556)
(17.7423 -0.161846 0.828073)
(18.1303 -0.00187331 0.637244)
(18.6261 0.00992071 0.472445)
(19.0599 -0.0217135 0.31674)
(19.411 -0.0639558 0.174045)
(19.6941 -0.107977 0.0494391)
(19.9005 -0.144332 -0.0527223)
(20.0525 -0.174442 -0.131973)
(20.1624 -0.202065 -0.19182)
(20.2362 -0.229614 -0.235266)