/*--------------------------------*- C++ -*----------------------------------*\
| =========                 |                                                 |
| \\      /  F ield         | OpenFOAM: The Open Source CFD Toolbox           |
|  \\    /   O peration     | Version:  2512                                  |
|   \\  /    A nd           | Website:  www.openfoam.com                      |
|    \\/     M anipulation  |                                                 |
\*---------------------------------------------------------------------------*/
FoamFile
{
    version     2.0;
    format      ascii;
    arch        "LSB;label=32;scalar=64";
    class       volScalarField;
    location    "250";
    object      k;
}
// * * * * * * * * * * * * * * * * * * * * * * * * * * * * * * * * * * * * * //

dimensions      [0 2 -2 0 0 0 0];

internalField   nonuniform List<scalar> 
96507
(
0.229546
0.21967
0.210562
0.202124
0.194285
0.186999
0.18022
0.173928
0.168078
0.162638
0.157608
0.152941
0.14857
0.144484
0.14064
0.137009
0.133519
0.130282
0.127241
0.124384
0.121696
0.119172
0.116794
0.114537
0.112405
0.110584
0.110534
0.122543
0.182118
0.321198
0.229547
0.219672
0.210566
0.202133
0.194297
0.187017
0.180245
0.173958
0.168114
0.162684
0.157665
0.153007
0.148674
0.144592
0.140748
0.137119
0.133612
0.130375
0.127337
0.124481
0.121796
0.119276
0.116907
0.114681
0.112735
0.112097
0.119065
0.158485
0.271841
0.468905
0.229548
0.219675
0.210573
0.202147
0.194318
0.187047
0.180282
0.174004
0.168175
0.162758
0.157768
0.153133
0.148853
0.144786
0.140949
0.137317
0.13379
0.130555
0.127519
0.124668
0.121987
0.119478
0.117147
0.115155
0.114645
0.122207
0.161959
0.274093
0.480909
0.760169
0.229549
0.219678
0.210579
0.20216
0.194339
0.187079
0.18032
0.174058
0.168255
0.162871
0.157933
0.153341
0.149141
0.145102
0.141278
0.137645
0.134091
0.13086
0.12783
0.124987
0.122319
0.119854
0.117757
0.117172
0.124489
0.163685
0.2764
0.489676
0.796133
1.15434
0.22955
0.219681
0.210584
0.202171
0.194359
0.187107
0.180357
0.174116
0.168353
0.16304
0.158199
0.153686
0.149571
0.145598
0.141812
0.138195
0.13461
0.131408
0.128405
0.125589
0.122967
0.120682
0.11957
0.124237
0.153554
0.248579
0.44656
0.753508
1.14579
1.5733
0.229557
0.219682
0.210588
0.202179
0.194375
0.187131
0.180407
0.174183
0.168477
0.163321
0.158613
0.154243
0.150168
0.146326
0.142629
0.139061
0.135492
0.13234
0.129395
0.126654
0.124179
0.122398
0.1234
0.136375
0.188999
0.32644
0.581882
0.956525
1.42229
1.92116
0.229564
0.219699
0.210595
0.202187
0.194392
0.187156
0.180449
0.174252
0.168646
0.163463
0.158865
0.154634
0.150843
0.147246
0.143767
0.140299
0.137023
0.134086
0.131455
0.129191
0.127428
0.126652
0.128712
0.140856
0.185901
0.310065
0.564732
0.97485
1.51609
2.11367
0.229565
0.219713
0.210616
0.202219
0.194412
0.187181
0.180488
0.174339
0.168613
0.162901
0.153727
0.14629
0.138767
0.132475
0.148739
0.148253
0.148674
0.149659
0.151293
0.155146
0.161046
0.168565
0.178289
0.194077
0.229324
0.321736
0.542023
0.958254
1.57107
2.29465
0.229565
0.21971
0.210631
0.202243
0.194448
0.187196
0.18052
0.174426
0.1681
0.158008
0.181655
0.218658
0.195267
0.171659
0.704524
0.695379
0.688959
0.684071
0.679679
0.673609
0.665896
0.658049
0.65294
0.658228
0.693473
0.801923
1.063
1.56369
2.29086
3.12138
0.229564
0.219708
0.210623
0.20223
0.194452
0.187211
0.180551
0.17442
0.168262
0.158763
0.759516
2.434
1.94892
1.16502
2.16298
1.84925
1.62167
1.45207
1.32116
1.21587
1.12949
1.06074
1.01597
1.03035
1.19172
1.5871
2.24015
3.07425
3.96802
4.78194
0.229564
0.219706
0.210619
0.202225
0.194444
0.187201
0.180536
0.174401
0.168288
0.159544
4.91506
3.33632
2.15733
3.02748
2.47946
2.08942
1.8072
1.59465
1.42941
1.30804
1.24915
1.30586
1.55895
2.07208
2.8306
3.73782
4.67172
5.53876
6.25805
0.229563
0.219705
0.210621
0.202228
0.194426
0.187165
0.180477
0.17437
0.168105
0.158856
0.2887
2.49666
2.77277
1.92024
1.30496
1.22021
1.13515
1.05148
0.978814
0.938417
0.974729
1.16937
1.6176
2.35618
3.31914
4.37869
5.41196
6.33524
7.10785
7.70322
0.229562
0.219706
0.210601
0.202195
0.194378
0.187134
0.180421
0.17424
0.168459
0.162419
0.15982
0.203914
0.22242
0.207205
0.173947
0.174274
0.176819
0.194054
0.280237
0.55457
1.12794
2.00368
3.07866
4.24059
5.37306
6.4106
7.30794
8.04626
8.62568
9.04709
0.229562
0.21969
0.210577
0.202159
0.19435
0.187096
0.180364
0.174127
0.168459
0.163164
0.158557
0.154407
0.150401
0.146337
0.142547
0.141043
0.168276
0.343167
0.807268
1.58829
2.61586
3.78288
4.98208
6.12886
7.15621
8.04743
8.77948
9.36072
9.79888
10.1021
0.229554
0.219673
0.21057
0.202149
0.19433
0.187065
0.180311
0.174043
0.168272
0.163016
0.158187
0.153675
0.149383
0.145276
0.141796
0.149197
0.25869
0.664295
1.43542
2.50039
3.73514
5.02119
6.26212
7.39301
8.37426
9.19163
9.83785
10.336
10.6955
10.933
0.229547
0.219673
0.210567
0.202142
0.194314
0.18704
0.180258
0.173971
0.168139
0.162726
0.157755
0.153084
0.148732
0.144611
0.141817
0.164677
0.365078
0.94431
1.91009
3.14452
4.50355
5.86482
7.13888
8.27068
9.23011
10.0114
10.62
11.0716
11.388
11.5909
0.229547
0.219672
0.210565
0.202135
0.194298
0.187014
0.180223
0.173912
0.168038
0.162554
0.157484
0.152736
0.148344
0.144216
0.142328
0.183251
0.460919
1.16286
2.25705
3.60157
5.04247
6.45653
7.75633
8.89437
9.84572
10.608
11.1933
11.6195
11.9135
12.0971
0.229546
0.21967
0.210562
0.202126
0.194282
0.186988
0.180188
0.173859
0.167956
0.162437
0.157316
0.152527
0.148082
0.143963
0.143029
0.200022
0.53401
1.3171
2.49344
3.90823
5.40244
6.8524
8.17328
9.31825
10.2685
11.0237
11.5975
12.0109
12.2932
12.4696
0.229546
0.219669
0.210558
0.202117
0.194267
0.186963
0.180154
0.17381
0.167888
0.162354
0.157206
0.152396
0.147913
0.143799
0.143496
0.210245
0.575527
1.4025
2.62393
4.07883
5.60532
7.07893
8.4162
9.56929
10.5222
11.2781
11.8504
12.2605
12.5398
12.7164
0.229546
0.219669
0.210559
0.202114
0.194262
0.186949
0.180127
0.173772
0.167839
0.162294
0.157136
0.15232
0.147806
0.14369
0.143411
0.210962
0.580631
1.41578
2.64849
4.11644
5.65625
7.142
8.48959
9.65142
10.6109
11.3741
11.9527
12.3674
12.6515
12.8327
0.238389
0.236489
0.234397
0.232159
0.229813
0.227389
0.224919
0.222435
0.219964
0.217536
0.215119
0.212675
0.210242
0.207814
0.205422
0.203068
0.200679
0.198423
0.196219
0.194066
0.191958
0.189894
0.187882
0.186031
0.185283
0.193488
0.261662
0.541065
1.15487
1.95791
0.238389
0.23649
0.234397
0.232159
0.229812
0.227389
0.224918
0.222435
0.219964
0.217564
0.215175
0.212714
0.210296
0.207877
0.205487
0.203137
0.200752
0.198499
0.1963
0.19415
0.192049
0.190011
0.188169
0.187481
0.194508
0.244383
0.444795
0.930115
1.70413
2.57578
0.238389
0.23649
0.234397
0.23216
0.229813
0.227389
0.224917
0.222442
0.219994
0.217648
0.215333
0.212882
0.210507
0.208111
0.20573
0.203387
0.201014
0.198767
0.196575
0.194437
0.192371
0.190544
0.190147
0.198823
0.254207
0.46002
0.936981
1.69887
2.65089
3.60406
0.238389
0.23649
0.234397
0.232159
0.229813
0.22739
0.224919
0.222461
0.220074
0.217876
0.215747
0.213386
0.211122
0.208781
0.206422
0.204092
0.201744
0.199511
0.197334
0.195232
0.193368
0.192982
0.201708
0.257069
0.46089
0.937847
1.71222
2.70754
3.81395
4.85555
0.238389
0.23649
0.234398
0.232158
0.229814
0.227394
0.224929
0.222516
0.220287
0.218481
0.216836
0.214859
0.212801
0.210575
0.208269
0.205951
0.20364
0.201413
0.199266
0.197322
0.196533
0.202828
0.245776
0.412515
0.832415
1.56959
2.579
3.76742
5.02744
6.17991
0.23839
0.236491
0.234399
0.232159
0.229816
0.227408
0.224959
0.222648
0.220854
0.219942
0.219307
0.217984
0.216421
0.214422
0.212169
0.209882
0.207612
0.205447
0.203487
0.202283
0.205006
0.227893
0.327106
0.611815
1.19614
2.11381
3.3141
4.70276
6.15915
7.47645
0.238392
0.236496
0.234398
0.232158
0.229813
0.227414
0.225013
0.222958
0.222138
0.222549
0.22352
0.223933
0.223557
0.222389
0.220484
0.218489
0.216958
0.216199
0.216652
0.219237
0.228219
0.26161
0.374009
0.675445
1.29968
2.33082
3.74335
5.41809
7.17958
8.75575
0.238393
0.2365
0.234412
0.232184
0.229809
0.227413
0.225101
0.223568
0.22394
0.223437
0.224626
0.226685
0.226351
0.224934
0.256419
0.268085
0.278966
0.296832
0.319667
0.345529
0.376315
0.422341
0.520147
0.766252
1.33946
2.43806
4.12373
6.22542
8.41635
10.3115
0.238393
0.236502
0.234421
0.232203
0.229818
0.227422
0.22524
0.22435
0.22343
0.22691
0.237529
0.244103
0.246586
0.253915
1.68427
1.61744
1.54366
1.47745
1.42395
1.38505
1.36484
1.38059
1.48007
1.78735
2.53513
3.95573
6.03876
8.46349
10.8357
12.7906
0.238393
0.2365
0.234416
0.232199
0.229835
0.227452
0.225416
0.224949
0.225151
0.229565
0.384073
1.72182
10.7204
6.95949
2.91567
2.41426
2.15531
2.00075
1.90553
1.85466
1.86667
2.00942
2.44701
3.43328
5.1425
7.44572
9.9881
12.4331
14.5874
16.2277
0.238393
0.2365
0.234416
0.232198
0.229833
0.227447
0.2254
0.224909
0.225517
0.234126
3.05737
4.2223
3.3872
2.95321
2.70393
2.56375
2.53627
2.71191
3.30119
4.55318
6.54318
9.0435
11.6947
14.2065
16.4124
18.2455
19.5906
0.238393
0.236502
0.23442
0.232201
0.229813
0.22741
0.225203
0.224223
0.223915
0.2304
0.259606
0.870177
3.83942
9.74433
2.50216
2.48898
2.39977
2.31164
2.3199
2.64104
3.58073
5.35617
7.84038
10.6958
13.5532
16.1771
18.449
20.3263
21.8085
22.8485
0.238393
0.2365
0.23441
0.23218
0.229801
0.227394
0.225049
0.223408
0.223624
0.224192
0.226992
0.232178
0.232828
0.230848
0.269174
0.305218
0.399428
0.77935
1.85897
3.83637
6.49213
9.48633
12.5251
15.4394
18.0871
20.385
22.2986
23.8235
24.9788
25.7478
0.238391
0.236495
0.234396
0.232154
0.229803
0.22739
0.224954
0.2228
0.221748
0.221935
0.222582
0.222452
0.221607
0.219845
0.221235
0.285412
0.765053
2.11851
4.33262
7.1305
10.2306
13.3882
16.4255
19.2197
21.6644
23.7277
25.3898
26.6662
27.5918
28.1704
0.238389
0.23649
0.234397
0.232154
0.229804
0.227382
0.224898
0.222508
0.220531
0.219384
0.218566
0.217182
0.215642
0.214089
0.225142
0.441676
1.46647
3.5234
6.33564
9.56826
12.9489
16.2564
19.3242
22.0599
24.3927
26.3088
27.8078
28.9203
29.6908
30.1445
0.238389
0.236489
0.234395
0.232153
0.229801
0.227367
0.22487
0.22239
0.220028
0.218023
0.216225
0.214185
0.212298
0.211165
0.239966
0.635305
2.08027
4.59929
7.80774
11.3421
14.9233
18.3467
21.4619
24.1765
26.4482
28.2719
29.6688
30.6741
31.3407
31.708
0.238389
0.236489
0.234395
0.232154
0.229801
0.227363
0.224862
0.222347
0.219856
0.217501
0.215216
0.212779
0.210628
0.210115
0.261021
0.819625
2.56732
5.39517
8.86888
12.611
16.3393
19.849
23.0092
25.7212
27.9627
29.7322
31.0609
31.9953
32.5954
32.9065
0.238389
0.236489
0.234395
0.232155
0.229801
0.227363
0.224863
0.222337
0.219803
0.217332
0.214881
0.212347
0.210043
0.21023
0.281897
0.963769
2.91122
5.93612
9.58095
13.4609
17.2909
20.8669
24.0581
26.7827
29.0092
30.7517
32.0406
32.9296
33.4878
33.7665
0.238388
0.236489
0.234395
0.232154
0.2298
0.227363
0.224866
0.222337
0.219791
0.217284
0.214775
0.212229
0.209857
0.210519
0.294928
1.04456
3.09685
6.22722
9.9676
13.9285
17.8218
21.4429
24.6587
27.3975
29.6261
31.3571
32.6303
33.4991
34.0361
34.2998
0.238389
0.236489
0.234396
0.232156
0.229802
0.227365
0.22487
0.222341
0.2198
0.217274
0.214746
0.212216
0.209816
0.210433
0.294763
1.04706
3.11173
6.26332
10.0298
14.0188
17.9391
21.5838
24.8191
27.5702
29.8125
31.548
32.8247
33.695
34.2322
34.4963
0.238731
0.237423
0.23609
0.234728
0.233339
0.23193
0.230514
0.229113
0.227748
0.226427
0.225106
0.223704
0.222207
0.220666
0.219121
0.217585
0.216069
0.214586
0.213134
0.21171
0.210314
0.208973
0.207967
0.209612
0.231685
0.372294
0.864765
1.84726
3.14706
4.37726
0.238731
0.237423
0.236089
0.234728
0.233339
0.231932
0.230518
0.229126
0.227782
0.226499
0.225225
0.223856
0.222372
0.220838
0.21929
0.217754
0.216239
0.214757
0.213306
0.211889
0.210545
0.209622
0.211756
0.234301
0.35501
0.739648
1.52025
2.66745
4.00768
5.22876
0.238731
0.237423
0.23609
0.234729
0.233341
0.231937
0.230531
0.229163
0.227873
0.226688
0.225538
0.224267
0.22283
0.221321
0.219773
0.218237
0.216726
0.215247
0.213806
0.212447
0.211585
0.214463
0.242321
0.379673
0.788202
1.56807
2.68362
4.01421
5.42531
6.66074
0.238731
0.237423
0.23609
0.234729
0.233345
0.231946
0.230556
0.229234
0.228066
0.227114
0.226257
0.225202
0.223903
0.222459
0.220924
0.219392
0.217888
0.216419
0.215024
0.214089
0.216844
0.245344
0.38749
0.807881
1.61219
2.76558
4.14839
5.65295
7.16911
8.45908
0.238731
0.237424
0.236091
0.23473
0.233349
0.231961
0.2306
0.229371
0.22846
0.22804
0.227841
0.227263
0.226275
0.224969
0.223481
0.221943
0.220425
0.218976
0.21787
0.219557
0.242155
0.363487
0.746003
1.5198
2.68178
4.12893
5.74496
7.43639
9.09606
10.4823
0.238732
0.237424
0.236092
0.234733
0.233356
0.231984
0.230674
0.229625
0.22927
0.229576
0.23023
0.230375
0.2302
0.22929
0.227989
0.226557
0.225143
0.223974
0.224456
0.237276
0.317177
0.60211
1.25469
2.33278
3.78832
5.50651
7.37643
9.29824
11.1518
12.6783
0.238732
0.237425
0.236093
0.234735
0.233363
0.232013
0.230789
0.230089
0.230445
0.231902
0.234114
0.235904
0.236753
0.236898
0.236396
0.235841
0.236245
0.238032
0.245333
0.281736
0.431298
0.847426
1.68734
3.0236
4.79499
6.86375
9.0839
11.3179
13.422
15.12
0.238733
0.237426
0.236094
0.23474
0.23337
0.232046
0.230953
0.23081
0.232148
0.233191
0.237078
0.243352
0.246399
0.248169
0.273123
0.287243
0.309371
0.336985
0.374492
0.441363
0.61171
1.04777
1.97962
3.57654
5.81545
8.46657
11.223
13.8512
16.2042
18.0313
0.238733
0.237428
0.236098
0.234746
0.233379
0.232081
0.231148
0.231374
0.232004
0.237165
0.246278
0.271196
0.292014
0.311359
1.46194
1.40965
1.37203
1.35442
1.36145
1.41669
1.59933
2.10599
3.25206
5.29758
8.15339
11.4117
14.5943
17.4306
19.8274
21.6037
0.238733
0.237427
0.236101
0.23475
0.233388
0.232111
0.231307
0.23189
0.233256
0.239597
0.272131
1.88768
10.6694
6.06888
4.11988
3.47338
3.11789
2.90682
2.8085
2.87655
3.27865
4.33975
6.37581
9.33983
12.7853
16.2074
19.2983
21.9375
24.096
25.6346
0.238733
0.237427
0.2361
0.234749
0.233386
0.232106
0.231291
0.231855
0.233403
0.241982
0.439101
6.36885
7.02108
5.46758
4.59399
4.07587
3.87094
4.14301
5.26188
7.52356
10.7746
14.4832
18.1187
21.3904
24.1938
26.5131
28.358
29.6317
0.238733
0.237427
0.236097
0.234744
0.233374
0.232068
0.231107
0.231278
0.232272
0.239559
0.255304
1.31684
2.82101
10.7114
4.90108
4.28192
3.77687
3.58186
4.08543
5.76488
8.69222
12.3984
16.3061
20.0609
23.4438
26.3849
28.8516
30.847
32.3868
33.4082
0.238733
0.237426
0.236093
0.234737
0.233363
0.232026
0.230897
0.230672
0.231896
0.233858
0.239818
0.250392
0.254001
0.269334
0.427305
0.592237
1.1981
2.89568
5.79627
9.46488
13.4634
17.5177
21.3858
24.9624
28.1171
30.806
32.9997
34.7228
36.0017
36.8058
0.238732
0.237424
0.236091
0.234732
0.233354
0.231988
0.230724
0.229913
0.230126
0.231422
0.233437
0.235033
0.235949
0.2374
0.284732
0.763477
2.41562
5.28094
8.97268
13.1121
17.3967
21.5836
25.4832
28.9786
31.9933
34.5103
36.5096
38.0289
39.1033
39.7376
0.238731
0.237423
0.23609
0.234728
0.233346
0.231957
0.230606
0.229461
0.228902
0.229058
0.229581
0.229739
0.229844
0.23453
0.361169
1.30784
3.69277
7.19944
11.3871
15.8929
20.4289
24.7667
28.7414
32.2205
35.1585
37.5422
39.3957
40.7577
41.6807
42.1889
0.238731
0.237423
0.236089
0.234726
0.233338
0.231933
0.230533
0.229221
0.228146
0.227496
0.227164
0.226632
0.226238
0.236897
0.472464
1.82128
4.71528
8.67805
13.243
18.0435
22.7874
27.2501
31.2808
34.7663
37.6543
39.9542
41.6975
42.9414
43.7509
44.1653
0.238731
0.237423
0.236088
0.234724
0.233333
0.231917
0.230492
0.229097
0.227795
0.226647
0.225609
0.224531
0.223947
0.242385
0.587966
2.24875
5.50062
9.78998
14.6317
19.6519
24.5545
29.1162
33.187
36.6788
39.5428
41.784
43.4527
44.6136
45.3408
45.6888
0.238731
0.237423
0.236088
0.234724
0.233329
0.231908
0.230469
0.229035
0.227633
0.226283
0.224963
0.223622
0.223027
0.249315
0.683224
2.55742
6.04354
10.5501
15.5805
20.753
25.7682
30.4033
34.5109
38.0049
40.8595
43.0667
44.6884
45.7942
46.4694
46.7758
0.238731
0.237423
0.236088
0.234723
0.233327
0.231903
0.230458
0.229006
0.227561
0.226133
0.2247
0.223243
0.222688
0.253779
0.736545
2.72144
6.33044
10.9561
16.0953
21.3587
26.4441
31.1285
35.2642
38.7682
41.617
43.8169
45.4171
46.4971
47.1456
47.4313
0.238731
0.237423
0.236089
0.234724
0.233328
0.231903
0.230455
0.228997
0.227536
0.226081
0.224606
0.223105
0.222489
0.253182
0.734121
2.72264
6.34726
10.9978
16.1678
21.4626
26.5773
31.2871
35.4431
38.9629
41.817
44.0294
45.6325
46.7137
47.3623
47.6472
0.238751
0.237492
0.236242
0.234999
0.233763
0.23254
0.23134
0.230181
0.229079
0.22804
0.227018
0.225939
0.224777
0.223572
0.222358
0.221158
0.219982
0.218846
0.217746
0.216683
0.215694
0.215138
0.218069
0.248973
0.430134
1.01769
2.15661
3.74106
5.47475
6.93128
0.23875
0.237492
0.236241
0.234997
0.233762
0.232541
0.231345
0.230195
0.229113
0.22811
0.227133
0.226087
0.224944
0.223746
0.222531
0.221331
0.220157
0.219023
0.21793
0.216924
0.216459
0.220276
0.254354
0.424474
0.920317
1.85099
3.19902
4.83397
6.53916
7.95339
0.238751
0.237492
0.236241
0.234998
0.233764
0.232546
0.231358
0.230231
0.2292
0.228285
0.227425
0.226473
0.225381
0.224207
0.222995
0.2218
0.220634
0.219509
0.218474
0.21803
0.222707
0.264874
0.467885
1.01624
1.97997
3.31276
4.90341
6.61987
8.32081
9.70427
0.238751
0.237492
0.236242
0.234999
0.233767
0.232555
0.231383
0.230299
0.229373
0.22866
0.228068
0.227314
0.226356
0.225236
0.224042
0.22286
0.22171
0.220635
0.22006
0.224317
0.267446
0.485526
1.07885
2.11388
3.52592
5.19879
6.9922
8.81845
10.568
11.964
0.238751
0.237492
0.236242
0.235
0.233772
0.232568
0.231424
0.23042
0.229704
0.229424
0.229405
0.229061
0.228386
0.227392
0.226248
0.225077
0.223942
0.223155
0.225854
0.260467
0.458653
1.04356
2.11133
3.60182
5.39379
7.33706
9.33187
11.3035
13.1495
14.5982
0.238751
0.237492
0.236244
0.235002
0.233778
0.232589
0.23149
0.230633
0.230331
0.230715
0.231417
0.231742
0.231702
0.231041
0.230078
0.22899
0.22802
0.228954
0.249659
0.393527
0.895145
1.91315
3.43004
5.33348
7.46845
9.69209
11.9192
14.0725
16.0471
17.5713
0.238751
0.237493
0.236244
0.235005
0.233786
0.232615
0.231588
0.230986
0.231312
0.232518
0.23447
0.235964
0.23678
0.236895
0.236538
0.235975
0.236455
0.24545
0.322618
0.666655
1.51683
2.95338
4.92287
7.27184
9.80416
12.3774
14.8862
17.2433
19.3461
20.9338
0.238751
0.237494
0.236245
0.235007
0.233793
0.232647
0.231719
0.231533
0.232501
0.235288
0.237078
0.242266
0.24515
0.246772
0.256117
0.261246
0.27324
0.309762
0.475399
1.00444
2.16799
4.07717
6.63305
9.58099
12.6595
15.67
18.482
21.0101
23.1772
24.761
0.238751
0.237495
0.236248
0.235012
0.2338
0.232677
0.231858
0.232062
0.233848
0.235942
0.244148
0.259196
0.269317
0.278442
0.571622
0.632587
0.706075
0.808972
1.06811
1.77502
3.2886
5.80597
9.1376
12.8432
16.5107
19.8874
22.8725
25.4261
27.5232
28.9978
0.238752
0.237495
0.23625
0.235015
0.233806
0.232699
0.231953
0.232401
0.234932
0.238336
0.253494
0.495186
1.36545
8.25659
2.22598
2.2961
2.30632
2.35548
2.6877
3.76251
6.01302
9.44298
13.5349
17.7003
21.5501
24.9336
27.8146
30.2021
32.1045
33.3946
0.238752
0.237495
0.23625
0.235015
0.233805
0.232694
0.23194
0.232374
0.234887
0.238792
0.257486
1.39269
5.10028
7.35931
4.88298
4.28422
3.81287
3.71524
4.49736
6.6813
10.2681
14.613
19.0664
23.2359
26.9272
30.1001
32.7515
34.9045
36.5759
37.669
0.238751
0.237494
0.236247
0.23501
0.233796
0.232665
0.231824
0.231984
0.233701
0.236631
0.248086
0.35829
5.75144
20.8255
2.71452
2.56307
2.74981
4.02723
6.85479
10.903
15.4995
20.1355
24.516
28.4969
31.9787
34.9397
37.371
39.3033
40.7573
41.6668
0.238751
0.237493
0.236244
0.235005
0.233787
0.232629
0.231668
0.231393
0.232261
0.234937
0.23824
0.24714
0.251427
0.285736
0.401117
0.976406
2.87991
6.23113
10.5318
15.2815
20.1251
24.8174
29.166
33.0635
36.4383
39.2589
41.5261
43.2745
44.5368
45.2844
0.238751
0.237492
0.236243
0.235001
0.233777
0.232593
0.231528
0.230834
0.231047
0.232107
0.233932
0.235435
0.236655
0.246178
0.462747
1.74463
4.66325
8.78897
13.6083
18.7176
23.8094
28.6549
33.0885
36.9885
40.3022
43.016
45.1498
46.7415
47.8437
48.4563
0.23875
0.237492
0.236242
0.234998
0.233768
0.232564
0.231427
0.230484
0.230013
0.230263
0.230863
0.231244
0.232213
0.260515
0.703095
2.6005
6.17974
10.8422
16.0745
21.5095
26.8458
31.8517
36.3707
40.2983
43.5791
46.2009
48.2173
49.6757
50.6451
51.1454
0.23875
0.237491
0.236241
0.234996
0.233761
0.232542
0.231361
0.230281
0.229417
0.228928
0.228751
0.228532
0.229943
0.285819
0.969016
3.3592
7.42146
12.5036
18.0746
23.7803
29.3191
34.4601
39.0471
42.9878
46.2381
48.7994
50.7157
52.0674
52.9283
53.3403
0.23875
0.237491
0.23624
0.234994
0.233756
0.232527
0.231321
0.230167
0.229116
0.228218
0.227454
0.22676
0.228946
0.31628
1.21432
3.9743
8.38777
13.7841
19.6198
25.5357
31.2303
36.4741
41.1128
45.0583
48.2832
50.8001
52.6469
53.9154
54.695
55.042
0.23875
0.237491
0.23624
0.234993
0.233752
0.232518
0.231297
0.230106
0.228965
0.22789
0.226862
0.22593
0.229048
0.345676
1.4024
4.41027
9.0626
14.6728
20.6936
26.7587
32.5647
37.8828
42.5612
46.516
49.7225
52.2055
54.0097
55.2236
55.9489
56.2524
0.23875
0.237491
0.236239
0.234993
0.23375
0.232513
0.231285
0.230075
0.228893
0.227744
0.226607
0.225569
0.229281
0.362517
1.50328
4.63848
9.42402
15.1479
21.2757
27.4306
33.3061
38.6733
43.3812
47.3484
50.5519
53.0161
54.8035
55.9905
56.6891
56.9709
0.238751
0.237492
0.236241
0.234995
0.233751
0.232513
0.231282
0.230065
0.228866
0.227688
0.226509
0.225422
0.228999
0.360694
1.49732
4.63625
9.44147
15.1877
21.3441
27.5293
33.4335
38.8261
43.5551
47.5391
50.7546
53.2249
55.0174
56.2095
56.9086
57.1897
0.238752
0.237497
0.236254
0.235025
0.233809
0.232613
0.231447
0.230326
0.22926
0.228256
0.22728
0.226275
0.225212
0.224118
0.223019
0.221939
0.220893
0.219892
0.218939
0.21806
0.217551
0.220076
0.248003
0.423868
1.02543
2.21723
3.94695
5.99603
8.04185
9.64458
0.238751
0.237496
0.236253
0.235023
0.233808
0.232613
0.231451
0.230337
0.229287
0.22831
0.227368
0.226389
0.225342
0.224252
0.223154
0.222076
0.221036
0.220038
0.219124
0.218644
0.221975
0.25513
0.432478
0.966721
1.98685
3.45915
5.2932
7.31182
9.28016
10.8165
0.238752
0.237497
0.236254
0.235024
0.233809
0.232617
0.231462
0.230365
0.229353
0.228441
0.227586
0.226677
0.22567
0.224598
0.223506
0.222437
0.221411
0.220452
0.219931
0.223693
0.264217
0.481468
1.0987
2.19782
3.69446
5.4924
7.46277
9.47552
11.3785
12.8466
0.238752
0.237497
0.236254
0.235025
0.233812
0.232625
0.231482
0.230417
0.22948
0.228709
0.228044
0.227287
0.226377
0.225354
0.224284
0.223237
0.222253
0.221594
0.224687
0.264754
0.499703
1.18405
2.39688
4.02626
5.9496
8.02146
10.1273
12.1803
14.0738
15.511
0.238752
0.237497
0.236255
0.235026
0.233816
0.232636
0.231513
0.230505
0.229709
0.229231
0.228968
0.228517
0.227814
0.226905
0.225889
0.224886
0.224077
0.225784
0.256727
0.471951
1.1646
2.45065
4.21471
6.31742
8.5906
10.8948
13.1533
15.2945
17.2256
18.6662
0.238752
0.237497
0.236255
0.235027
0.233821
0.232651
0.23156
0.23065
0.230123
0.230225
0.230587
0.230702
0.230394
0.22969
0.228799
0.227913
0.228218
0.245911
0.405932
1.02876
2.31271
4.16651
6.44525
8.96792
11.5639
14.1194
16.5528
18.8098
20.7992
22.2547
0.238752
0.237497
0.236255
0.235029
0.233827
0.232671
0.231627
0.230881
0.230826
0.231544
0.23276
0.233434
0.233885
0.23378
0.233226
0.232943
0.239725
0.327459
0.795494
1.96622
3.83848
6.26876
9.06716
12.0218
14.9689
17.8007
20.4237
22.7886
24.8166
26.2651
0.238752
0.237498
0.236256
0.235031
0.233833
0.232693
0.231714
0.231205
0.231675
0.233217
0.235988
0.238281
0.239649
0.24022
0.240735
0.242963
0.276871
0.539993
1.45377
3.22065
5.76585
8.85214
12.234
15.6716
19.0023
22.0886
24.8602
27.2733
29.2748
30.6608
0.238753
0.2375
0.236258
0.235032
0.233838
0.232714
0.231801
0.231586
0.232522
0.235268
0.237717
0.245216
0.24907
0.251727
0.261677
0.2769
0.380482
0.921588
2.38794
4.94282
8.34165
12.1992
16.2166
20.1309
23.7564
26.9947
29.7972
32.1515
34.0385
35.2996
0.238753
0.237501
0.23626
0.235036
0.23384
0.232724
0.231858
0.231866
0.233186
0.236932
0.241891
0.259648
0.264717
0.269554
0.318527
0.393286
0.693446
1.76696
4.1587
7.77734
12.1087
16.6649
21.1562
25.3137
29.0264
32.2361
34.9341
37.1367
38.8498
39.9526
0.238753
0.237501
0.23626
0.235035
0.233839
0.23272
0.231848
0.231841
0.233143
0.23688
0.242772
0.264865
0.269783
0.302565
0.488848
0.714243
1.53378
3.72492
7.41115
12.0156
16.9649
21.8664
26.4858
30.6572
34.3018
37.382
39.9198
41.9434
43.4719
44.4163
0.238753
0.2375
0.236257
0.235031
0.233834
0.232703
0.231773
0.231513
0.232396
0.235065
0.238912
0.250005
0.254419
0.300022
0.434003
1.06538
3.11337
6.74041
11.4239
16.5958
21.8411
26.873
31.5064
35.6276
39.1849
42.1513
44.5495
46.4089
47.7677
48.5676
0.238752
0.237498
0.236255
0.235028
0.233827
0.232678
0.231672
0.231097
0.231494
0.232924
0.235589
0.237883
0.23955
0.251142
0.514669
1.95896
5.18033
9.73174
15.0228
20.5775
26.0573
31.2248
35.9221
40.0513
43.5602
46.4431
48.7266
50.4479
51.6579
52.3285
0.238751
0.237496
0.236254
0.235025
0.233819
0.232651
0.231577
0.230759
0.230564
0.231186
0.232304
0.233099
0.234766
0.277951
0.859228
3.0756
7.08291
12.2585
17.992
23.881
29.6111
34.9538
39.7549
43.9234
47.4163
50.2352
52.413
54.0084
55.0865
55.6457
0.238751
0.237496
0.236254
0.235023
0.233812
0.232628
0.231506
0.230526
0.229866
0.229786
0.23008
0.230346
0.233649
0.330649
1.28163
4.14083
8.74208
14.3922
20.4978
26.6829
32.6427
38.1485
43.0479
47.2522
50.7304
53.4894
55.5738
57.0573
58.0162
58.4786
0.238751
0.237496
0.236253
0.235022
0.233805
0.232611
0.231457
0.230383
0.229467
0.228817
0.228428
0.228214
0.234297
0.40123
1.70078
5.07747
10.1387
16.1692
22.5857
29.0184
35.1679
40.8058
45.7812
50.01
53.4667
56.1727
58.1757
59.5622
60.4235
60.8063
0.238751
0.237496
0.236252
0.23502
0.233801
0.232599
0.231424
0.230299
0.229253
0.228327
0.227523
0.227015
0.236734
0.477009
2.06789
5.83358
11.238
17.557
24.2252
30.8529
37.1493
42.8873
47.9181
52.1622
55.5991
58.2559
60.1985
61.51
62.2939
62.6161
0.238751
0.237496
0.236252
0.235019
0.233798
0.232591
0.231404
0.23025
0.229139
0.228086
0.227092
0.226471
0.239819
0.540854
2.33916
6.3661
12.0079
18.5314
25.3734
32.1414
38.5434
44.3532
49.4239
53.6796
57.104
59.7287
61.625
62.8882
63.62
63.9009
0.238751
0.237496
0.236252
0.235019
0.233796
0.232586
0.231394
0.230224
0.229083
0.227974
0.226894
0.22623
0.241744
0.576157
2.4806
6.64119
12.4154
19.0532
25.9923
32.8446
39.3125
45.1697
50.2696
54.5383
57.9617
60.574
62.4481
63.6869
64.3954
64.655
0.238752
0.237497
0.236253
0.235021
0.233798
0.232587
0.231392
0.230216
0.229061
0.227929
0.226814
0.226098
0.241241
0.571527
2.46821
6.63144
12.4313
19.0912
26.0483
32.9283
39.4235
45.3059
50.4278
54.7148
58.1524
60.7753
62.6567
63.8976
64.6112
64.8704
0.238752
0.237497
0.236255
0.235028
0.233814
0.23262
0.231455
0.23033
0.229252
0.228228
0.227235
0.22623
0.22519
0.224127
0.223064
0.222024
0.221025
0.220071
0.219186
0.218528
0.219727
0.237709
0.367702
0.889827
2.06296
3.83701
6.07257
8.47668
10.7482
12.4515
0.238751
0.237497
0.236254
0.235026
0.233812
0.232619
0.231457
0.230337
0.229271
0.228265
0.227296
0.22631
0.225279
0.22422
0.223158
0.22212
0.221126
0.220189
0.219499
0.221026
0.243082
0.385198
0.878197
1.90926
3.45488
5.40836
7.6452
9.96303
12.13
13.7513
0.238752
0.237497
0.236254
0.235026
0.233813
0.232622
0.231465
0.230357
0.229317
0.228354
0.227442
0.226503
0.2255
0.224453
0.223396
0.222367
0.221395
0.220629
0.222126
0.247413
0.420261
1.00517
2.15509
3.77417
5.72779
7.91381
10.1936
12.4381
14.4957
16.0187
0.238752
0.237497
0.236254
0.235027
0.233815
0.232628
0.23148
0.230394
0.229401
0.228528
0.227735
0.226893
0.225955
0.224943
0.223905
0.222903
0.222056
0.222945
0.245735
0.425025
1.07071
2.35265
4.14506
6.27531
8.60851
10.9988
13.346
15.573
17.5686
19.022
0.238752
0.237497
0.236255
0.235027
0.233818
0.232636
0.231502
0.230453
0.229547
0.228848
0.228305
0.227653
0.226857
0.225919
0.224932
0.22402
0.224112
0.239669
0.393248
1.03228
2.39075
4.34581
6.70082
9.28537
11.9232
14.4991
16.945
19.2062
21.1815
22.5946
0.238752
0.237497
0.236255
0.235028
0.233822
0.232647
0.231533
0.230544
0.229798
0.229435
0.229363
0.229066
0.228527
0.227729
0.226849
0.226362
0.233616
0.338075
0.891002
2.23601
4.29757
6.86252
9.7394
12.7124
15.6317
18.4049
20.9712
23.2858
25.2593
26.6404
0.238752
0.237497
0.236255
0.23503
0.233826
0.23266
0.231575
0.230682
0.230201
0.2304
0.230921
0.231159
0.231078
0.230603
0.230017
0.232146
0.282705
0.682646
1.89496
3.97142
6.70033
9.87402
13.2389
16.5903
19.796
22.7701
25.4566
27.8054
29.7584
31.0898
0.238753
0.237498
0.236256
0.235031
0.23383
0.232675
0.231627
0.230865
0.230777
0.23152
0.232864
0.233607
0.234173
0.234295
0.234661
0.251276
0.46598
1.41345
3.37913
6.20862
9.66552
13.4549
17.302
21.0216
24.4985
27.6338
30.3857
32.719
34.601
35.8448
0.238754
0.237499
0.236257
0.235032
0.233834
0.232687
0.231677
0.231059
0.231361
0.232677
0.23515
0.237036
0.238222
0.238778
0.243218
0.317572
0.896632
2.57918
5.37912
9.08152
13.3157
17.7035
22.0035
26.0352
29.6918
32.901
35.6235
37.8686
39.6232
40.7418
0.238754
0.237501
0.236259
0.235035
0.233835
0.232692
0.231707
0.231189
0.231709
0.233569
0.237241
0.240093
0.241849
0.243072
0.263597
0.518399
1.72833
4.3505
8.17694
12.7707
17.6945
22.5733
27.199
31.4038
35.1228
38.2877
40.9098
43.0122
44.6059
45.582
0.238754
0.237501
0.236259
0.235034
0.233834
0.232689
0.2317
0.231169
0.231679
0.233519
0.237171
0.239984
0.241872
0.245392
0.330967
1.04301
3.23554
6.96158
11.7488
17.0666
22.4751
27.6794
32.4664
36.7245
40.4087
43.4876
45.9836
47.9306
49.361
50.1983
0.238753
0.237499
0.236256
0.235031
0.23383
0.232678
0.231655
0.231003
0.231268
0.232527
0.23493
0.236814
0.238327
0.251776
0.522236
2.00605
5.3067
10.0138
15.535
21.3497
27.0849
32.4891
37.3827
41.6629
45.302
48.2997
50.6792
52.4884
53.7709
54.4815
0.238752
0.237497
0.236255
0.235029
0.233825
0.232661
0.231593
0.230784
0.230604
0.231287
0.232561
0.233408
0.23532
0.284576
0.914764
3.25735
7.4663
12.9299
18.9976
25.2052
31.2125
36.7852
41.7836
46.1041
49.7243
52.6523
54.9281
56.6124
57.7628
58.3622
0.238752
0.237497
0.236254
0.235026
0.233819
0.232642
0.231533
0.230586
0.230005
0.230106
0.230578
0.230989
0.235372
0.359018
1.4476
4.5537
9.47015
15.5156
22.0149
28.5497
34.8029
40.5488
45.6503
50.0179
53.6339
56.5058
58.6912
60.2612
61.2896
61.7911
0.238751
0.237496
0.236253
0.235025