/*--------------------------------*- C++ -*----------------------------------*\
| =========                 |                                                 |
| \\      /  F ield         | OpenFOAM: The Open Source CFD Toolbox           |
|  \\    /   O peration     | Version:  2512                                  |
|   \\  /    A nd           | Website:  www.openfoam.com                      |
|    \\/     M anipulation  |                                                 |
\*---------------------------------------------------------------------------*/
FoamFile
{
    version     2.0;
    format      ascii;
    arch        "LSB;label=32;scalar=64";
    class       volScalarField;
    location    "250";
    object      nut;
}
// * * * * * * * * * * * * * * * * * * * * * * * * * * * * * * * * * * * * * //

dimensions      [0 2 -1 0 0 0 0];

internalField   nonuniform List<scalar> 
96507
(
0.014347
0.0140351
0.0137412
0.0134619
0.0131967
0.0129465
0.0127078
0.0124864
0.0122739
0.0120736
0.0118868
0.011702
0.0115336
0.0113811
0.0112287
0.0110795
0.0109329
0.010785
0.0106568
0.0105353
0.01042
0.0103116
0.01021
0.0101134
0.010021
0.00993984
0.00992511
0.010374
0.0125082
0.0165842
0.0143469
0.0140347
0.0137406
0.0134615
0.0131971
0.0129476
0.012709
0.0124889
0.0122775
0.0120785
0.0118889
0.0117011
0.0115344
0.0113854
0.011233
0.0110871
0.0109329
0.0107875
0.0106596
0.0105384
0.0104234
0.0103153
0.0102143
0.0101191
0.0100339
0.00999727
0.0102526
0.011705
0.015262
0.0200948
0.0143469
0.0140348
0.0137408
0.013462
0.013198
0.0129494
0.0127089
0.0124895
0.0122783
0.0120808
0.0118929
0.0117025
0.0115379
0.0113931
0.0112411
0.0110953
0.0109396
0.0107936
0.0106663
0.0105456
0.0104311
0.0103237
0.0102243
0.0101379
0.0101065
0.010381
0.0118299
0.0153238
0.0203516
0.025687
0.014347
0.0140351
0.0137412
0.0134634
0.0131996
0.012951
0.0127084
0.0124902
0.0122802
0.0120853
0.0118992
0.0117061
0.0115446
0.0114058
0.0112545
0.0111089
0.0109512
0.010805
0.0106785
0.0105586
0.010445
0.0103397
0.0102492
0.0102155
0.0104799
0.0118967
0.0153897
0.0205357
0.02629
0.0317623
0.0143471
0.0140351
0.0137418
0.0134647
0.013201
0.0129527
0.0127085
0.0124908
0.0122835
0.0120923
0.0119094
0.0117507
0.0115923
0.0114256
0.0112763
0.0111316
0.0109721
0.0108266
0.0107019
0.0105839
0.0104725
0.0103745
0.0103217
0.0104891
0.0115626
0.0146257
0.0196271
0.0255842
0.0316488
0.0371758
0.0143467
0.0140361
0.0137424
0.0134651
0.0132021
0.0129555
0.0127172
0.0124914
0.0122873
0.0121237
0.0119382
0.0117554
0.0115993
0.0114549
0.0113096
0.0111675
0.011009
0.0108654
0.0107437
0.0106291
0.0105239
0.0104458
0.010478
0.0109758
0.012849
0.0168494
0.0225254
0.0289384
0.0353509
0.0411455
0.0143467
0.0140384
0.0137465
0.0134666
0.0132039
0.0129578
0.0127217
0.0124881
0.0122937
0.0120968
0.0119149
0.0117708
0.0116258
0.0114926
0.0113568
0.0112123
0.0110661
0.0109385
0.0108284
0.01073
0.0106491
0.0106071
0.0106813
0.0111559
0.0127876
0.0164861
0.0222294
0.0292143
0.0364685
0.0431115
0.0143468
0.0140389
0.013751
0.0134758
0.0132122
0.0129575
0.0127231
0.0124924
0.0122918
0.0060418
0.00548327
0.00560594
0.00555611
0.005455
0.0115533
0.0115007
0.0114799
0.0114958
0.0115226
0.0116038
0.0117674
0.0119944
0.0122987
0.0127945
0.0138632
0.0163906
0.0213265
0.0285209
0.0367218
0.0445878
0.0143468
0.0140374
0.013749
0.0134806
0.0132173
0.0129599
0.012723
0.0125008
0.00613356
0.00427646
0.0035412
0.00479743
0.00623928
0.00599599
0.0173236
0.019588
0.0217061
0.0230825
0.0238162
0.0237403
0.0236319
0.0235183
0.0234487
0.0235479
0.0241445
0.0259019
0.0297644
0.0361761
0.0440689
0.0517832
0.0143468
0.0140364
0.0137447
0.0134743
0.0132144
0.0129625
0.0127247
0.0125072
0.00613598
0.00162701
0.00334203
0.00581131
0.00584456
0.00490978
0.0206421
0.0205859
0.0205663
0.0201955
0.0198565
0.0197605
0.0198912
0.0203197
0.0213815
0.0242763
0.0316766
0.0364579
0.0434862
0.0512558
0.058565
0.0645707
0.0143468
0.0140364
0.0137446
0.0134741
0.0132142
0.0129622
0.0127242
0.0125065
0.00613807
0.00123864
0.00784383
0.00800629
0.00523227
0.0304043
0.0286436
0.0274925
0.0262156
0.0252518
0.0248748
0.0252375
0.0270399
0.0321438
0.036235
0.0417909
0.0490369
0.056628
0.0635932
0.069502
0.0740893
0.0143468
0.0140372
0.0137487
0.0134801
0.0132166
0.0129589
0.0127215
0.0124989
0.00613196
0.00318785
0.00170411
0.00552418
0.00705045
0.0056101
0.0276078
0.0286763
0.0296026
0.0295008
0.0289627
0.0282153
0.0285586
0.0310854
0.0365279
0.0442917
0.0529295
0.0611712
0.0683493
0.0742426
0.0788853
0.0823218
0.0143467
0.0140386
0.0137506
0.013475
0.013211
0.0129558
0.0127207
0.0124889
0.0122862
0.00603338
0.00464608
0.00618758
0.00703963
0.00684093
0.0125161
0.0124867
0.0125052
0.0129133
0.0151416
0.0211226
0.0303212
0.0407981
0.0509465
0.0601344
0.0679849
0.0745132
0.0798036
0.0839499
0.0871041
0.0893613
0.0143466
0.0140381
0.0137459
0.0134657
0.0132025
0.0129558
0.0127187
0.0124836
0.0122869
0.0120855
0.0119005
0.0117587
0.0116054
0.0114533
0.0113015
0.0111897
0.0118518
0.0164592
0.0254414
0.036126
0.0467928
0.056646
0.0653299
0.072741
0.0788204
0.0837724
0.0876733
0.0906848
0.0929412
0.0945032
0.0143467
0.0140358
0.0137419
0.0134642
0.0132006
0.0129533
0.0127139
0.0124865
0.0122798
0.0121123
0.0119218
0.011733
0.0115679
0.0114118
0.0112629
0.0113475
0.0142476
0.0228497
0.0341164
0.0455619
0.0561362
0.0654597
0.0734169
0.0800377
0.0854066
0.0896674
0.0929179
0.0953787
0.0971579
0.0983431
0.014347
0.0140349
0.0137412
0.0134638
0.0131995
0.0129504
0.012705
0.0124856
0.0122758
0.0120807
0.0118926
0.0117275
0.0115593
0.011385
0.0112473
0.0117143
0.0167949
0.0273357
0.0394965
0.051231
0.0617609
0.0708491
0.0784775
0.0847314
0.08973
0.0936329
0.0965938
0.0987678
0.100289
0.101277
0.014347
0.0140348
0.0137407
0.0134626
0.0131982
0.0129488
0.0127051
0.012485
0.0122724
0.0120736
0.0118824
0.0116831
0.0115136
0.0113689
0.0112456
0.0121947
0.0188583
0.0304264
0.0430373
0.0549206
0.0654313
0.0744031
0.0818555
0.0879131
0.0927129
0.0964177
0.0991954
0.101202
0.102593
0.103477
0.0143469
0.0140346
0.0137404
0.0134613
0.0131968
0.0129474
0.0127056
0.0124844
0.0122704
0.012069
0.011876
0.0116796
0.011508
0.0113584
0.0112511
0.0126391
0.0203149
0.0324487
0.0453037
0.0572709
0.0677769
0.0766915
0.0840599
0.0900105
0.0947039
0.0983075
0.100989
0.102907
0.104222
0.105059
0.0143469
0.0140346
0.0137404
0.013461
0.0131961
0.0129458
0.0127058
0.0124836
0.0122692
0.0120665
0.0118719
0.011678
0.0115049
0.0113515
0.011255
0.0129094
0.0211031
0.0335205
0.04651
0.0585388
0.0690639
0.07797
0.0853168
0.0912281
0.0958764
0.0994417
0.10209
0.103974
0.105265
0.106093
0.014347
0.0140351
0.0137411
0.0134615
0.0131959
0.0129448
0.0127046
0.012481
0.0122654
0.0120613
0.0118693
0.0116785
0.0115041
0.0113472
0.011251
0.0129223
0.0212021
0.0336831
0.0467324
0.0588136
0.0693826
0.0783218
0.0856929
0.0916218
0.0962803
0.0998636
0.102528
0.104425
0.105731
0.106574
0.120206
0.109616
0.10156
0.0951622
0.0899088
0.0854811
0.0816557
0.0783073
0.0753484
0.0727909
0.0705204
0.0685077
0.0668975
0.0654377
0.0641107
0.0628875
0.061554
0.0605082
0.0595341
0.0586193
0.0577549
0.0569358
0.0561586
0.0554518
0.0551133
0.0575161
0.0777709
0.157622
0.308373
0.444156
0.120206
0.109615
0.101555
0.0951547
0.089905
0.0854621
0.0816018
0.0782312
0.0751989
0.0726441
0.0703418
0.0681936
0.0666103
0.0651867
0.0638885
0.0626909
0.0613761
0.0603489
0.0593919
0.0584926
0.057643
0.0568441
0.0561332
0.0558026
0.0578796
0.0727285
0.130499
0.255821
0.405376
0.504417
0.120205
0.109612
0.101546
0.0951387
0.0898871
0.0854113
0.0814956
0.0780664
0.074951
0.0723119
0.0699425
0.0676499
0.0661145
0.0647514
0.0635049
0.0623505
0.0610887
0.0600905
0.05916
0.0582851
0.0574649
0.0567507
0.0565033
0.0590575
0.0754916
0.134451
0.256124
0.40187
0.511792
0.563779
0.120204
0.109604
0.101535
0.0951111
0.0898455
0.0853328
0.081339
0.0778101
0.0745493
0.0717489
0.0692523
0.0667981
0.0653531
0.0640911
0.0629332
0.0618516
0.0606878
0.0597376
0.0588493
0.0580171
0.0572879
0.0570486
0.0595819
0.0758704
0.133824
0.254775
0.402296
0.517676
0.58259
0.604105
0.120203
0.1096
0.101538
0.09508
0.0897926
0.0852524
0.0811346
0.0774553
0.0739492
0.0708398
0.0681346
0.0658013
0.0644949
0.063372
0.062334
0.061346
0.0603451
0.0594466
0.0586009
0.0578337
0.0574335
0.0591583
0.0715158
0.118223
0.225324
0.372542
0.501193
0.582525
0.622332
0.630619
0.120209
0.109623
0.101548
0.0950504
0.0897442
0.0852115
0.080906
0.0769679
0.0731021
0.069317
0.0647331
0.0641247
0.0630283
0.0621604
0.0613263
0.0604845
0.0596042
0.0587338
0.0578542
0.0570966
0.0573533
0.0630757
0.0887588
0.158293
0.279884
0.418497
0.529905
0.600481
0.63679
0.64516
0.120238
0.109717
0.101518
0.095006
0.0896273
0.0850309
0.0805811
0.0763056
0.0705836
0.0433272
0.0390229
0.0443856
0.0605287
0.0601747
0.0591874
0.0579442
0.0562081
0.0541238
0.0518027
0.0496509
0.0488364
0.0529214
0.0713651
0.120038
0.209897
0.330492
0.451468
0.546834
0.608149
0.634809
0.120252
0.109753
0.10172
0.0952929
0.0894951
0.0847386
0.0801795
0.075492
0.0442308
0.0283341
0.0220833
0.0233912
0.0380143
0.0381493
0.0307029
0.0291929
0.0270245
0.0260675
0.0259223
0.0263535
0.0274828
0.0300723
0.036661
0.0537248
0.0937306
0.170041
0.283301
0.411346
0.520191
0.586003
0.120253
0.10976
0.101796
0.0954987
0.0894709
0.084534
0.0798691
0.0733023
0.0361296
0.0131655
0.0135964
0.00931218
0.0209388
0.0189752
0.0285725
0.0303668
0.0318559
0.0332995
0.0347954
0.036465
0.0385263
0.0416338
0.0476031
0.0614826
0.0938239
0.158159
0.259089
0.379538
0.48868
0.562196
0.120252
0.109709
0.101649
0.0953786
0.089541
0.0845479
0.0798319
0.0604607
0.0242807
0.00670572
0.00475321
0.00357928
0.0225692
0.0325645
0.0307227
0.0335695
0.0365204
0.0395531
0.0427375
0.0463026
0.051136
0.0597153
0.0781908
0.117165
0.186114
0.282391
0.389427
0.487211
0.563474
0.610276
0.120252
0.109709
0.101649
0.0953782
0.0895389
0.0845435
0.0798245
0.0609059
0.021666
0.00432995
0.00277885
0.0399377
0.0435944
0.0472338
0.0508889
0.0548576
0.0603819
0.0709608
0.094517
0.142469
0.222455
0.328012
0.439248
0.535603
0.606908
0.653772
0.678043
0.120254
0.10976
0.101796
0.0954981
0.0894683
0.084526
0.0798496
0.0745791
0.0298306
0.00880541
0.00528261
0.00260186
0.0193543
0.0673977
0.0472568
0.0517751
0.0551672
0.0587135
0.0652334
0.0825405
0.124394
0.204804
0.320597
0.448814
0.560342
0.641693
0.694085
0.72456
0.739986
0.744044
0.120252
0.109753
0.101719
0.0952912
0.0894905
0.0847262
0.0801501
0.0754337
0.0455255
0.0204658
0.0173931
0.0164073
0.0273832
0.0261173
0.029783
0.0284992
0.0348192
0.0689422
0.162726
0.314737
0.472945
0.596743
0.68131
0.736977
0.771442
0.791574
0.800899
0.802901
0.799949
0.793119
0.120238
0.109717
0.101517
0.0950021
0.0896186
0.0850131
0.0805444
0.0762253
0.0716678
0.044547
0.0383598
0.0436249
0.0568678
0.0558557
0.0555376
0.0703944
0.175159
0.393781
0.592388
0.715029
0.784071
0.822924
0.845288
0.857126
0.861325
0.860617
0.855698
0.848393
0.839239
0.828775
0.120209
0.109623
0.101546
0.0950459
0.0897346
0.0851925
0.0808689
0.0768916
0.0729377
0.0689851
0.0653744
0.0627045
0.0612066
0.0603676
0.0634806
0.123202
0.357287
0.626857
0.784628
0.859003
0.892702
0.906958
0.911245
0.910236
0.905439
0.89823
0.8886
0.877642
0.86616
0.854842
0.120204
0.1096
0.101536
0.0950754
0.0897826
0.085233
0.0810984
0.0773863
0.0738156
0.0705837
0.067654
0.0650259
0.0637757
0.0629652
0.0713516
0.181978
0.48075
0.736113
0.863582
0.91855
0.940739
0.947569
0.946285
0.940803
0.932361
0.922145
0.910764
0.898303
0.885618
0.873642
0.120205
0.109604
0.101533
0.0951064
0.0898358
0.0853145
0.0813062
0.0777517
0.0744449
0.071565
0.0689419
0.0663543
0.0649543
0.0642906
0.0794771
0.233879
0.559044
0.794307
0.903992
0.949739
0.967079
0.971024
0.967745
0.960317
0.950581
0.938992
0.926425
0.913243
0.900129
0.887895
0.120206
0.109612
0.101544
0.0951343
0.0898778
0.0853944
0.0814665
0.0780177
0.0748707
0.0721825
0.069749
0.0674057
0.0659058
0.0654178
0.0870614
0.272534
0.606635
0.826984
0.926612
0.967669
0.982735
0.985431
0.981353
0.973312
0.962782
0.9508
0.937615
0.923893
0.910528
0.8983
0.120206
0.109615
0.101553
0.0951504
0.0898961
0.0854463
0.0815756
0.0781897
0.0751351
0.0725503
0.0702182
0.0680652
0.06651
0.0661434
0.0918032
0.29371
0.630455
0.843217
0.938263
0.977314
0.991482
0.993725
0.989521
0.981375
0.970499
0.958149
0.944815
0.93094
0.917358
0.90518
0.120207
0.109617
0.101559
0.0951587
0.0899011
0.0854671
0.0816326
0.0782712
0.0752947
0.0727172
0.0704332
0.0684376
0.0668593
0.066455
0.0921817
0.295272
0.633334
0.846192
0.941207
0.980305
0.994542
0.996849
0.992743
0.984683
0.973841
0.961313
0.94797
0.934115
0.920527
0.908431
0.134262
0.133344
0.132175
0.130821
0.129329
0.127733
0.126047
0.124308
0.122547
0.1208
0.11912
0.117496
0.115961
0.114502
0.1131
0.111745
0.11043
0.109156
0.107933
0.106752
0.105611
0.104523
0.103622
0.104038
0.114257
0.180283
0.397692
0.772667
1.15965
1.41104
0.134261
0.133344
0.132174
0.130822
0.129337
0.127734
0.126022
0.124274
0.122494
0.120714
0.119007
0.117371
0.115817
0.11436
0.112963
0.111615
0.110309
0.10904
0.107823
0.106652
0.105544
0.104669
0.105297
0.115678
0.170938
0.337064
0.636451
0.998314
1.31202
1.49416
0.134261
0.133343
0.132173
0.130822
0.129343
0.127724
0.125982
0.124207
0.122389
0.120539
0.118774
0.117128
0.115563
0.114115
0.112732
0.111396
0.110105
0.108844
0.10764
0.106506
0.105642
0.106605
0.119367
0.181258
0.35269
0.639844
0.975792
1.27683
1.4888
1.5878
0.134261
0.133343
0.132173
0.130816
0.129338
0.127706
0.125929
0.124112
0.122235
0.120268
0.118383
0.116737
0.11518
0.113772
0.112416
0.111102
0.109832
0.108587
0.107416
0.106492
0.107352
0.120228
0.183144
0.354523
0.639283
0.970157
1.26674
1.48357
1.6089
1.64836
0.134261
0.133343
0.13218
0.13081
0.129328
0.12769
0.125864
0.123991
0.122009
0.119859
0.111744
0.11617
0.114694
0.113342
0.112039
0.110755
0.109494
0.108247
0.107149
0.107323
0.11702
0.169078
0.319325
0.580112
0.896748
1.19469
1.42593
1.57663
1.65254
1.66473
0.134262
0.133349
0.132189
0.130805
0.129319
0.127689
0.1258
0.123822
0.121691
0.0871962
0.0743387
0.0893002
0.110562
0.112473
0.11123
0.109882
0.108303
0.106439
0.104816
0.108165
0.138021
0.2393
0.437404
0.701478
0.977889
1.22182
1.41142
1.54097
1.61257
1.63023
0.134264
0.133355
0.132191
0.130799
0.129284
0.127634
0.125698
0.1236
0.0876292
0.0558225
0.0463259
0.0501204
0.0689892
0.0822586
0.106294
0.102007
0.0953347
0.0874504
0.0805694
0.0834007
0.114967
0.202052
0.355221
0.559064
0.784085
1.00572
1.20588
1.36874
1.48236
1.53822
0.134265
0.133358
0.132197
0.130835
0.129242
0.127534
0.125569
0.116851
0.0578407
0.0397913
0.02886
0.0236283
0.0419972
0.0422949
0.0399108
0.038913
0.0347759
0.0329834
0.0330761
0.0362173
0.0483096
0.0819429
0.155268
0.282927
0.465506
0.687115
0.921008
1.13771
1.31143
1.4198
0.134265
0.133359
0.132206
0.130863
0.129234
0.127474
0.125495
0.094301
0.0500181
0.0212689
0.0180899
0.00660531
0.0318042
0.0201702
0.028047
0.0296145
0.0314065
0.0336221
0.036561
0.0411794
0.0504609
0.0724459
0.122387
0.2206
0.37915
0.592394
0.832854
1.06382
1.25371
1.37784
0.134265
0.133357
0.132192
0.130862
0.129248
0.127471
0.12553
0.0790014
0.0357131
0.0120813
0.00766564
0.00341569
0.0242441
0.0287191
0.0342225
0.0392278
0.0444039
0.0498175
0.0562607
0.0660802
0.0852123
0.126628
0.210156
0.351834
0.550693
0.784544
1.01819
1.21927
1.36985
1.46079
0.134265
0.133357
0.132192
0.130862
0.129247
0.127468
0.125524
0.0795761
0.0336018
0.00817963
0.00307874
0.0225888
0.0594711
0.0639969
0.0684008
0.0735486
0.0823803
0.102352
0.149792
0.248569
0.414509
0.639886
0.891726
1.12974
1.32469
1.46547
1.55516
1.59977
0.134265
0.133359
0.132205
0.130862
0.129232
0.127467
0.125478
0.0966403
0.0422703
0.0157502
0.0149633
0.00331887
0.0113105
0.0651599
0.0878996
0.0882685
0.0896119
0.0983805
0.131096
0.218424
0.388125
0.634844
0.915923
1.18275
1.39937
1.55606
1.657
1.71344
1.73749
1.73877
0.134264
0.133358
0.132197
0.130833
0.129239
0.127525
0.125544
0.122162
0.059602
0.0297803
0.0231055
0.0157435
0.0410762
0.0384884
0.0411623
0.0486433
0.102737
0.267385
0.55758
0.901616
1.22102
1.47775
1.6628
1.7872
1.86058
1.8973
1.90592
1.89629
1.87511
1.84875
0.134264
0.133355
0.13219
0.130798
0.129279
0.127623
0.125669
0.123527
0.0928726
0.0578849
0.0472232
0.0501006
0.0646
0.0774255
0.119963
0.27888
0.708709
1.22033
1.62869
1.89284
2.04359
2.11916
2.14738
2.14547
2.12523
2.09394
2.05455
2.01239
1.96892
1.92939
0.134262
0.133348
0.132188
0.130803
0.129314
0.127676
0.125771
0.123754
0.121537
0.0925175
0.0764307
0.0847466
0.0960514
0.113666
0.172771
0.580846
1.3467
1.97465
2.30485
2.43181
2.45415
2.4283
2.38097
2.32314
2.26283
2.20213
2.14227
2.08519
2.03209
1.98716
0.134261
0.133343
0.132179
0.130808
0.129322
0.127677
0.125836
0.123929
0.12188
0.119616
0.117415
0.11556
0.114132
0.118637
0.23269
0.822849
1.72205
2.34238
2.60568
2.66591
2.63651
2.57113
2.49429
2.41563
2.33829
2.2654
2.19705
2.1334
2.0759
2.02857
0.134261
0.133342
0.132172
0.130814
0.129332
0.127694
0.125902
0.124058
0.12213
0.12008
0.118086
0.116349
0.115053
0.123651
0.292999
1.00794
1.94804
2.52887
2.74638
2.77428
2.72305
2.64317
2.5542
2.46757
2.38407
2.30542
2.23305
2.16674
2.10732
2.05911
0.134261
0.133343
0.132172
0.130819
0.129337
0.127712
0.125958
0.124159
0.122301
0.120393
0.118558
0.116875
0.115743
0.12846
0.341992
1.13419
2.0821
2.62862
2.81794
2.82928
2.76828
2.68202
2.5892
2.49823
2.41265
2.33183
2.25749
2.18973
2.12965
2.08133
0.134261
0.133344
0.132174
0.13082
0.129332
0.127722
0.125999
0.124231
0.122419
0.120595
0.118842
0.117198
0.11618
0.131453
0.369473
1.19975
2.14861
2.67756
2.85377
2.8578
2.7927
2.70382
2.60974
2.51716
2.42983
2.34855
2.2734
2.20511
2.14454
2.09633
0.134262
0.133344
0.132175
0.130819
0.129325
0.127723
0.126026
0.124268
0.122479
0.120695
0.118981
0.117362
0.116341
0.131463
0.369173
1.20305
2.15746
2.68918
2.8661
2.86989
2.80422
2.71468
2.61992
2.52729
2.43875
2.3574
2.28175
2.2132
2.15246
2.10431
0.134704
0.134548
0.134363
0.134144
0.133888
0.133591
0.133251
0.132873
0.132467
0.132039
0.131585
0.131101
0.130593
0.130064
0.129519
0.128965
0.128406
0.127842
0.12728
0.126721
0.126187
0.125883
0.127479
0.143922
0.236543
0.509132
0.973886
1.51047
1.97259
2.25821
0.134704
0.134548
0.134363
0.134145
0.13389
0.133592
0.133245
0.132869
0.132463
0.132035
0.131583
0.1311
0.130595
0.130065
0.129518
0.128963
0.128402
0.127839
0.127279
0.126751
0.126508
0.128567
0.146143
0.224686
0.422884
0.771782
1.24584
1.72655
2.1153
2.34412
0.134704
0.134548
0.134363
0.134145
0.133892
0.133593
0.133241
0.132865
0.132461
0.132032
0.131585
0.131109
0.130612
0.130083
0.129535
0.128978
0.128415
0.127855
0.127324
0.127101
0.129617
0.151172
0.240788
0.446626
0.780837
1.21756
1.65961
2.03901
2.31513
2.46132
0.134704
0.134548
0.134363
0.134145
0.133893
0.133593
0.133239
0.132866
0.132471
0.132045
0.131614
0.131159
0.130679
0.130158
0.129611
0.129054
0.128491
0.127949
0.127656
0.129931
0.151844
0.246283
0.459058
0.791794
1.22198
1.65352
2.0175
2.29187
2.46934
2.54771
0.134704
0.134549
0.134364
0.134145
0.133893
0.133594
0.133241
0.132875
0.132499
0.132096
0.13172
0.131312
0.130866
0.130358
0.129813
0.129243
0.128667
0.128221
0.129569
0.146899
0.232484
0.43591
0.749987
1.1572
1.58473
1.94645
2.22281
2.41585
2.53077
2.57205
0.134704
0.134549
0.134365
0.134144
0.133893
0.133598
0.133249
0.132892
0.132553
0.105396
0.0891847
0.104286
0.130848
0.130405
0.129845
0.129156
0.128348
0.128165
0.137339
0.19866
0.369424
0.645909
1.00057
1.39151
1.74351
2.02339
2.23788
2.39265
2.48945
2.52752
0.134704
0.134549
0.134366
0.134143
0.133891
0.133598
0.133257
0.132922
0.108581
0.0733515
0.0560593
0.0629682
0.0833913
0.108725
0.126792
0.12384
0.119411
0.117198
0.140718
0.246571
0.457254
0.744539
1.06443
1.36641
1.63621
1.87394
2.07866
2.24529
2.36569
2.4298
0.134704
0.13455
0.134366
0.134146
0.133888
0.133594
0.133267
0.132992
0.0784998
0.0441239
0.0376478
0.0295153
0.0510738
0.0551267
0.0850042
0.0696585
0.0592439
0.0571996
0.0792113
0.155103
0.308436
0.530092
0.79222
1.07103
1.34859
1.61372
1.85724
2.06753
2.23108
2.33199
0.134704
0.13455
0.134367
0.134151
0.133887
0.133593
0.133283
0.117148
0.0569911
0.0342411
0.0183524
0.00887623
0.0364504
0.0346705
0.0300504
0.0309058
0.0328461
0.037145
0.0505835
0.0897363
0.178626
0.341269
0.581634
0.87724
1.19424
1.50236
1.78346
2.02204
2.20516
2.31961
0.134705
0.13455
0.134365
0.13415
0.133893
0.1336
0.133296
0.101029
0.0463553
0.0244168
0.00982377
0.0018742
0.00919066
0.0498666
0.0389165
0.0447417
0.0502056
0.0576374
0.0753681
0.123226
0.228753
0.419946
0.697841
1.03252
1.37826
1.69936
1.97355
2.18865
2.34101
2.4289
0.134705
0.13455
0.134365
0.13415
0.133892
0.133599
0.133292
0.101852
0.046543
0.0225182
0.00863192
0.00253329
0.0138886
0.030781
0.0769567
0.0789543
0.0821078
0.0945025
0.138245
0.246732
0.456361
0.764804
1.13227
1.50632
1.84381
2.12268
2.33377
2.47912
2.56727
2.60757
0.134704
0.13455
0.134367
0.13415
0.133886
0.13359
0.133274
0.120202
0.0580156
0.0271338
0.0134891
0.00199023
0.0541944
0.183755
0.0822766
0.0840478
0.104361
0.183723
0.376672
0.700627
1.10709
1.52751
1.91034
2.22762
2.46753
2.63407
2.7364
2.78866
2.80386
2.79533
0.134704
0.13455
0.134366
0.134145
0.133886
0.133589
0.133253
0.132946
0.0816362
0.0451252
0.0272774
0.0207637
0.0426691
0.0412372
0.0650681
0.155219
0.443684
0.90426
1.41329
1.88816
2.28771
2.59681
2.81709
2.96011
3.04103
3.07348
3.0703
3.04292
3.00056
2.95586
0.134704
0.134549
0.134365
0.134142
0.133889
0.133592
0.13324
0.132878
0.115901
0.0768628
0.0575757
0.0612628
0.0734499
0.0927658
0.23039
0.735441
1.54941
2.28355
2.81223
3.15278
3.35242
3.45313
3.48789
3.47647
3.43516
3.37397
3.30173
3.224
3.14658
3.0806
0.134704
0.134549
0.134365
0.134143
0.133891
0.133591
0.133231
0.132849
0.132461
0.113403
0.0924163
0.0978962
0.108512
0.141994
0.38593
1.2782
2.45075
3.30671
3.76732
3.96127
4.00351
3.965
3.88365
3.78355
3.67421
3.56169
3.45156
3.34633
3.24993
3.17235
0.134704
0.134548
0.134364
0.134144
0.133891
0.133587
0.133223
0.132836
0.132416
0.131948
0.131497
0.131087
0.131673
0.163242
0.538723
1.67259
2.99772
3.87894
4.28099
4.39011
4.34998
4.24135
4.10405
3.959
3.81551
3.67765
3.54813
3.42893
3.32256
3.23931
0.134704
0.134548
0.134363
0.134144
0.13389
0.133586
0.133222
0.132829
0.132398
0.131917
0.131428
0.130989
0.132234
0.182158
0.675904
1.95975
3.33398
4.19397
4.55013
4.6126
4.53216
4.39058
4.22756
4.06122
3.90101
3.75092
3.61157
3.48524
3.37413
3.28838
0.134704
0.134548
0.134362
0.134144
0.133889
0.133585
0.133224
0.132831
0.132395
0.131922
0.131427
0.130985
0.132891
0.199899
0.779325
2.15096
3.53702
4.36891
4.69377
4.73072
4.63048
4.47338
4.2981
4.12251
3.95377
3.79774
3.65381
3.52382
3.41045
3.3237
0.134704
0.134548
0.134362
0.134144
0.133887
0.133585
0.133229
0.132836
0.132403
0.131936
0.131442
0.131004
0.133311
0.21004
0.83454
2.24902
3.6408
4.45693
4.76726
4.79283
4.68382
4.51979
4.3389
4.15871
3.98666
3.82694
3.68119
3.54927
3.43468
3.34761
0.134704
0.134548
0.134362
0.134143
0.133885
0.133584
0.133235
0.132842
0.13241
0.131946
0.131454
0.131014
0.133266
0.209214
0.832527
2.25302
3.65663
4.47998
4.79416
4.82008
4.70973
4.5437
4.36069
4.17851
4.00514
3.8433
3.69634
3.56377
3.44832
3.36102
0.134718
0.134598
0.134477
0.134355
0.13423
0.134102
0.133972
0.133842
0.133716
0.133595
0.13347
0.133327
0.133163
0.132982
0.13279
0.132593
0.132397
0.132202
0.13201
0.131841
0.131862
0.133555
0.148708
0.232522
0.480376
0.921887
1.52692
2.13715
2.62895
2.92655
0.134718
0.134598
0.134477
0.134355
0.13423
0.134102
0.133972
0.133845
0.133722
0.133606
0.133488
0.133351
0.13319
0.13301
0.132818
0.132622
0.132426
0.132233
0.132063
0.132118
0.134242
0.151686
0.23005
0.432191
0.773036
1.2512
1.82156
2.35667
2.77368
3.02021
0.134718
0.134598
0.134477
0.134355
0.13423
0.134103
0.133974
0.133851
0.133735
0.133634
0.133534
0.133412
0.133261
0.133085
0.132894
0.132699
0.132507
0.132333
0.132381
0.134756
0.155887
0.250381
0.475054
0.821756
1.2725
1.78528
2.27594
2.68762
2.98989
3.15862
0.134718
0.134598
0.134477
0.134355
0.134231
0.134105
0.133979
0.133863
0.133765
0.133692
0.133635
0.133546
0.133418
0.133252
0.133066
0.132876
0.132698
0.132684
0.13471
0.15576
0.258316
0.504107
0.874493
1.33865
1.84011
2.30304
2.68591
2.97818
3.17723
3.27708
0.134718
0.134598
0.134478
0.134355
0.134232
0.134107
0.133986
0.133883
0.133819
0.133806
0.133837
0.133816
0.13373
0.133585
0.133407
0.133223
0.133124
0.134383
0.150832
0.246604
0.496909
0.878915
1.35265
1.85385
2.3064
2.67251
2.95215
3.1529
3.28106
3.33734
0.134718
0.134598
0.134478
0.134356
0.134233
0.134111
0.133998
0.133917
0.133914
0.134015
0.112223
0.127117
0.134112
0.134001
0.133831
0.133647
0.13406
0.143515
0.216811
0.448673
0.822652
1.28314
1.77538
2.21468
2.56838
2.84144
3.04724
3.19643
3.29231
3.33369
0.134718
0.134598
0.134478
0.134356
0.134234
0.134116
0.134014
0.13397
0.134069
0.092771
0.0750333
0.092118
0.109424
0.133645
0.133394
0.132991
0.135815
0.177173
0.359675
0.703874
1.12767
1.58095
1.99486
2.32849
2.59856
2.82025
2.99978
3.14045
3.23898
3.2892
0.134718
0.134599
0.134478
0.134357
0.134236
0.134121
0.134034
0.134045
0.104205
0.0672841
0.0460229
0.0502456
0.0689459
0.084357
0.12668
0.12181
0.129876
0.223506
0.489026
0.85908
1.2421
1.59881
1.9211
2.2122
2.47415
2.70529
2.90379
3.06598
3.18559
3.25418
0.134718
0.134599
0.134478
0.134357
0.134237
0.134125
0.134055
0.134134
0.0825735
0.0462238
0.0333216
0.0247775
0.0464188
0.042102
0.0761143
0.0672996
0.0836355
0.180325
0.402133
0.715485
1.06793
1.42451
1.77465
2.10662
2.4112
2.67979
2.90636
3.08625
3.21573
3.29013
0.134718
0.134599
0.134479
0.134358
0.134238
0.134128
0.134069
0.134197
0.0704619
0.0373837
0.0197496
0.0121273
0.0443185
0.031621
0.0387871
0.0372668
0.0613607
0.159594
0.38006
0.712028
1.10533
1.51291
1.91376
2.28451
2.61221
2.88708
3.10422
3.26358
3.3683
3.42209
0.134718
0.134599
0.134478
0.134357
0.134237
0.134127
0.134066
0.13419
0.0709953
0.037481
0.0175668
0.0102752
0.0459495
0.0439514
0.038607
0.0491575
0.112548
0.298738
0.638391
1.08003
1.55178
2.00914
2.42644
2.7847
3.07611
3.29729
3.45331
3.55177
3.60248
3.61717
0.134718
0.134599
0.134478
0.134357
0.134236
0.134123
0.134047
0.134115
0.0845729
0.0470178
0.0239388
0.0178333
0.0481628
0.0468986
0.0629054
0.15218
0.435063
0.899062
1.43606
1.97231
2.46478
2.88777
3.23004
3.48982
3.67394
3.79017
3.85127
3.86857
3.85518
3.82689
0.134718
0.134598
0.134478
0.134356
0.134234
0.134117
0.134023
0.134017
0.108581
0.0697173
0.0468672
0.0494134
0.06386
0.0795273
0.237045
0.710166
1.4492
2.17642
2.79044
3.27839
3.64948
3.9165
4.09429
4.19791
4.24194
4.24038
4.20611
4.14894
4.08024
4.01644
0.134718
0.134598
0.134478
0.134355
0.134233
0.134111
0.134001
0.133939
0.134003
0.0971421
0.0771889
0.0854748
0.092176
0.128824
0.470498
1.44558
2.62194
3.5335
4.1264
4.4853
4.68322
4.77178
4.78559
4.74871
4.67751
4.58444
4.47848
4.36746
4.25978
4.17178
0.134718
0.134598
0.134477
0.134355
0.134231
0.134106
0.133984
0.133885
0.133847
0.133903
0.116523
0.118334
0.128892
0.19198
0.716354
2.04094
3.49816
4.52178
5.08126
5.33026
5.3943
5.35308
5.25318
5.12184
4.97464
4.8228
4.6714
4.52648
4.3941
4.29129
0.134718
0.134598
0.134477
0.134354
0.134229
0.134101
0.133972
0.133852
0.133756
0.133697
0.133695
0.133781
0.137543
0.234737
0.949833
2.49889
4.08647
5.14609
5.67054
5.84751
5.83003
5.71198
5.54564
5.35935
5.16802
4.98141
4.80379
4.63881
4.49223
4.38113
0.134718
0.134598
0.134477
0.134354
0.134228
0.134098
0.133964
0.133833
0.133706
0.133592
0.133499
0.133559
0.139599
0.279869
1.14915
2.83796
4.47342
5.52559
6.01768
6.14972
6.08627
5.92623
5.72379
5.50756
5.29247
5.08565
4.89354
4.71744
4.56299
4.44762
0.134718
0.134598
0.134477
0.134354
0.134227
0.134096
0.13396
0.133822
0.133681
0.133543
0.133409
0.133479
0.141741
0.317602
1.29386
3.06451
4.71557
5.75096
6.21758
6.32317
6.23491
6.05281
5.83145
5.59939
5.37132
5.15447
4.95353
4.77162
4.61298
4.49556
0.134718
0.134598
0.134477
0.134354
0.134227
0.134095
0.133958
0.133816
0.13367
0.13352
0.13337
0.133453
0.143037
0.338467
1.3691
3.18065
4.84157
5.86966
6.32423
6.41805
6.31838
6.12578
5.89512
5.65504
5.42025
5.19824
4.99248
4.80734
4.64658
4.52808
0.134718
0.134598
0.134477
0.134354
0.134227
0.134095
0.133958
0.133815
0.133666
0.133512
0.133354
0.133422
0.14281
0.336027
1.36467
3.18483
4.86356
5.90369
6.36387
6.45961
6.35865
6.16317
5.92908
5.68558
5.44767
5.22291
5.01513
4.8278
4.6659
4.54667
0.134718
0.1346
0.134483
0.134366
0.134251
0.134138
0.13403
0.133928
0.133835
0.133752
0.133674
0.133588
0.13349
0.133382
0.13327
0.13316
0.133057
0.132963
0.132888
0.132923
0.133981
0.14397
0.20719
0.426785
0.842219
1.4283
2.09954
2.71726
3.19926
3.48831
0.134718
0.1346
0.134483
0.134366
0.134251
0.134139
0.134031
0.13393
0.13384
0.133762
0.133689
0.133609
0.133514
0.133407
0.133295
0.133186
0.133085
0.133001
0.133035
0.134283
0.14626
0.211616
0.403901
0.74081
1.20276
1.77769
2.39226
2.93465
3.34778
3.59096
0.134718
0.1346
0.134483
0.134366
0.134251
0.134139
0.134033
0.133935
0.133852
0.133785
0.133728
0.133659
0.133572
0.133469
0.133359
0.133254
0.133162
0.133173
0.134422
0.148155
0.227703
0.451427
0.812795
1.2697
1.80144
2.35423
2.85919
3.27401
3.57822
3.74995
0.134718
0.1346
0.134483
0.134367
0.134252
0.134141
0.134036
0.133945
0.133874
0.133831
0.133804
0.133762
0.133692
0.133599
0.133496
0.133401
0.133374
0.134302
0.146845
0.23071
0.479972
0.880344
1.3733
1.92059
2.45668
2.9261
3.30698
3.59809
3.79939
3.904
0.134718
0.1346
0.134483
0.134367
0.134253
0.134143
0.134042
0.13396
0.133913
0.133914
0.133952
0.133961
0.133927
0.133854
0.133766
0.133708
0.134194
0.142959
0.216813
0.471723
0.902134
1.43205
2.00789
2.55285
3.01061
3.3681
3.6372
3.83144
3.95657
4.01382
0.134718
0.1346
0.134483
0.134367
0.134254
0.134146
0.13405
0.133984
0.133978
0.134064
0.134208
0.1343
0.134313
0.134269
0.134205
0.134355
0.13871
0.190759
0.42337
0.865849
1.42265
2.02346
2.58167
3.03688
3.38204
3.63818
3.82574
3.9579
4.03939
4.07233
0.134718
0.1346
0.134483
0.134367
0.134255
0.134149
0.134062
0.134021
0.134082
0.128264
0.103875
0.118476
0.134591
0.134603
0.134609
0.136095
0.162876
0.342685
0.767343
1.33822
1.95412
2.51904
2.96974
3.30719
3.56122
3.75405
3.9003
4.00564
4.07224
4.09983
0.134718
0.1346
0.134483
0.134368
0.134256
0.134153