/*--------------------------------*- C++ -*----------------------------------*\
| =========                 |                                                 |
| \\      /  F ield         | OpenFOAM: The Open Source CFD Toolbox           |
|  \\    /   O peration     | Version:  2512                                  |
|   \\  /    A nd           | Website:  www.openfoam.com                      |
|    \\/     M anipulation  |                                                 |
\*---------------------------------------------------------------------------*/
FoamFile
{
    version     2.0;
    format      ascii;
    arch        "LSB;label=32;scalar=64";
    class       volScalarField;
    location    "250";
    object      omega;
}
// * * * * * * * * * * * * * * * * * * * * * * * * * * * * * * * * * * * * * //

dimensions      [0 0 -1 0 0 0 0];

internalField   nonuniform List<scalar> 
96507
(
15.9996
15.6514
15.3235
15.0146
14.7223
14.444
14.1819
13.9293
13.694
13.4706
13.2591
13.0697
12.8815
12.6951
12.5251
12.366
12.2126
12.0799
11.9399
11.8064
11.679
11.5571
11.4392
11.3252
11.217
11.1253
11.1368
11.8125
14.5599
19.3677
15.9997
15.652
15.3243
15.0156
14.7227
14.4441
14.1825
13.929
13.6929
13.4689
13.2615
13.0763
12.8897
12.6998
12.5299
12.3674
12.2211
12.0858
11.9458
11.8122
11.6849
11.563
11.4454
11.3332
11.2354
11.2128
11.6131
13.5399
17.8116
23.3347
15.9998
15.6522
15.3247
15.0161
14.7232
14.4444
14.1855
13.932
13.6969
13.4725
13.2658
13.0855
12.9012
12.7082
12.5387
12.3761
12.23
12.0956
11.9554
11.8218
11.6946
11.5731
11.4577
11.3589
11.3436
11.7722
13.6907
17.8868
23.63
29.5935
15.9997
15.6521
15.3247
15.0155
14.7231
14.4452
14.189
13.9355
13.7013
13.4769
13.2726
13.0992
12.9187
12.7218
12.553
12.3906
12.2444
12.1111
11.9709
11.8375
11.7108
11.5917
11.4894
11.4701
11.8789
13.7589
17.9601
23.8452
30.2827
36.343
15.9997
15.6522
15.3244
15.0148
14.7231
14.4454
14.1919
13.9396
13.7056
13.4829
13.2836
13.0788
12.9025
12.7431
12.5762
12.4147
12.2684
12.1375
11.9984
11.8661
11.7418
11.6325
11.5844
11.8443
13.2803
16.9961
22.7522
29.4521
36.2031
42.3206
16.0006
15.6512
15.3239
15.015
14.723
14.4441
14.1861
13.9442
13.7115
13.4712
13.2862
13.1211
12.9463
12.7741
12.6114
12.4523
12.3074
12.18
12.0438
11.9157
11.7997
11.7174
11.7771
12.4251
14.7092
19.374
25.8322
33.0538
40.2335
46.6918
16.0012
15.6498
15.3199
15.014
14.7223
14.4435
14.1843
13.9534
13.7181
13.513
13.3334
13.1371
12.9749
12.8122
12.6592
12.5129
12.3822
12.2581
12.1399
12.0402
11.9661
11.9403
12.0502
12.6261
14.5375
18.8076
25.4047
33.3689
41.5725
49.0279
16.0011
15.6504
15.3164
15.0061
14.7146
14.4458
14.1858
13.9556
13.7175
26.9623
26.1934
25.575
24.9755
24.2851
12.8741
12.8908
12.9508
13.0186
13.1301
13.3702
13.6858
14.0537
14.4965
15.1688
16.542
19.6293
25.4155
33.5983
42.783
51.4635
16.0011
15.6518
15.3197
15.0025
14.7116
14.4442
14.1885
13.9532
27.4066
26.5485
27.9724
30.1682
28.7642
27.2739
29.0699
28.8985
28.7703
28.6533
28.5385
28.3741
28.1778
27.9803
27.8455
27.9527
28.7218
30.96
35.7138
43.2243
51.9837
60.2779
16.0011
15.6527
15.3239
15.0086
14.7151
14.4425
14.189
13.9456
27.4221
53.3176
112.195
207.179
188.595
147.326
49.9321
46.1892
43.2775
40.9668
39.0797
37.4825
36.1141
34.9856
34.2573
34.7193
37.6216
43.5323
51.5141
59.9785
67.7542
74.0574
16.0011
15.6526
15.3238
15.0084
14.7148
14.4421
14.1884
13.9448
27.417
53.4417
326.996
269.209
209.969
59.2013
53.5773
49.1831
45.7118
42.9117
40.6385
38.9199
38.1648
39.2255
43.0234
49.5821
57.7239
66.0066
73.4626
79.692
84.4663
16.001
15.6516
15.3193
15.0019
14.7107
14.443
14.1868
13.9509
27.4146
26.6262
73.4376
216.713
225.17
186.178
38.8534
37.5611
36.2348
34.9069
33.7957
33.2592
34.1308
37.6179
44.2839
53.1968
62.7088
71.5808
79.1808
85.3316
90.1037
93.5744
16.001
15.6501
15.3158
15.0052
14.7133
14.444
14.1832
13.9516
13.7113
26.9201
26.7872
30.3907
31.5955
30.2891
13.8979
13.9568
14.1396
15.0274
18.5078
26.2549
37.1997
49.1121
60.4292
70.5186
79.0332
86.0331
91.5741
95.846
99.0273
101.242
16.0011
15.6495
15.3192
15.0129
14.7207
14.4411
14.1809
13.9484
13.7104
13.5009
13.3235
13.1314
12.9595
12.7769
12.613
12.6047
14.1984
20.8495
31.7305
43.9652
55.9031
66.781
76.2604
84.2559
90.7914
96.0631
100.139
103.223
105.431
106.897
16.0005
15.6509
15.3232
15.0138
14.7212
14.4415
14.1823
13.9385
13.7031
13.4588
13.2687
13.0977
12.9135
12.7303
12.5897
13.148
18.1568
29.0723
42.0741
54.879
66.5371
76.7065
85.2953
92.3691
98.0517
102.508
105.877
108.368
110.084
111.172
15.9996
15.6519
15.3238
15.0137
14.7213
14.4428
14.1879
13.9337
13.6968
13.4699
13.265
13.0534
12.8668
12.7019
12.609
14.0578
21.7374
34.545
48.361
61.3793
72.9191
82.7791
90.9672
97.6106
102.865
106.922
109.945
112.097
113.552
114.447
15.9997
15.6519
15.3241
15.0146
14.7215
14.4426
14.1851
13.9296
13.6923
13.4636
13.2536
13.0732
12.8843
12.6851
12.6563
15.0271
24.4411
38.2189
52.444
65.5778
77.0651
86.7776
94.7563
101.172
106.196
110.021
112.841
114.815
116.124
116.906
15.9998
15.652
15.3243
15.0153
14.7218
14.4421
14.1817
13.9261
13.688
13.459
13.2465
13.0593
12.8677
12.6746
12.7124
15.8257
26.2866
40.5902
55.0383
68.2411
79.7091
89.3501
97.2316
103.524
108.427
112.135
114.839
116.716
117.952
118.691
15.9997
15.6519
15.3241
15.015
14.7216
14.442
14.1789
13.9231
13.6837
13.4549
13.2419
13.0498
12.8565
12.6678
12.7495
16.2862
27.2721
41.8401
56.4165
69.6774
81.1614
90.7904
98.6465
104.894
109.747
113.414
116.078
117.919
119.126
119.861
15.9996
15.6514
15.3233
15.0142
14.7214
14.442
14.1781
13.9229
13.684
13.4558
13.2389
13.0427
12.8481
12.663
12.7466
16.3254
27.3855
42.0323
56.6734
69.9912
81.5225
91.1879
99.07
105.34
110.208
113.897
116.58
118.433
119.657
120.412
1.98317
2.15743
2.30797
2.43962
2.55606
2.66011
2.75448
2.84053
2.91929
2.98851
3.05046
3.1044
3.14274
3.17576
3.20418
3.22907
3.26022
3.27927
3.29591
3.31061
3.32367
3.33524
3.34557
3.35482
3.36185
3.36407
3.36453
3.43268
3.74506
4.40817
1.98317
2.15746
2.30809
2.43981
2.55617
2.6607
2.75628
2.84331
2.9251
2.99493
3.05899
3.11927
3.1571
3.18894
3.21634
3.2403
3.27084
3.28919
3.30516
3.31923
3.3317
3.34267
3.35219
3.35972
3.36056
3.36021
3.40842
3.63581
4.20381
5.10644
1.98318
2.15753
2.30829
2.44022
2.55669
2.66229
2.75987
2.84939
2.93517
3.00985
3.07871
3.14682
3.18398
3.21401
3.2396
3.262
3.29052
3.3078
3.32278
3.33597
3.34762
3.35757
3.36524
3.3666
3.36735
3.42147
3.6583
4.2274
5.17963
6.39269
1.9832
2.15767
2.30854
2.44092
2.55787
2.66474
2.76521
2.85903
2.95206
3.03664
3.11537
3.1945
3.23048
3.25756
3.28003
3.2997
3.3243
3.3398
3.35322
3.36508
3.37537
3.38276
3.38539
3.38826
3.44401
3.68108
4.25611
5.23017
6.54655
8.03759
1.98322
2.15775
2.30847
2.44172
2.55938
2.66731
2.7723
2.87283
2.97889
3.08416
3.18246
3.26528
3.29951
3.32283
3.34118
3.3572
3.37459
3.38814
3.40038
3.41189
3.42192
3.42856
3.43666
3.48931
3.6943
4.21318
5.14573
6.46739
8.0784
9.79975
1.98313
2.15731
2.30827
2.44248
2.56078
2.66875
2.7805
2.89274
3.02117
3.17299
3.31423
3.39938
3.43371
3.4495
3.45967
3.47
3.48318
3.49793
3.51724
3.54282
3.57444
3.61301
3.68534
3.86507
4.2737
5.05096
6.25415
7.83166
9.67217
11.5885
1.98267
2.15551
2.30892
2.44362
2.5641
2.67449
2.79238
2.92191
3.0921
3.3132
3.53543
3.64933
3.68843
3.69573
3.72518
3.77067
3.8599
3.99452
4.18225
4.41558
4.67313
4.94337
5.24079
5.62692
6.19198
7.05256
8.2915
9.9081
11.8056
13.7927
1.98244
2.15484
2.30448
2.43653
2.56784
2.68371
2.80746
2.96148
3.18887
3.56447
4.49465
5.04229
5.2051
5.25814
7.68095
9.18322
10.3227
11.3871
12.3318
13.1113
13.6927
14.0442
14.188
14.2625
14.2905
14.3381
14.556
15.1343
16.1794
17.5963
1.98242
2.15473
2.30285
2.43148
2.56864
2.69031
2.82012
3.00576
3.34861
4.61146
8.78825
10.8098
11.7765
13.3814
58.947
53.2633
48.4574
44.3685
40.9235
37.9831
35.4262
33.1604
31.092
29.0708
27.0201
25.011
23.3077
22.2995
22.1734
22.7512
1.98245
2.1557
2.30613
2.43449
2.56681
2.69022
2.82363
3.0256
3.44137
5.62444
80.8029
359.351
416.257
213.714
94.9029
71.9184
59.0165
50.584
44.5868
40.0551
36.5041
33.6499
31.2954
29.3029
27.6309
26.3667
25.6482
25.519
25.8884
26.5907
1.98245
2.1557
2.30613
2.4345
2.56686
2.6903
2.8237
3.0259
3.46954
6.914
757.483
105.722
77.6982
62.5232
53.134
46.7346
42.0038
38.217
34.927
31.9591
29.4135
27.5706
26.6243
26.5243
27.0427
27.908
28.8929
1.98242
2.15472
2.30284
2.43147
2.56866
2.69041
2.82034
3.00652
3.3665
5.386
25.5044
122.508
186.141
144.58
52.9482
48.0729
43.5001
39.3715
35.563
31.9969
28.7853
26.1527
24.4556
23.8314
24.1874
25.2101
26.5804
28.0533
29.4714
30.7085
1.98244
2.15483
2.30448
2.43653
2.56788
2.68387
2.80784
2.96164
3.18865
3.71704
5.61099
7.55024
8.50257
8.83891
9.03784
10.7097
11.4715
11.3044
11.4239
12.1891
13.727
15.8969
18.3838
20.9496
23.4458
25.7525
27.842
29.6717
31.2254
32.4639
1.98266
2.1555
2.30893
2.44367
2.56423
2.67476
2.79292
2.92292
3.09411
3.3245
3.60206
3.79803
3.89689
3.93595
3.98352
4.05447
4.36776
5.37992
7.31381
9.97232
13.048
16.269
19.4318
22.4234
25.1525
27.5706
29.6714
31.4314
32.8772
33.9904
1.98312
2.1573
2.30828
2.44254
2.56093
2.66904
2.78103
2.89379
3.02355
3.18017
3.3433
3.46357
3.52318
3.54642
3.54663
3.58498
4.10445
5.62075
8.07471
11.1388
14.5053
17.9241
21.2064
24.2354
26.9402
29.2897
31.294
32.9522
34.2786
35.2633
1.98321
2.15774
2.30848
2.44178
2.55953
2.66759
2.7728
2.87376
2.98078
3.08886
3.19604
3.29384
3.32883
3.35367
3.36315
3.49112
4.32714
6.24808
9.04111
12.3479
15.8634
19.3618
22.6802
25.6977
28.367
30.6588
32.5757
34.1467
35.3886
36.294
1.98319
2.15766
2.30856
2.44099
2.55801
2.665
2.76562
2.8597
2.95327
3.0392
3.1217
3.20672
3.24272
3.2682
3.28423
3.50448
4.59234
6.7923
9.81079
13.2784
16.8956
20.4413
23.7761
26.7841
29.4165
31.6639
33.5277
35.0348
36.2119
37.0613
1.98317
2.15752
2.30831
2.44028
2.55682
2.6625
2.76019
2.84983
2.93578
3.01086
3.08078
3.15028
3.18701
3.21366
3.23792
3.53632
4.79896
7.17804
10.3398
13.9107
17.5947
21.1754
24.5153
27.5171
30.1306
32.343
34.1725
35.6423
36.7785
37.5894
1.98316
2.15745
2.3081
2.43987
2.55629
2.66089
2.75653
2.84356
2.92528
2.99494
3.05868
3.11803
3.15527
3.18276
3.21261
3.55644
4.91209
7.38508
10.6235
14.2518
17.9749
21.5783
24.9198
27.9174
30.5267
32.7267
34.5361
35.9842
37.1023
37.8928
1.98316
2.15742
2.30798
2.43967
2.55617
2.66027
2.75466
2.84065
2.9192
2.98793
3.04894
3.10087
3.13818
3.16655
3.19763
3.5461
4.91324
7.40177
10.6564
14.3004
18.0375
21.6521
25.0006
27.9991
30.6133
32.8176
34.6263
36.0715
37.1876
37.9735
1.77811
1.78053
1.78619
1.79427
1.80422
1.81573
1.82879
1.8431
1.85845
1.8744
1.88974
1.90392
1.91623
1.92718
1.93742
1.94716
1.95662
1.96587
1.9747
1.9832
1.9914
1.99931
2.00697
2.01476
2.02776
2.06506
2.17446
2.39076
2.7138
3.10214
1.77811
1.78054
1.7862
1.79425
1.80412
1.81574
1.82919
1.84373
1.85954
1.87632
1.89253
1.90726
1.92003
1.93108
1.94125
1.95094
1.9603
1.96953
1.9783
1.98673
1.99485
2.00271
2.01103
2.02546
2.07683
2.19438
2.38864
2.67195
3.05459
3.49945
1.77811
1.78054
1.78622
1.79427
1.80405
1.81592
1.82987
1.845
1.86189
1.88061
1.89888
1.91472
1.9282
1.93946
1.94953
1.95912
1.96835
1.97758
1.98629
1.99468
2.00284
2.01175
2.03006
2.09466
2.23483
2.4507
2.7502
3.14389
3.64408
4.19493
1.77811
1.78055
1.78622
1.79434
1.80415
1.81624
1.83085
1.84699
1.86579
1.8884
1.91123
1.92915
1.94393
1.95531
1.96524
1.97469
1.98383
1.99304
2.00178
2.01038
2.01994
2.04066
2.11577
2.27878
2.52187
2.85065
3.27487
3.81037
4.45589
5.1318
1.77811
1.78054
1.78613
1.79443
1.80432
1.81659
1.83213
1.8499
1.87248
1.90256
1.93344
1.9563
1.97285
1.98487
1.99467
2.0039
2.01312
2.02293
2.03334
2.04577
2.06934
2.14982
2.33619
2.61984
2.99056
3.45607
4.02893
4.71665
5.50429
6.29671
1.77811
1.78048
1.78602
1.79452
1.8045
1.8168
1.83365
1.85447
1.88404
1.92624
1.97398
2.00477
2.02537
2.03862
2.0497
2.06183
2.07882
2.10424
2.14144
2.19365
2.29804
2.51613
2.8685
3.32552
3.87398
4.50681
5.22625
6.03403
6.91556
7.77699
1.77808
1.78039
1.786
1.79462
1.80504
1.8178
1.83607
1.86156
1.90062
1.96901
2.06149
2.11981
2.15111
2.16564
2.22399
2.312
2.47806
2.72191
3.04498
3.3781
3.75149
4.19411
4.75012
5.40832
6.11539
6.82468
7.53299
8.26885
9.0545
9.82954
1.77808
1.78036
1.78593
1.79417
1.80568
1.81948
1.83926
1.8707
1.92949
2.01628
2.26844
2.57136
2.69151
2.77831
5.72648
7.38166
8.89614
10.2168
11.3221
12.1865
12.6623
12.7866
12.7497
12.6412
12.4928
12.3219
12.1856
12.1746
12.3561
12.6999
1.77808
1.78036
1.78584
1.79383
1.80586
1.82062
1.84188
1.87808
1.94558
2.24423
2.97811
6.24146
9.11415
12.207
52.1246
47.6
43.6864
40.2835
37.2377
34.4029
31.6945
29.0698
26.5719
24.0144
21.5044
19.2636
17.5232
16.3849
15.815
15.6794
1.77808
1.78039
1.78604
1.79387
1.80573
1.8209
1.84264
1.88378
1.97525
2.4852
8.93039
552.65
420.797
211.318
120.385
88.5437
70.2165
58.3494
49.9193
43.5312
38.4762
34.2717
30.3385
26.5461
23.2167
20.6584
18.9535
17.9924
17.5902
17.5484
1.77808
1.78039
1.78604
1.79387
1.80574
1.82089
1.8426
1.8837
1.98196
2.79518
131.09
194.616
118.059
85.4351
67.1628
55.4173
46.9886
40.4782
35.1278
30.2675
25.9935
22.634
20.3187
18.934
18.2637
18.0919
18.2348
18.5225
1.77808
1.78036
1.78584
1.79383
1.80586
1.8206
1.84182
1.87798
1.95412
2.43511
4.95126
335.511
249.416
164.386
55.7577
48.5101
42.147
36.4082
31.1635
26.3931
22.3954
19.5299
17.8029
16.9612
16.7531
16.9562
17.4119
18.0029
18.6401
19.2137
1.77808
1.78036
1.78592
1.79417
1.80567
1.81945
1.83917
1.87072
1.92858
2.0554
2.49379
3.22229
3.46936
4.94883
10.381
12.1751
11.6617
10.8297
10.3954
10.4977
11.0264
11.8543
12.8613
13.9673
15.112
16.2367
17.3143
18.3109
19.1998
19.9085
1.77808
1.78039
1.78599
1.79462
1.80504
1.81777
1.83596
1.86124
1.90004
1.96925
2.07043
2.14467
2.194
2.21839
2.3735
2.73766
3.40848
4.32748
5.50916
6.9272
8.51278
10.185
11.8671
13.5068
15.0541
16.481
17.7702
18.8973
19.8603
20.5959
1.7781
1.78047
1.78602
1.79451
1.80449
1.81677
1.83354
1.85417
1.8834
1.92618
1.97783
2.01657
2.04514
2.06333
2.09045
2.25161
2.74208
3.64594
4.94048
6.53544
8.32423
10.1992
12.0713
13.8694
15.5374
17.0481
18.3897
19.5463
20.5113
21.2308
1.77811
1.78054
1.78613
1.79443
1.80431
1.81655
1.83202
1.84961
1.87189
1.9019
1.93471
1.96117
1.98224
1.99682
2.03044
2.21338
2.73818
3.7048
5.08237
6.76824
8.64303
10.5985
12.5409
14.3922
16.1033
17.6367
18.9789
20.1281
21.0756
21.7717
1.77811
1.78055
1.78622
1.79434
1.80413
1.8162
1.83072
1.84669
1.86518
1.88747
1.91055
1.92981
1.94647
1.96024
2.00672
2.23103
2.82367
3.87128
5.32762
7.08361
9.01728
11.0156
12.9931
14.8643
16.5863
18.1242
19.4589
20.5902
21.5159
22.1886
1.77811
1.78054
1.78621
1.79426
1.80404
1.81586
1.82973
1.84469
1.86125
1.87953
1.89749
1.91333
1.92692
1.9408
1.99778
2.25483
2.90262
4.01355
5.52905
7.33509
9.30836
11.336
13.3288
15.2127
16.9355
18.469
19.7956
20.9131
21.8202
22.4739
1.7781
1.78053
1.7862
1.79424
1.8041
1.81569
1.82904
1.84339
1.85886
1.87514
1.89074
1.90483
1.91674
1.93057
1.9935
2.26835
2.94629
4.09183
5.64003
7.47381
9.46903
11.5128
13.5125
15.4016
17.1275
18.657
19.9776
21.0861
21.984
22.6259
1.7781
1.78053
1.78619
1.79426
1.8042
1.81567
1.82864
1.84276
1.85776
1.87316
1.88775
1.90099
1.91238
1.92588
1.98856
2.26313
2.94201
4.08966
5.64104
7.47853
9.47761
11.5251
13.5283
15.4169
17.1469
18.6771
19.9989
21.1068
22.0038
22.6427
1.77241
1.7651
1.75824
1.75184
1.74596
1.74068
1.73613
1.73234
1.72932
1.72706
1.72525
1.72339
1.7212
1.71894
1.71679
1.71487
1.71317
1.71185
1.71077
1.70993
1.70932
1.70903
1.71062
1.72992
1.81842
1.99887
2.21444
2.47676
2.77541
3.06937
1.7724
1.7651
1.75823
1.75182
1.74593
1.74067
1.73623
1.7325
1.72964
1.72765
1.72616
1.72454
1.72246
1.72026
1.71814
1.71624
1.71459
1.71327
1.71222
1.71141
1.71104
1.71332
1.74045
1.88919
2.17629
2.39834
2.56776
2.79978
3.09136
3.39291
1.77241
1.7651
1.75824
1.75182
1.74591
1.74071
1.73639
1.73282
1.73033
1.72902
1.72834
1.72736
1.72558
1.72357
1.72151
1.71967
1.71813
1.71685
1.7159
1.71541
1.7182
1.75214
1.94314
2.27537
2.5357
2.72082
2.95456
3.2466
3.5941
3.94271
1.77241
1.7651
1.75823
1.75182
1.74592
1.74077
1.7366
1.73332
1.73149
1.73168
1.73285
1.73312
1.73216
1.73048
1.72857
1.72687
1.72548
1.7244
1.72385
1.72644
1.76132
1.97141
2.35014
2.66974
2.88542
3.14407
3.46577
3.84772
4.2797
4.69596
1.77241
1.7651
1.75823
1.75184
1.74595
1.74086
1.73688
1.73411
1.73363
1.73679
1.74161
1.74441
1.74519
1.74437
1.74288
1.7415
1.74048
1.7404
1.74311
1.77311
1.97284
2.39399
2.81516
3.11252
3.40361
3.76946
4.19823
4.67888
5.19583
5.67569
1.77241
1.7651
1.75822
1.75187
1.746
1.74097
1.73727
1.73549
1.73764
1.74615
1.75874
1.76629
1.77077
1.77171
1.77194
1.77297
1.77657
1.7864
1.81783
1.9809
2.42308
2.96195
3.4281
3.83287
4.28357
4.79002
5.32614
5.88153
6.44603
6.95197
1.77241
1.7651
1.75822
1.75189
1.74608
1.74116
1.7379
1.73775
1.74432
1.76542
1.801
1.82495
1.83718
1.84029
1.86556
1.90548
1.98018
2.09432
2.29266
2.7037
3.31727
3.96672
4.62491
5.32188
5.99198
6.605
7.16147
7.67977
8.17781
8.61544
1.77241
1.7651
1.75822
1.75188
1.74618
1.74144
1.73875
1.74096
1.75619
1.81139
1.85768
2.00496
2.06997
2.1072
3.01299
3.75038
4.61212
5.41546
6.00166
6.47599
7.02899
7.69144
8.37273
8.94558
9.38723
9.71047
9.95132
10.1619
10.3883
10.618
1.77241
1.76511
1.75823
1.75185
1.74625
1.74169
1.73959
1.74428
1.77393
1.82804
2.14154
3.27454
3.92312
5.08981
19.0221
20.4682
21.4965
21.7788
21.1158
19.7804
18.4105
17.0129
15.7102
14.6404
13.8253
13.2374
12.8248
12.5745
12.4813
12.5012
1.77241
1.76511
1.75826
1.75188
1.74622
1.74176
1.74013
1.74711
1.79479
1.9075
2.86714
89.6099
148.569
165.573
57.199
51.319
45.9375
40.8673
35.661
30.5333
26.2861
22.4862
19.3954
17.1428
15.6358
14.6723
14.0937
13.7994
13.714
13.7489
1.77241
1.76511
1.75826
1.75188
1.74622
1.74174
1.74009
1.74696
1.79436
1.93554
3.40726
549.756
367.228
239.086
63.451
54.262
46.4373
39.3136
32.5318
27.0792
22.4999
19.1069
16.8391
15.4256
14.6041
14.1803
14.0337
14.0794
14.247
14.446
1.77241
1.7651
1.75823
1.75184
1.74623
1.74164
1.73946
1.74391
1.7726
1.85929
2.41607
37.571
106.126
113.333
32.9926
30.4953
26.349
21.9201
18.1983
15.5618
14.0002
13.1819
12.8333
12.7925
12.9598
13.2645
13.657
14.094
14.5361
14.9058
1.7724
1.7651
1.75821
1.75187
1.74616
1.74137
1.73856
1.7405
1.75471
1.80843
1.91244
2.25152
2.38599
4.57906
6.16458
6.29052
6.49091
6.89086
7.45196
8.09333
8.79707
9.55689
10.3532
11.1697
11.9822
12.7735
13.5251
14.2214
14.8428
15.3202
1.7724
1.76509
1.75821
1.75188
1.74605
1.74108
1.73767
1.73719
1.74308
1.76296
1.79839
1.82565
1.84403
1.853
2.00853
2.37223
3.00969
3.84882
4.83897
5.93688
7.10216
8.29823
9.48666
10.6397
11.7323
12.7494
13.6746
14.498
15.205
15.7295
1.7724
1.76509
1.75821
1.75185
1.74596
1.74087
1.73704
1.73493
1.73646
1.74429
1.75677
1.7661
1.77333
1.77917
1.82182
2.03449
2.52157
3.27885
4.26684
5.42994
6.70558
8.03321
9.36509
10.6509
11.8608
12.9716
13.9697
14.8448
15.5835
16.1222
1.7724
1.7651
1.75822
1.75182
1.74591
1.74075
1.73664
1.73358
1.73255
1.73499
1.73959
1.74336
1.74632
1.75089
1.79873
2.00839
2.4757
3.22346
4.22206
5.4168
6.74005
8.12479
9.51428
10.8582
12.1185
13.2692
14.2936
15.1847
15.93
16.4665
1.7724
1.7651
1.75823
1.7518
1.74588
1.74066
1.73636
1.73281
1.73051
1.73002
1.73064
1.73114
1.73138
1.7363
1.79658
2.02796
2.51584
3.28665
4.31192
5.53608
6.89081
8.30734
9.72494
11.0948
12.3771
13.5434
14.5773
15.4696
16.2101
16.7383
1.7724
1.7651
1.75823
1.7518
1.74586
1.7406
1.73615
1.73232
1.7294
1.72746
1.72615
1.72486
1.72358
1.72925
1.79951
2.05038
2.56221
3.35846
4.40874
5.65637
7.03269
8.46849
9.90235
11.2834
12.576
13.7465
14.7818
15.6715
16.4051
16.9246
1.7724
1.7651
1.75823
1.7518
1.74588
1.74056
1.73599
1.73202
1.72875
1.72617
1.724
1.72184
1.71991
1.72595
1.80133
2.06245
2.58845
3.39873
4.46288
5.72326
7.11088
8.55645
9.99818
11.3853
12.6802
13.8534
14.8874
15.7752
16.5049
17.0183
1.77241
1.7651
1.75823
1.75182
1.74591
1.74057
1.73589
1.73187
1.72846
1.72562
1.7231
1.7206
1.71836
1.72405
1.79852
2.05779
2.58202
3.39013
4.4521
5.71137
7.0988
8.54504
9.98812
11.377
12.6724
13.8487
14.8843
15.7725
16.5033
17.0156
1.77224
1.76449
1.75683
1.74929
1.74186
1.7346
1.72759
1.72088
1.71453
1.70857
1.70286
1.69714
1.69125
1.68532
1.67948
1.67383
1.66842
1.66331
1.65849
1.65396
1.64984
1.64783
1.66772
1.82292
2.13465
2.4051
2.5849
2.80562
3.05896
3.29555
1.77223
1.76448
1.75683
1.74927
1.74185
1.7346
1.7276
1.72093
1.71466
1.70883
1.70329
1.69769
1.69188
1.68598
1.68015
1.67451
1.66913
1.66402
1.65924
1.65492
1.65354
1.68197
1.87993
2.23679
2.57018
2.76467
2.90585
3.10261
3.34579
3.58136
1.77224
1.76449
1.75683
1.74928
1.74185
1.73462
1.72766
1.72106
1.71497
1.70945
1.70433
1.69907
1.69344
1.68763
1.68184
1.67625
1.67094
1.66589
1.66135
1.65999
1.69492
1.92294
2.3128
2.67454
2.90332
3.0765
3.27898
3.52562
3.80566
4.06715
1.77224
1.76449
1.75683
1.74928
1.74187
1.73465
1.72775
1.72129
1.71555
1.71072
1.70648
1.70193
1.69675
1.69118
1.68551
1.68004
1.67487
1.67009
1.66793
1.69976
1.93447
2.3488
2.74088
3.0077
3.23329
3.48299
3.77052
4.08984
4.42958
4.73317
1.77224
1.76449
1.75683
1.74928
1.74188
1.7347
1.72788
1.72169
1.71657
1.71316
1.71079
1.70769
1.70354
1.69858
1.69324
1.68805
1.68322
1.68015
1.70207
1.9138
2.34369
2.78826
3.11589
3.40772
3.72467
4.07661
4.45549
4.85092
5.25001
5.59316
1.77224
1.76449
1.75683
1.74929
1.7419
1.73476
1.72809
1.72233
1.71844
1.7179
1.71986
1.71959
1.71792
1.71409
1.70961
1.70533
1.70235
1.71349
1.87229
2.2929
2.81129
3.24712
3.63036
4.04931
4.50243
4.9691
5.43206
5.88461
6.31749
6.67571
1.77224
1.76449
1.75683
1.7493
1.74193
1.73485
1.72838
1.72337
1.7217
1.72762
1.74091
1.74639
1.75036
1.74926
1.74839
1.75157
1.76509
1.84824
2.2117
2.79342
3.4039
3.96518
4.54526
5.16292
5.76047
6.31173
6.8084
7.25648
7.66186
7.98525
1.77224
1.76449
1.75684
1.7493
1.74196
1.73496
1.72877
1.72483
1.72745
1.74606
1.79208
1.82631
1.84403
1.84563
1.90033
1.9946
2.13181
2.41601
2.97278
3.74896
4.64203
5.53671
6.36825
7.08414
7.68033
8.16495
8.56131
8.89547
9.18975
9.42196
1.77224
1.76451
1.75685
1.74931
1.74198
1.73505
1.72916
1.72653
1.73499
1.77927
1.83439
2.06825
2.15604
2.2187
3.26087
4.11444
4.54928
5.1107
5.93819
6.90835
7.81107
8.56378
9.13789
9.55602
9.85251
10.0734
10.2524
10.4177
10.585
10.729
1.77225
1.76451
1.75686
1.74933
1.74199
1.73508
1.7294
1.72781
1.74238
1.81573
1.99558
3.15785
3.35644
3.88619
8.21219
10.5533
11.3011
11.0716
10.9422
10.9228
10.9548
11.0151
11.0548
11.0806
11.1118
11.1657
11.2538
11.3792
11.5339
11.6749
1.77225
1.76451
1.75686
1.74933
1.74198
1.73507
1.72936
1.7277
1.74204
1.81532
2.05771
3.84638
4.05915
6.88409
12.6622
14.5297
13.6277
12.4689
11.6091
11.1252
10.9325
10.8834
10.9155
11.0092
11.151
11.3372
11.5599
11.8092
12.0672
12.2793
1.77224
1.7645
1.75684
1.7493
1.74196
1.735
1.72904
1.72622
1.73406
1.77681
1.8888
2.34957
2.48062
5.40586
6.89929
7.00079
7.15613
7.49716
7.95502
8.41438
8.86127
9.30578
9.7542
10.209
10.6656
11.1212
11.5675
11.9964
12.3905
12.6911
1.77224
1.76449
1.75683
1.74929
1.74193
1.73489
1.7286
1.72438
1.72635
1.74348
1.78723
1.82196
1.84095
1.84453
2.17118
2.75846
3.57463
4.47144
5.38367
6.27672
7.13999
7.97261
8.77371
9.54076
10.2689
10.9526
11.5847
12.1592
12.6605
13.0286
1.77223
1.76448
1.75683
1.74928
1.7419
1.73477
1.72817
1.72287
1.72059
1.72554
1.73775
1.74497
1.75167
1.75566
1.82621
2.12759
2.70141
3.46924
4.36022
5.32429
6.32282
7.32512
8.30722
9.24955
10.1371
10.9578
11.7033
12.3661
12.9318
13.3386
1.77223
1.76448
1.75683
1.74927
1.74186
1.73467
1.72786
1.72182
1.71739
1.71606
1.7175
1.71814
1.71858
1.72231
1.7891
2.02889
2.49905
3.18286
4.03399
5.00593
6.05133
7.12645
8.19463
9.22563
10.1978
11.0909
11.8966
12.6052
13.2032
13.6273
1.77223
1.76448
1.75682
1.74927
1.74183
1.73459
1.72765
1.72118
1.71557
1.71146
1.70857
1.70587
1.70344
1.70927
1.79061
2.03189
2.48103
3.14203
3.98299
4.96252
6.0322
7.14389
8.25536
9.33135
10.3457
11.2765
12.1104
12.84
13.4507
13.8791
1.77223
1.76448
1.75682
1.74926
1.74182
1.73454
1.72751
1.7208
1.71461
1.70914
1.7043
1.69973
1.69581
1.7044
1.7995
2.05555
2.51218
3.17739
4.02567
5.01697
6.1038
7.23687
8.37174
9.47102
10.5053
11.455
12.3016
13.0388
13.652
14.0786
1.77223
1.76448
1.75682
1.74926
1.7418
1.7345
1.72742
1.72057
1.71408
1.70797
1.70223
1.69667
1.69195
1.70293
1.8079
2.07736
2.54643
3.22231
4.08092
5.08311
6.18186
7.3277
8.4754
9.58668
10.6313
11.5877
12.4406
13.1796
13.7915
14.2142
1.77223
1.76448
1.75682
1.74925
1.7418
1.73448
1.72736
1.72045
1.7138
1.70741
1.70124
1.69521
1.69008
1.70225
1.81184
2.088
2.56434
3.24604
4.10996
5.11754
6.22193
7.3737
8.52733
9.64421
10.6936
11.6528
12.5084
13.2479
13.8587
14.2787
1.77224
1.76449
1.75683
1.74927
1.74181
1.73449
1.72735
1.72041
1.71368
1.70718
1.70084
1.69461
1.68924
1.70084
1.80865
2.0822
2.556
3.23378
4.09316
5.09757
6.19999
7.35108
8.50517
9.62342
10.6747
11.6363
12.4935
13.2353
13.8475
14.2677
1.77223
1.76446
1.75677
1.74915
1.74161
1.73418
1.72689
1.71981
1.71294
1.70635
1.69992
1.69349
1.68694
1.68034
1.67377
1.66735
1.66113
1.65513
1.64941
1.64402
1.63999
1.6511
1.77471
2.08495
2.44943
2.68642
2.89233
3.11957
3.35958
3.5695
1.77223
1.76446
1.75676
1.74914
1.7416
1.73417
1.7269
1.71983
1.71302
1.7065
1.70018
1.69383
1.68731
1.68073
1.67416
1.66774
1.66154
1.65555
1.64993
1.64597
1.66199
1.82027
2.17429
2.57725
2.87247
3.04235
3.1958
3.39496
3.6233
3.82941
1.77223
1.76446
1.75676
1.74914
1.7416
1.73418
1.72693
1.71992
1.71321
1.70687
1.70079
1.69463
1.68823
1.68169
1.67514
1.66875
1.6626
1.65672
1.65246
1.66997
1.84565
2.22665
2.65146
2.97249
3.17957
3.36153
3.5652
3.79905
4.0511
4.27172
1.77223
1.76446
1.75676
1.74914
1.74162
1.73421
1.72699
1.72007
1.71355
1.70759
1.702
1.69625
1.69011
1.68372
1.67724
1.67093
1.66492
1.66002
1.67343
1.84224
2.23078
2.67242
3.01832
3.26739
3.50412
3.75885
4.03569
4.32813
4.62406
4.87244
1.77223
1.76446
1.75676
1.74915
1.74163
1.73424
1.72708
1.72031
1.71415
1.70892
1.70437
1.6994
1.69388
1.6878
1.68154
1.67544
1.67005
1.67649
1.81376
2.18831
2.6501
3.03469
3.33725
3.63725
3.9604
4.30482
4.65881
5.01279
5.3535
5.6292
1.77223
1.76446
1.75677
1.74915
1.74164
1.73429
1.72721
1.72068
1.71519
1.71138
1.70901
1.70562
1.70145
1.69607
1.69032
1.68481
1.6842
1.77226
2.10455
2.58245
3.02082
3.39148
3.77252
4.186
4.62197
5.05883
5.4816
5.88338
6.25324
6.54181
1.77223
1.76446
1.75677
1.74916
1.74166
1.73434
1.72738
1.72124
1.71687
1.71596
1.71853
1.71838
1.71689
1.71321
1.70879
1.70577
1.73571
1.99205
2.46951
2.96769
3.42883
3.91976
4.45793
5.01644
5.55876
6.06549
6.52683
6.94156
7.30762
7.5832
1.77224
1.76447
1.75677
1.74916
1.74168
1.7344
1.72759
1.72199
1.71942
1.72439
1.73837
1.74384
1.74808
1.7474
1.74775
1.75966
1.89556
2.312
2.8816
3.44939
4.10334
4.8238
5.53269
6.18807
6.77469
7.28514
7.72531
8.10483
8.4294
8.6671
1.77224
1.76448
1.75677
1.74917
1.74169
1.73445
1.7278
1.7228
1.72284
1.73617
1.77311
1.79784
1.81251
1.81471
1.85454
1.94573
2.22687
2.80386
3.58652
4.46728
5.34768
6.16327
6.89051
7.51513
8.03993
8.48069
8.85297
9.1735
9.44915
9.64989
1.77224
1.76449
1.75679
1.74918
1.7417
1.73447
1.72792
1.72335
1.72564
1.74877
1.82238
1.86996
1.90769
1.91309
2.04696
2.36416
3.05222
3.94119
4.88639
5.79265
6.6109
7.32994
7.95226
8.47903
8.92553
9.31058
9.64933
9.9523
10.2205
10.4172
1.77224
1.76448
1.75679
1.74918
1.74169
1.73445
1.72788
1.72327
1.72546
1.74828
1.82109
1.8679
1.90865
1.92922
2.19788
2.80076
3.68239
4.60403
5.48913
6.29948
7.03312
7.68969
8.27824
8.79994
9.2673
9.69014
10.0756
10.4275
10.7393
10.9664
1.77224
1.76447
1.75677
1.74916
1.74168
1.73441
1.7277
1.72257
1.72229
1.73485
1.77023
1.79511
1.81133
1.81931
2.04965
2.54533
3.29778
4.15759
5.03558
5.87959
6.66893
7.40087
8.07726
8.69954
9.27313
9.79955
10.2813
10.7164
11.0949
11.3662
1.77224
1.76446
1.75677
1.74915
1.74165
1.73434
1.72745
1.72165
1.71866
1.72298
1.73601
1.74277
1.74921
1.75313
1.8442
2.20134
2.81436
3.58579
4.43351
5.30322
6.16203
6.99116
7.78065
8.52301
9.21281
9.84675
10.4227
10.9359
11.3752
11.6851
1.77223
1.76446
1.75676
1.74914
1.74163
1.73426
1.7272
1.72084
1.71604
1.71449
1.71665
1.71745
1.71817
1.72433
1.82387
2.11974
2.61416
3.28988
4.08495
4.94994
5.84495
6.73909
7.61054
8.4407
9.21706
9.93062
10.5747
11.1439
11.6253
11.9609
1.77223
1.76446
1.75676
1.74913
1.74161
1.7342
1.72701
1.72025
1.71434
1.70995
1.70724
1.70444
1.70245
1.71847
1.86252
2.12689
2.56645
3.18984
3.95289
4.81165
5.72552
6.65772
7.57824
8.46291
9.29415
10.0584
10.7459
11.3496
11.8559
12.2051
1.77223
1.76446
1.75676
1.74913
1.74158
1.73414
1.72687
1.71986
1.71331
1.70753
1.70256
1.6979
1.6948
1.72292
1.88492
2.15032
2.58176
3.18903
3.9409
4.80001
5.72666
6.68192
7.63208
8.5493
9.41205
10.2049
10.917
11.5395
12.0581
12.4126
1.77223
1.76446
1.75675
1.74912
1.74157
1.7341
1.72677
1.71962
1.71273
1.70624
1.70016
1.69442
1.69091
1.7284
1.90076
2.17659
2.61548
3.22404
3.9771
4.84116
5.77782
6.74769
7.7154
8.65128
9.53191
10.3401
11.0644
11.6961
12.2193
12.5746
1.77223
1.76446
1.75675
1.74912
1.74155
1.73407
1.7267
1.71947
1.71241
1.70556
1.69896
1.6926
1.68903
1.73327
1.9115
2.1972
2.64525
3.25949
4.01714
4.88648
5.83013
6.80879
7.78645
8.73257
9.62277
10.439
11.1692
11.8047
12.3289
12.683
1.77223
1.76446
1.75675
1.74912
1.74155
1.73406
1.72667
1.71939
1.71223
1.70522
1.69836
1.69169
1.68806
1.73524
1.91541
2.20602
2.65846
3.27526
4.03486
4.90617
5.85256
6.83497
7.81715
8.76815
9.66308
10.4835
11.2168
11.8539
12.3789
12.7316
1.77223
1.76446
1.75676
1.74914
1.74156
1.73407
1.72666
1.71937
1.71217
1.70509
1.69811
1.69129
1.68739
1.73288
1.91023
2.19848
2.64778
3.26025
4.01508
4.88254
5.82627
6.80742
7.78967
8.74184
9.63872
10.4615
11.1974
11.8366
12.3638
12.7169
1.77223
1.76446
1.75677
1.74915
1.7416
1.73415
1.72682
1.71967
1.71269
1.70593
1.69932
1.69273
1.68608
1.6794
1.67275
1.66623
1.65992
1.6538
1.64798
1.64284
1.64481
1.71455
1.96542
2.36652
2.71982
2.94272
3.16375
3.39734
3.6337
3.83087
1.77223
1.76446
1.75676
1.74913
1.74158
1.73414
1.72683
1.71969
1.71274
1.70602
1.69948
1.69294
1.68631
1.67963
1.67299
1.66647
1.66017
1.65408
1.64872
1.65193
1.74189
2.03667
2.46728
2.85173
3.11143
3.27379
3.44345
3.65159
3.87681
4.06924
1.77223
1.76446
1.75676
1.74913
1.74159
1.73415
1.72685
1.71974
1.71285
1.70625
1.69986
1.69343
1.68687
1.68022
1.67358
1.66709
1.66084
1.65513
1.65757
1.75135
2.06384
2.5128
2.91603
3.20359
3.40511
3.59433
3.80268
4.03402
4.2738
4.47398
1.77223
1.76446
1.75676
1.74914
1.7416
1.73417