/*--------------------------------*- C++ -*----------------------------------*\
| =========                 |                                                 |
| \\      /  F ield         | OpenFOAM: The Open Source CFD Toolbox           |
|  \\    /   O peration     | Version:  2512                                  |
|   \\  /    A nd           | Website:  www.openfoam.com                      |
|    \\/     M anipulation  |                                                 |
\*---------------------------------------------------------------------------*/
FoamFile
{
    version     2.0;
    format      ascii;
    arch        "LSB;label=32;scalar=64";
    class       volScalarField;
    location    "250";
    object      p;
}
// * * * * * * * * * * * * * * * * * * * * * * * * * * * * * * * * * * * * * //

dimensions      [0 2 -2 0 0 0 0];

internalField   nonuniform List<scalar> 
96507
(
9.45098
9.44319
9.42278
9.38384
9.31473
9.19427
8.98972
8.65731
8.1486
7.43552
6.55137
5.65261
4.99412
4.71947
4.696
4.64011
4.37596
3.9259
3.38457
2.79219
2.15193
1.48808
0.843326
0.251872
-0.262851
-0.680026
-0.967496
-1.09449
-0.942878
-0.577712
9.46032
9.45398
9.43746
9.40539
9.34676
9.24084
9.05378
8.7364
8.22837
7.48326
6.51877
5.52403
4.83428
4.62013
4.6881
4.68426
4.42108
3.9574
3.41103
2.81448
2.165
1.49186
0.841697
0.247978
-0.267131
-0.68347
-0.968159
-1.09022
-0.930133
-0.574367
9.47829
9.47488
9.46604
9.44767
9.41034
9.33483
9.18582
8.90384
8.40344
7.59426
6.44967
5.23423
4.4804
4.40949
4.68191
4.78629
4.5165
4.0199
3.46167
2.85593
2.18831
1.498
0.837886
0.239265
-0.278048
-0.693518
-0.970929
-1.08184
-0.908211
-0.573611
9.50386
9.50475
9.50716
9.50922
9.50466
9.47805
9.39455
9.18108
8.71079
7.80671
6.3331
4.70777
3.86397
4.06677
4.69317
4.96594
4.67121
4.12288
3.54751
2.92085
2.21871
1.50005
0.824665
0.218651
-0.300178
-0.708213
-0.967772
-1.0616
-0.874599
-0.574009
9.53541
9.54174
9.55853
9.58729
9.62743
9.67158
9.69178
9.60312
9.22294
8.19754
6.13103
3.78092
2.86448
3.58825
4.78179
5.25714
4.86893
4.25092
3.67396
3.02452
2.27462
1.51898
0.824518
0.209963
-0.306596
-0.699849
-0.937412
-1.01826
-0.825629
-0.574334
9.57092
9.58348
9.61693
9.67759
9.77397
9.91389
10.0908
10.22
10.0684
8.94368
5.78559
2.13934
1.24219
2.92918
5.07412
5.78707
5.14948
4.39214
3.80175
3.11489
2.3064
1.51431
0.806319
0.190701
-0.315123
-0.687797
-0.902943
-0.974047
-0.778575
-0.581956
9.60801
9.62705
9.67812
9.77369
9.93539
10.1967
10.6
11.1075
11.456
10.3188
5.17559
-0.602767
-1.23925
1.92398
5.57775
6.53483
5.57328
4.69002
4.0613
3.28614
2.3906
1.55405
0.830744
0.215095
-0.279872
-0.637039
-0.838786
-0.906329
-0.708971
-0.572933
9.6442
9.66931
9.73702
9.86654
10.0956
10.4967
11.1982
12.3579
13.9287
12.7778
6.09315
-3.12346
-4.51757
-0.405421
6.90702
7.25496
5.78269
4.94652
4.33514
3.44564
2.45137
1.57116
0.832436
0.217397
-0.262061
-0.5966
-0.780337
-0.838522
-0.64324
-0.510732
9.67711
9.7072
9.78855
9.94603
10.2332
10.765
11.799
13.8107
15.7734
19.8113
3.38158
-12.8652
-9.47414
-3.85598
10.2069
8.64691
6.08089
5.27181
4.69245
3.68165
2.584
1.65171
0.885499
0.267
-0.187978
-0.473971
-0.605144
-0.626953
-0.500581
-0.266388
9.70479
9.7381
9.8284
10.0039
10.3282
10.9403
12.226
15.0097
19.8454
31.295
-6.6376
-26.8473
-15.5975
-11.5826
13.7839
10.6421
6.88361
5.76869
5.02598
3.84632
2.64527
1.66403
0.862666
0.207435
-0.281997
-0.601512
-0.758915
-0.771885
-0.729104
-0.234548
9.7259
9.76032
9.85352
10.034
10.3656
10.9887
12.2927
15.1132
21.1375
44.2242
25.2285
-17.6329
-12.2728
13.071
10.2756
6.63889
5.57703
4.89941
3.78655
2.64134
1.71535
0.979687
0.396139
-0.0305102
-0.309977
-0.458391
-0.511477
-0.472531
-0.229533
9.73989
9.77328
9.86324
10.0353
10.3441
10.909
11.9955
14.1067
18.2914
26.7011
6.09132
-18.1597
-15.5425
-7.26496
9.69078
9.05251
6.59571
5.72021
5.16981
4.2479
3.25204
2.39762
1.66007
1.01133
0.477819
0.0777943
-0.174829
-0.326374
-0.271104
-0.341981
9.74705
9.77753
9.85925
10.0125
10.2767
10.7293
11.5081
12.7952
14.5797
16.7639
7.87991
-4.95817
-4.28058
0.062169
7.52822
8.36168
7.03392
6.2022
5.64852
4.80335
3.79841
2.85702
2.02539
1.3076
0.735
0.311574
0.0456151
-0.135048
-0.0795446
-0.348095
9.74831
9.77463
9.84471
9.9723
10.1806
10.5084
11.0078
11.6589
12.2432
11.537
7.01679
1.34691
0.82275
3.70778
7.04622
8.25056
7.49828
6.63067
5.93638
5.04569
4.03141
3.09252
2.28191
1.59455
1.04164
0.617758
0.334051
0.112433
0.126925
-0.288775
9.74511
9.76667
9.82348
9.92317
10.0759
10.2947
10.5814
10.867
10.9405
10.1567
7.44053
4.01418
3.29943
5.00759
7.10767
8.03382
7.57163
6.78329
6.04952
5.18992
4.24446
3.35507
2.573
1.90228
1.35301
0.922146
0.621574
0.367034
0.332725
-0.197675
9.73914
9.7559
9.79969
9.87343
9.97803
10.1109
10.252
10.3281
10.171
9.44757
7.74796
5.68612
5.01672
5.91855
7.25941
7.96888
7.71605
7.03739
6.27832
5.41462
4.49279
3.62018
2.84835
2.1877
1.64556
1.21443
0.901999
0.621468
0.537047
-0.0892608
9.73203
9.74451
9.77691
9.82875
9.89506
9.96493
10.0108
9.96889
9.7226
9.10447
7.97086
6.66954
6.13382
6.62027
7.52003
8.059
7.87343
7.23577
6.44995
5.58141
4.6836
3.8361
3.08425
2.44012
1.90883
1.48022
1.15973
0.858222
0.72721
0.0209781
9.72528
9.73436
9.75775
9.79278
9.83112
9.85792
9.84464
9.73957
9.46521
8.93724
8.12444
7.25581
6.85656
7.1401
7.76574
8.1684
7.99549
7.38549
6.59582
5.73157
4.85349
4.0256
3.28851
2.65575
2.13163
1.70458
1.37799
1.06068
0.891572
0.12061
9.72006
9.72682
9.74406
9.76783
9.78806
9.78834
9.74125
9.60457
9.32488
8.86034
8.22649
7.59359
7.28871
7.475
7.94708
8.26632
8.09288
7.49638
6.70445
5.84162
4.97501
4.1603
3.43396
2.80987
2.29168
1.86656
1.53669
1.2091
1.01428
0.194706
9.71714
9.72276
9.7369
9.75502
9.76638
9.75407
9.69166
9.542
9.26308
8.83103
8.27813
7.74895
7.4908
7.64043
8.04763
8.32879
8.14987
7.55606
6.76305
5.90228
5.0428
4.23591
3.51579
2.89632
2.38127
1.95707
1.62606
1.29222
1.08847
0.235381
9.44658
9.4386
9.41743
9.37726
9.30651
9.1843
8.97875
8.64728
8.14319
7.43982
6.57085
5.68801
5.03738
4.7563
4.7169
4.64542
4.37322
3.92197
3.37994
2.78497
2.1417
1.47525
0.827538
0.232062
-0.288351
-0.71032
-0.997903
-1.09764
-0.931071
-0.440844
9.45584
9.44926
9.4319
9.39841
9.33778
9.22953
9.04068
8.7234
8.21973
7.48599
6.54153
5.56841
4.88837
4.66406
4.71102
4.68841
4.41702
3.95321
3.40612
2.80664
2.15423
1.47876
0.825941
0.228392
-0.290957
-0.706961
-0.981567
-1.07059
-0.897947
-0.43669
9.4736
9.46986
9.46
9.4398
9.39969
9.32057
9.16798
8.88426
8.38747
7.59276
6.48098
5.30113
4.56011
4.46896
4.70806
4.78694
4.50929
4.01491
3.45614
2.84672
2.17597
1.48334
0.81971
0.216615
-0.301848
-0.705918
-0.957829
-1.0296
-0.844972
-0.431063
9.49889
9.49931
9.50043
9.50004
9.4915
9.45907
9.36858
9.1491
8.67985
7.79501
6.38091
4.8198
3.98796
4.15207
4.72438
4.96116
4.65941
4.11595
3.53971
2.90875
2.20364
1.48265
0.802437
0.192399
-0.31929
-0.701794
-0.925319
-0.977228
-0.777444
-0.423298
9.53012
9.53581
9.55093
9.57641
9.61082
9.64565
9.65254
9.5487
9.16029
8.16252
6.22137
3.98098
3.0566
3.70752
4.8143
5.24156
4.85248
4.24265
3.66128
3.00486
2.25132
1.49135
0.790539
0.175782
-0.324843
-0.684006
-0.878314
-0.91311
-0.704026
-0.422444
9.56528
9.57699
9.60832
9.66466
9.75293
9.87825
10.0307
10.1259
9.94058
8.84523
5.96461
2.50582
1.5304
3.08804
5.10824
5.75884
5.12705
4.38017
3.78036
3.08377
2.27022
1.47279
0.761324
0.15174
-0.33245
-0.666265
-0.834265
-0.860455
-0.651607
-0.440289
9.60203
9.62001
9.66849
9.75849
9.90903
10.1483
10.5085
10.9428
11.1973
10.1049
5.56191
0.0163854
-0.807565
2.11395
5.61354
6.54834
5.60004
4.70787
4.05374
3.26014
2.35223
1.50872
0.783974
0.175949
-0.297261
-0.615316
-0.771648
-0.802142
-0.610067
-0.449095
9.63791
9.66176
9.72648
9.84939
10.0641
10.4333
11.0633
12.0655
13.3421
12.5789
6.64475
-2.29614
-4.02545
-0.25056
6.8941
7.25233
5.80787
4.92891
4.27224
3.36374
2.35725
1.46809
0.72747
0.123185
-0.326166
-0.61551
-0.762802
-0.801315
-0.633819
-0.423419
9.67061
9.69925
9.7772
9.92745
10.198
10.6891
11.6132
13.3462
15.2263
18.1937
5.597
-8.43884
-8.70028
-4.90011
11.1347
9.08714
6.39465
5.44195
4.73883
3.66135
2.51957
1.54906
0.746577
0.0840526
-0.43767
-0.801164
-0.961622
-0.913471
-0.678996
-0.279642
9.69817
9.72995
9.81657
9.98416
10.29
10.8567
12.0011
14.3699
18.6417
28.2941
-2.84959
-40.9794
-10.803
-21.6476
15.7352
11.2861
7.08674
5.74487
4.86434
3.61355
2.35174
1.28679
0.391262
-0.316633
-0.768307
-0.958547
-0.94852
-0.817012
-0.635466
-0.18838
9.71928
9.75216
9.84168
10.0142
10.3273
10.9049
12.0669
14.4682
19.7256
39.302
-26.2663
15.0318
11.2534
6.93048
5.59132
4.7922
3.62476
2.43533
1.46781
0.728614
0.207308
-0.12228
-0.320661
-0.41724
-0.439662
-0.354628
-0.182736
9.7334
9.7653
9.85186
10.0167
10.3089
10.8326
11.8069
13.6282
17.3511
23.5873
2.8032
-29.7617
-11.1345
-11.0393
10.5496
9.39633
6.73993
5.81946
5.24509
4.32064
3.33527
2.48804
1.73905
1.06196
0.50189
0.0898212
-0.155867
-0.293353
-0.219789
-0.31903
9.74078
9.76993
9.8487
9.99534
10.245
10.665
11.3697
12.4895
13.9475
15.8441
7.97731
-4.3107
-3.58448
0.115225
7.3725
8.33199
7.09123
6.27293
5.68633
4.8019
3.77785
2.82768
1.98447
1.25639
0.680162
0.263773
0.0151914
-0.153069
-0.0797209
-0.384018
9.74235
9.76754
9.83506
9.95699
10.154
10.4591
10.9134
11.4848
11.9523
11.2172
7.15838
1.84249
1.25249
3.87818
7.02994
8.28067
7.53457
6.63475
5.88598
4.94219
3.90603
2.9647
2.15727
1.47719
0.93742
0.529317
0.263455
0.0488682
0.0855293
-0.386194
9.73951
9.76012
9.81483
9.91015
10.0547
10.2584
10.5192
10.7665
10.7954
10.0137
7.52204
4.32596
3.60169
5.18361
7.16515
8.04812
7.52971
6.70473
5.92256
5.01247
4.04789
3.16019
2.38947
1.73662
1.2076
0.794937
0.511578
0.256693
0.246672
-0.356359
9.73389
9.7499
9.79207
9.86253
9.96133
10.0846
10.2114
10.2696
10.099
9.39186
7.79995
5.86477
5.21926
6.06411
7.33468
7.98612
7.64679
6.89975
6.08116
5.17355
4.24092
3.3781
2.6222
1.97998
1.45765
1.04113
0.741762
0.45687
0.399739
-0.309527
9.72712
9.73902
9.77018
9.8196
9.88191
9.94585
9.9841
9.93471
9.68684
9.08365
8.00437
6.77557
6.272
6.74027
7.60422
8.08123
7.78558
7.05939
6.21198
5.30394
4.39519
3.55575
2.81768
2.18886
1.67416
1.25725
0.946325
0.636473
0.536924
-0.257426
9.72066
9.72928
9.75174
9.78499
9.82056
9.8437
9.8265
9.71898
9.44723
8.93245
8.15217
7.32622
6.95493
7.23856
7.84888
8.18898
7.89495
7.18238
6.32485
5.42046
4.52972
3.70742
2.98292
2.36297
1.8513
1.43303
1.1137
0.784953
0.650555
-0.21069
9.71565
9.72205
9.73855
9.76095
9.77921
9.77717
9.72813
9.59131
9.31579
8.86283
8.25088
7.64617
7.36419
7.56018
8.02936
8.28447
7.98151
7.27236
6.40771
5.50358
4.62226
3.81006
3.09375
2.4806
1.9713
1.55128
1.22678
0.885415
0.727851
-0.183767
9.71285
9.71813
9.73163
9.74858
9.75833
9.7443
9.68081
9.53199
9.25786
8.83644
8.30137
7.79481
7.55695
7.72044
8.13129
8.34679
8.03397
7.32232
6.45265
5.54759
4.67029
3.86295
3.15044
2.5403
2.03236
1.61046
1.28424
0.93265
0.773593
-0.187508
9.4376
9.42894
9.40593
9.36288
9.28843
9.16225
8.95381
8.6228
8.12612
7.44066
6.60134
5.75019
5.11482
4.82234
4.75501
4.65819
4.37377
3.91942
3.37519
2.77531
2.12656
1.45457
0.799723
0.19542
-0.333371
-0.753128
-1.00943
-1.0265
-0.803258
-0.11924
9.44666
9.4393
9.4199
9.38311
9.31806
9.20471
9.01139
8.69292
8.19579
7.48206
6.57611
5.64478
4.98185
4.74017
4.75107
4.6989
4.41597
3.95051
3.40116
2.79654
2.13908
1.4587
0.79947
0.194979
-0.327893
-0.737832
-0.984843
-0.995788
-0.766731
-0.135555
9.46401
9.45931
9.44698
9.42264
9.3766
9.28989
9.12921
8.8401
8.34747
7.5773
6.5253
5.41157
4.69068
4.56739
4.7512
4.79106
4.50416
4.01206
3.45118
2.83587
2.1602
1.46262
0.79203
0.184804
-0.329624
-0.720377
-0.940248
-0.934215
-0.698639
-0.143712
9.48871
9.48792
9.48596
9.48015
9.46326
9.41899
9.31359
9.07993
8.60778
7.75353
6.44133
4.99347
4.18322
4.28659
4.77085
4.95292
4.64611
4.11073
3.53255
2.89541
2.18586
1.45866
0.771614
0.163941
-0.334138
-0.691985
-0.868718
-0.84136
-0.601681
-0.148773
9.51923
9.52338
9.53461
9.55294
9.5755
9.59174
9.57177
9.43596
9.02458
8.06587
6.32449
4.27969
3.3659
3.9006
4.8635
5.21655
4.83392
4.23666
3.64779
2.98224
2.22276
1.45435
0.750351
0.149156
-0.322037
-0.636517
-0.770816
-0.735665
-0.503536
-0.166052
9.55361
9.56342
9.58989
9.63688
9.70853
9.80524
9.91047
9.93884
9.68143
8.62898
6.16716
3.05472
2.02937
3.36789
5.13773
5.6878
5.09433
4.37181
3.75798
3.04895
2.2288
1.42576
0.719625
0.140267
-0.288699
-0.557842
-0.66733
-0.643971
-0.431432
-0.198802
9.5896
9.6053
9.64788
9.72602
9.85389
10.0505
10.3298
10.6302
10.6996
9.64919
6.00977
0.999276
0.00666244
2.56148
5.61997
6.41853
5.54274
4.68129
4.01063
3.21064
2.30272
1.45645
0.743161
0.182509
-0.214624
-0.460345
-0.56891
-0.568178
-0.383546
-0.216861
9.62482
9.64604
9.70394
9.81259
9.99824
10.3069
10.8051
11.5374
12.3162
11.6349
7.43243
-0.870575
-2.96465
0.491418
6.76127
7.0026
5.67661
4.82433
4.16476
3.28105
2.29571
1.41635
0.698504
0.142095
-0.252871
-0.497671
-0.599279
-0.587491
-0.40662
-0.204853
9.65701
9.68277
9.7532
9.88725
10.1232
10.537
11.2653
12.5302
13.8495
15.4756
9.61014
-6.39593
-7.22156
-3.78792
10.8293
8.74827
6.18462
5.20838
4.47686
3.41818
2.28614
1.30251
0.49605
-0.112077
-0.502439
-0.69367
-0.719318
-0.624791
-0.413769
-0.121723
9.68431
9.71304
9.79167
9.94178
10.2097
10.6898
11.5874
13.2913
16.083
20.9547
10.7255
-39.0083
-10.7721
-18.9869
14.5873
10.5973
6.70044
5.45058
4.59031
3.37005
2.11947
1.10896
0.37389
-0.102685
-0.374811
-0.512984
-0.546886
-0.496822
-0.365291
-0.102752
9.70541
9.73523
9.81676
9.97173
10.2468
10.7375
11.6514
13.3824
16.7951
25.3588
-15.3467
-15.2752
13.3555
10.5547
6.72936
5.45373
4.59633
3.41324
2.29059
1.48795
0.926862
0.495795
0.151587
-0.104546
-0.247708
-0.30242
-0.216935
-0.161182
9.7198
9.74878
9.82779
9.97635
10.2338
10.6791
11.4535
12.7934
15.3551
18.4485
12.031
-37.2042
-5.72567
-8.64131
9.76453
8.78679
6.37999
5.45571
4.86338
4.00117
3.10538
2.32616
1.62236
0.996617
0.490762
0.122928
-0.0897986
-0.215449
-0.129733
-0.311354
9.72767
9.75416
9.82609
9.95834
10.1784
10.5366
11.1054
11.9427
12.8716
14.0773
9.03315
-2.83439
-2.36795
0.648527
7.23728
8.11371
6.93763
6.10719
5.46195
4.55291
3.5553
2.65136
1.86361
1.19844
0.673569
0.289867
0.0609842
-0.10938
-0.0304118
-0.426592
9.72991
9.75276
9.81432
9.92416
10.098
10.3594
10.7291
11.1574
11.4137
10.6473
7.38555
2.70332
1.97644
4.2194
7.02972
8.17323
7.38769
6.45669
5.65638
4.69711
3.69924
2.80813
2.04244
1.40023
0.893201
0.505575
0.252685
0.0296989
0.0772023
-0.5008
9.72784
9.74646
9.79626
9.88208
10.0096
10.1838
10.3948
10.5691
10.5119
9.74004
7.62017
4.81781
4.08362
5.44941
7.24968
8.02948
7.40547
6.51444
5.66884
4.73969
3.80901
2.96595
2.23107
1.60846
1.10419
0.707223
0.435893
0.169285
0.176903
-0.545983
9.72301
9.73738
9.77565
9.83885
9.92548
10.0295
10.1277
10.1504
9.94975
9.26708
7.85753
6.14149
5.54166
6.29275
7.46023
7.98282
7.46538
6.6115
5.7404
4.83144
3.93796
3.12293
2.40631
1.79189
1.29145
0.887709
0.597621
0.299227
0.267246
-0.570411
9.71697
9.72756
9.75565
9.79958
9.85332
9.90497
9.92738
9.86194
9.60783
9.02988
8.0477
6.94623
6.49449
6.93396
7.73449
8.06521
7.55582
6.7009
5.80706
4.90662
4.03854
3.24468
2.546
1.9447
1.44784
1.041
0.737636
0.411141
0.34347
-0.582966
9.7111
9.71867
9.7387
9.76777
9.79728
9.8126
9.78684
9.67316
9.4045
8.91331
8.19379
7.44718
7.12276
7.40867
7.9787
8.1643
7.63488
6.77462
5.86933
4.97563
4.12466
3.34607
2.65885
2.06618
1.57068
1.15925
0.846564
0.499504
0.401647
-0.592622
9.70652
9.71203
9.72654
9.74562
9.75938
9.75215
9.69849
9.56035
9.2916
8.8599
8.29054
7.74079
7.50062
7.71407
8.15666
8.24966
7.69404
6.82484
5.91282
5.02268
4.18118
3.41153
2.72991
2.14248
1.64975
1.23395
0.913056
0.551453
0.433814
-0.612649
9.70393
9.70842
9.72013
9.73419
9.7402
9.72218
9.6558
9.50763
9.24165
8.84031
8.34045
7.87901
7.68051
7.86953
8.26105
8.30584
7.72321
6.84505
5.93214
5.04608
4.21058
3.44572
2.76736
2.18027
1.6892
1.26947
0.944837
0.567391
0.458487
-0.663131
9.42454
9.41475
9.38893
9.34151
9.26156
9.12949
8.91663
8.58603
8.09951
7.43866
6.64042
5.83395
5.22041
4.91369
4.80935
4.68009
4.38054
3.92157
3.3736
2.76711
2.11091
1.43045
0.764021
0.144646
-0.394135
-0.793023
-0.967377
-0.833894
-0.564784
0.266753
9.4333
9.42469
9.40218
9.36048
9.28894
9.16822
8.96842
8.6482
8.16037
7.47429
6.61964
5.74531
5.10782
4.84412
4.80749
4.71763
4.42083
3.95289
3.39934
2.78802
2.12397
1.43652
0.76722
0.150113
-0.383067
-0.774896
-0.941278
-0.818972
-0.554114
0.206848
9.45004
9.44386
9.42785
9.39748
9.34295
9.24564
9.07378
8.7776
8.29106
7.55492
6.57808
5.55145
4.86227
4.69858
4.80982
4.80013
4.50319
4.01381
3.44902
2.82665
2.1452
1.4414
0.762715
0.146322
-0.37489
-0.743366
-0.889196
-0.774008
-0.518142
0.154767
9.47388
9.47129
9.46478
9.4512
9.42262
9.36229
9.23714
8.98557
8.51153
7.70003
6.51021
5.20733
4.43875
4.46456
4.82955
4.94106
4.63098
4.1066
3.52598
2.88257
2.16868
1.43785
0.748647
0.13739
-0.358197
-0.681939
-0.792478
-0.681962
-0.437598
0.109568
9.50336
9.50529
9.51083
9.51901
9.52525
9.51704
9.46279
9.28806
8.85315
7.94906
6.42016
4.63166
3.76511
4.14351
4.90638
5.16444
4.79857
4.22106
3.62686
2.95312
2.19261
1.43289
0.739796
0.147535
-0.30184
-0.570812
-0.650767
-0.558003
-0.337188
0.0617814
9.53659
9.54369
9.56312
9.59698
9.64612
9.70612
9.75325
9.70449
9.36778
8.38003
6.332
3.68633
2.69842
3.71628
5.1096
5.53033
5.02019
4.3472
3.72411
3.00358
2.19422
1.42302
0.753617
0.210549
-0.176379
-0.402909
-0.479225
-0.425145
-0.242151
0.0124439
9.57146
9.58393
9.61798
9.67963
9.77739
9.92031
10.1043
10.2545
10.1348
9.11521
6.25975
2.18224
1.13285
3.13731
5.46873
6.05282
5.34161
4.56985
3.89811
3.103
2.24248
1.4763
0.850865
0.361512
0.0125872
-0.205309
-0.304782
-0.301814
-0.166053
-0.021382
9.60569
9.62321
9.67115
9.7599
9.90717
10.1411
10.4919
10.9394
11.2465
10.5045
7.40722
0.83419
-1.28121
1.52915
6.17389
6.49154
5.45016
4.65577
3.9777
3.12227
2.23133
1.48559
0.893636
0.42706
0.0908231
-0.127725
-0.238122
-0.260095
-0.154082
-0.040246
9.63714
9.65883
9.71823
9.82962
10.0198
10.3379
10.8577
11.6662
12.6615
12.8758
9.7388
-3.27869
-4.58609
-0.997723
8.158
7.49932
5.74731
4.88503
4.18199
3.22622
2.26754
1.47736
0.84369
0.358967
0.0269367
-0.177567
-0.276424
-0.285592
-0.179171
-0.0438086
9.66403
9.68848
9.75549
9.88151
10.0995
10.4724
11.1117
12.2077
13.8727
15.6613
15.8872
-25.7746
-5.65565
-7.86328
9.87545
8.49355
6.09534
5.13308
4.3923
3.37321
2.3833
1.59921
0.981954
0.501085
0.150192
-0.0913419
-0.224644
-0.267035
-0.190016
-0.0983513
9.68512
9.71064
9.78054
9.91137
10.1364
10.5196
11.1737
12.2923
13.9923
16.6828
18.2582
-14.7981
-4.43826
-7.82628
10.368
8.9216
6.3062
5.24913
4.54212
3.61852
2.71811
1.97338
1.34155
0.803352
0.375553
0.0627252
-0.119708
-0.212389
-0.143246
-0.208092
9.6999
9.72479
9.7927
9.91844
10.1297
10.4779
11.0404
11.9124
13.0022
14.742
12.4379
-24.4044
-4.35822
-4.89549
8.21856
7.93362
6.18511
5.39288
4.86067
4.04953
3.15483
2.34833
1.6362
1.02011
0.530178
0.174101
-0.0357358
-0.173058
-0.0989598
-0.368092
9.70851
9.73124
9.79312
9.90524
10.0863
10.3681
10.7857
11.3273
11.7697
11.2207
9.14189
-0.259824
-0.729312
1.78628
7.048
7.7732
6.74946
5.95017
5.25814
4.34264
3.38313
2.52834
1.79214
1.17256
0.680333
0.313055
0.0852719
-0.0987132
-0.0342986
-0.511052
9.71174
9.73129
9.78421
9.87733
10.0205
10.2266
10.4973
10.7679
10.8146
10.03
7.48588
3.7338
2.92365
4.7345
7.03975
7.91133
7.12205
6.21263
5.38448
4.44871
3.51788
2.68951
1.96784
1.35652
0.867533
0.487463
0.234436
-0.00213348
0.0351328
-0.626584
9.7108
9.72662
9.76929
9.84179
9.94629
10.0825
10.2328
10.3242
10.1764
9.44146
7.70459
5.38251
4.69087
5.78729
7.31532
7.88072
7.18348
6.29308
5.4362
4.52905
3.64518
2.84526
2.1414
1.53846
1.04368
0.649353
0.374704
0.093338
0.0977607
-0.715928
9.70711
9.7192
9.75172
9.80461
9.87454
9.95324
10.0155
9.99577
9.76497
9.12461
7.91453
6.46659
5.94131
6.57356
7.57563
7.89027
7.24871
6.37106
5.49583
4.60907
3.75514
2.97522
2.28515
1.68833
1.19483
0.78949
0.494907
0.178778
0.149842
-0.783227
9.70213
9.71086
9.73437
9.77042
9.81222
9.84735
9.84908
9.76393
9.50477
8.96545
8.10324
7.16142
6.78253
7.17842
7.86103
7.98609
7.32856
6.43197
5.53889
4.66335
3.83215
3.07047
2.39338
1.807
1.31625
0.905334
0.594859
0.249483
0.190496
-0.834492
9.69714
9.70318
9.71951
9.74249
9.76338
9.76792
9.73062
9.60927
9.34609
8.88903
8.24834
7.60514
7.34374
7.62436
8.10597
8.09014
7.39716
6.48005
5.57461
4.70763
3.89266
3.14469
2.47753
1.89605
1.40644
0.991492
0.669281
0.300904
0.216465
-0.876663
9.69318
9.69739
9.7088
9.72296
9.7302
9.71558
9.65546
9.51571
9.25699
8.85555
8.34458
7.86958
7.68617
7.91326
8.2801
8.16743
7.43539
6.5059
5.59883
4.74029
3.93616
3.19661
2.53432
1.95509
1.4642
1.04456
0.713124
0.326322
0.224103
-0.921564
9.69091
9.69421
9.70313
9.71284
9.71334
9.68952
9.61894
9.47168
9.21727
8.84424
8.39406
7.99553
7.85158
8.0641
8.38201
8.21042
7.44921
6.51969
5.62141
4.77255
3.97543
3.23934
2.57764
1.99641
1.50108
1.07447
0.738523
0.329085
0.241402
-0.997374
9.40815
9.39698
9.36774
9.31505
9.22849
9.08952
8.87171
8.54216
8.06853
7.43771
6.68772
5.93303
5.34524
5.02213
4.87515
4.70782
4.39023
3.92526
3.37093
2.75556
2.08924
1.3961
0.710757
0.0694976
-0.469117
-0.798852
-0.848657
-0.601426
-0.371993
0.572201
9.41652
9.40641
9.38014
9.33252
9.25329
9.12404
8.91706
8.59564
8.12005
7.46773
6.6719
5.86275
5.25569
4.96754
4.87637
4.74259
4.4293
3.95792
3.39807
2.77815
2.10505
1.40533
0.715502
0.0738538
-0.459302
-0.784455
-0.844289
-0.625047
-0.387744
0.480158
9.43251
9.42458
9.40415
9.36656
9.30209
9.19277
9.00877
8.70593
8.2289
7.53363
6.63996
5.7108
5.06237
4.8539
4.88304
4.81704
4.50755
4.02056
3.45068
2.82032
2.12984
1.41057
0.708257
0.0700423
-0.445323
-0.756986
-0.822843
-0.627805
-0.39576
0.389163
9.4553
9.45059
9.43865
9.41585
9.37377
9.29559
9.14945
8.88052
8.40899
7.64923
6.59025
5.44844
4.73638
4.6758
4.90685
4.9417
4.62779
4.11503
3.53142
2.88055
2.15549
1.4055
0.693119
0.0707053
-0.408024
-0.684499
-0.73954
-0.568388
-0.349853
0.30405
9.48348
9.48283
9.48162
9.47787
9.46557
9.43067
9.34084
9.12889
8.67958
7.83845
6.52372
5.02341
4.22871
4.43157
4.9748
5.13642
4.79147
4.23665
3.63626
2.95185
2.17853
1.39947
0.692403
0.107792
-0.314712
-0.545745
-0.590344
-0.45636
-0.265816
0.223662
9.51532
9.51926
9.53036
9.54898
9.57298
9.59369
9.58232
9.46129
9.0713
8.14841
6.46339
4.35693
3.46467
4.11248
5.12089
5.42792
5.00749
4.38456
3.75142
3.01745
2.1974
1.41448
0.749241
0.231175
-0.130554
-0.334779
-0.393601
-0.315878
-0.168387
0.150655
9.54879
9.55752
9.58154
9.62422
9.68886
9.77568
9.86685
9.88293
9.61856
8.64896
6.44415
3.33578
2.36611
3.73513
5.4057
5.83652
5.29124
4.59387
3.92445
3.13816
2.29685
1.55049
0.948729
0.480079
0.138062
-0.0802041
-0.18294
-0.175543
-0.0805662
0.0921473
9.58181
9.59504
9.63135
9.69735
9.80296
9.9607
10.1731
10.379
10.3623
9.45945
6.53296
1.73342
0.856885
3.22325
5.87498
6.30214
5.49608
4.72458
4.05814
3.26788
2.45215
1.75911
1.19277
0.724161
0.359043
0.100173
-0.0484722
-0.0971522
-0.0428365
0.0409399
9.61235
9.6293
9.67583
9.76153
9.90254
10.1247
10.4561
10.881
11.2248
10.7287
8.21877
0.169172
-1.37294
1.64878
6.67078
7.07731
5.90355
5.0527
4.40434
3.57444
2.7062
1.96382
1.34671
0.831512
0.425677
0.137585
-0.0340416
-0.103538
-0.0591257
-0.0170738
9.63875
9.65823
9.71163
9.81027
9.9746
10.2398
10.6535
11.2443
11.9184
11.9289
10.1067
-3.88838
-2.85685
0.50633
6.94864
7.50942
6.12658
5.21943
4.54188
3.66101
2.78287
2.05351
1.43003
0.892897
0.463436
0.150687
-0.0384825
-0.130197
-0.0907949
-0.115063
9.65983
9.68037
9.73662
9.83999
10.0113
10.2863
10.7137
11.3235
12.0253
12.0691
10.8884
-4.56305
-2.83316
0.603566
7.2967
7.71625
6.28978
5.38329
4.68424
3.7944
2.92277
2.17739
1.52863
0.966946
0.513804
0.18087
-0.0231208
-0.14168
-0.0958851
-0.251859
9.67508
9.69518
9.75017
9.85008
10.0116
10.2626
10.6339
11.1143
11.5368
11.1415
9.47467
-1.12575
-1.03483
1.69434
7.04993
7.477
6.2988
5.48273
4.80817
3.94788
3.07281
2.29829
1.62026
1.03778
0.571819
0.225576
0.0120011
-0.137465
-0.0860888
-0.415881
9.68459
9.70297
9.75312
9.84222
9.98104
10.185
10.4607
10.7542
10.857
10.1182
7.4125
2.93148
2.24251
4.35485
7.02818
7.58217
6.67208
5.81262
5.00914
4.08661
3.18703
2.39979
1.72006
1.14317
0.680641
0.327302
0.0986966
-0.0941789
-0.0525234
-0.569249
9.68903
9.70476
9.74753
9.82143
9.93083
10.0793
10.2542
10.3845
10.2747
9.51388
7.57718
4.77523
4.06052
5.4097
7.19921
7.70735
6.90561
5.9856
5.11388
4.20031
3.32926
2.557
1.88233
1.30666
0.837422
0.467372
0.215127
-0.0259934
-0.00932687
-0.701492
9.68947
9.70207
9.73629
9.79335
9.87217
9.96778
10.0574
10.0718
9.86208
9.17626
7.78322
6.00084
5.4215
6.24256
7.45029
7.75028
7.00256
6.10107
5.22557
4.33505
3.49028
2.72796
2.05594
1.4771
0.997183
0.609504
0.330711
0.0449675
0.0317067
-0.809122
9.6872
9.69663
9.7223
9.76311
9.81412
9.86525
9.89045
9.83076
9.58044
8.99525
7.99212
6.84039
6.41744
6.93379
7.73408
7.82984
7.10847
6.21
5.32453
4.44855
3.62278
2.87014
2.20144
1.6202
1.13525
0.733106
0.432703
0.109069
0.0644006
-0.89458
9.68351
9.69008
9.70809
9.73481
9.7629
9.77968
9.75966
9.65586
9.39728
8.90741
8.17672
7.41185
7.1218
7.47071
8.01029
7.94947
7.20675
6.28695
5.39033
4.52387
3.71532
2.97493
2.31288
1.73462
1.24521
0.834524
0.516662
0.161237
0.0878432
-0.961966
9.6796
9.68385
9.69572
9.71142
9.72229
9.71464
9.66504
9.53685
9.2834
8.86891
8.31774
7.79044
7.60311
7.87163
8.24664
8.06617
7.28459
6.34033
5.43413
4.57737
3.78326
3.05357
2.39771
1.82093
1.32823
0.908115
0.57694
0.196809
0.0987027
-1.0171
9.6764
9.67908
9.68672
9.69495
9.69448
9.6714
9.60433
9.46395
9.21893
8.85524
8.41259
8.02335
7.90536
8.1383
8.41211
8.14192
7.32048
6.36543
5.46198
4.61866
3.83667
3.11434
2.46114
1.88324
1.38565
0.955001
0.610951
0.2109
0.0948841
-1.07165
9.67453
9.67644
9.68193
9.68638
9.68031
9.64978
9.57466
9.4294
9.19003
8.85218
8.46125
8.13623
8.05513
8.28124
8.50716
8.17899
7.33128
6.38243
5.494
4.66623
3.8927
3.17278
2.51737
1.93386
1.42788
0.985052
0.63094
0.205417
0.106588
-1.15998
9.38926
9.37657
9.34354
9.28507
9.19142
9.04537
8.82293
8.49562
8.03707
7.4397
6.74103
6.04012
5.4795
5.13963
4.94836
4.74107
4.40414
3.93141
3.36799
2.74136
2.06172
1.35006
0.637939
-0.0206928
-0.523415
-0.745025
-0.689235
-0.377024
-0.217107
0.840196
9.39719
9.38543
9.35502
9.30093
9.21355
9.07562
8.86194
8.5407
8.07988
7.46452
6.73025
5.98822
5.41284
5.10007
4.95289
4.77357
4.44153
3.96415
3.39639
2.76576
2.07934
1.35786
0.636787
-0.0215543
-0.517373
-0.746717
-0.717687
-0.43963
-0.255625
0.720903
9.41235
9.40251
9.37721
9.33179
9.25697
9.13556
8.94022
8.63277
8.16914
7.5183
6.70888
5.87727
5.27092
5.01828
4.96488
4.84181
4.51633
4.02795
3.45188
2.81016
2.10134
1.35388
0.622567
-0.0254532
-0.509247
-0.745529
-0.741345
-0.493059
-0.301814
0.600453
9.43395
9.42694
9.40907
9.37639
9.32046
9.22455
9.05894
8.77631
8.31306
7.61004
6.67716
5.69029
5.03572
4.89164
4.99322
4.95377
4.6314
4.12458
3.53505
2.86704
2.11538
1.33717
0.606384
-0.0152123
-0.466329
-0.687407
-0.693716
-0.478573
-0.292558
0.48117
9.4607
9.45724
9.44871
9.43236
9.40129
9.34028
9.21794
8.97612
8.52338
7.75389
6.63634
5.39771
4.67996
4.71977
5.0561
5.1247
4.79083
4.25196
3.63698
2.92233
2.1187
1.32208
0.613291
0.0406414
-0.356572
-0.5514
-0.568965
-0.399996
-0.236156
0.367655
9.49096
9.49152
9.49369
9.49639
9.49526
9.47825
9.41467
9.23599
8.81678
7.97497
6.5996
4.96327
4.1673
4.50157
5.17196
5.36858
5.00047
4.40696
3.74292
2.96596
2.12441
1.34423
0.692372
0.188264
-0.157629
-0.342941
-0.387834
-0.281244
-0.156076
0.26424
9.5229
9.52763
9.541
9.56406
9.59603
9.63027
9.64103
9.5538
9.20479
8.30708
6.59417
4.34208
3.47644
4.26752
5.37933
5.69476
5.25136
4.58372
3.87106
3.04933
2.21404
1.4948
0.913215
0.455408
0.119434
-0.0930545
-0.186922
-0.154604
-0.0772651
0.173748
9.55456
9.56324
9.58726
9.63002
9.69501
9.7831
9.87884
9.91133
9.69168
8.79418
6.67586
3.48758
2.56926
4.01417
5.71281
6.10955
5.4733
4.70177
3.9907
3.20439
2.43423
1.78112
1.23098
0.759664
0.381001
0.113167
-0.0367199
-0.0719314
-0.0337699
0.0885139
9.5841
9.59606
9.62905
9.68849
9.78199
9.9183
10.0958
10.258
10.2252
9.43195
6.89843
2.52058
1.60852
3.73709
6.11256
6.70888
5.83794
4.97739
4.31437
3.55994
2.7857
2.10081
1.49251
0.950336
0.512414
0.200826
0.0145684
-0.0606085
-0.0372477
-0.00533697
9.60995
9.6242
9.66333
9.73411
9.84689
10.0158
10.25
10.509
10.64
10.0245
7.34656
1.83077
1.02265
3.54303
6.33429
7.1781
6.18401
5.26879
4.59048
3.77644
2.94504
2.21523
1.56515
0.99644
0.54225
0.214549
0.0129303
-0.0877756
-0.0649358
-0.125482
9.63103
9.64632
9.68826
9.76373
9.88334
10.0617
10.3088
10.5854
10.7404
10.1552
7.50939
2.07578
1.34433
3.81373
6.6219
7.48687
6.47189
5.50265
4.71311
3.81976
2.95955
2.21154
1.55775
0.9949
0.544001
0.21364
0.00770982
-0.11418
-0.0848897
-0.270049
9.64679
9.66187
9.70326
9.77676
9.89034
10.0545
10.27
10.4839
10.5216
9.8203
7.40126
3.21845
2.4467
4.43022
6.76023
7.37599
6.41861
5.49614
4.69567
3.81392
2.96618
2.22162
1.57099
1.01501
0.570953
0.239166
0.0274378
-0.122172
-0.0907744
-0.428105
9.65729
9.67108
9.70884
9.77444
9.87209
10.0052
10.162
10.2773
10.1694
9.42328
7.49684
4.56019
3.84953
5.24928
7.03484
7.43656
6.58214
5.65627
4.78459
3.87902
3.03046
2.28879
1.64621
1.10076
0.660644
0.322762
0.096525
-0.0927533
-0.0748018
-0.576785
9.66308
9.67476
9.70676
9.76081
9.83695
9.93162
10.024
10.0466
9.84435
9.14186
7.67358
5.7091
5.11194
6.01183
7.28226
7.53981
6.74575
5.80624
4.9009
4.00328
3.17226
2.43688
1.79471
1.24633
0.796266
0.440667
0.191275
-0.0406303
-0.0472373
-0.706412
9.66506
9.67422
9.69942
9.74036
9.79351
9.85043
9.88614
9.83971
9.59487
8.97997
7.88547
6.57075
6.11166
6.69679
7.57992
7.65908
6.8823
5.95283
5.05077
4.16493
3.34778
2.61514
1.97023
1.41355
0.950775
0.574527
0.296492
0.0197579
-0.0188962
-0.81366
9.66436
9.67094
9.68923
9.7173
9.74915
9.77349
9.76511
9.67364
9.41694
8.89828
8.08952
7.20971
6.89356
7.29324
7.88222
7.80049
7.02339
6.08949
5.18312
4.3079
3.50323
2.77476
2.12744
1.56396
1.08989
0.695491
0.393201
0.0778376
0.00551309
-0.89933
9.66213
9.66635
9.67839
9.69517
9.70917
9.70787
9.66793
9.54983
9.299
8.86575
8.26492
7.67207
7.47025
7.76825
8.15893
7.95206
7.14721
6.19163
5.27824
4.41298
3.62169
2.9006
2.25503
1.68884
1.20512
0.796596
0.472542
0.125481
0.0223686
-0.966846
9.65942
9.66173
9.66872
9.67659
9.67703
9.65722
9.59634
9.46398
9.22504
8.85847
8.40002