/*--------------------------------*- C++ -*----------------------------------*\
| =========                 |                                                 |
| \\      /  F ield         | OpenFOAM: The Open Source CFD Toolbox           |
|  \\    /   O peration     | Version:  2512                                  |
|   \\  /    A nd           | Website:  www.openfoam.com                      |
|    \\/     M anipulation  |                                                 |
\*---------------------------------------------------------------------------*/
FoamFile
{
    version     2.0;
    format      ascii;
    arch        "LSB;label=32;scalar=64";
    class       surfaceScalarField;
    location    "250";
    object      phi;
}
// * * * * * * * * * * * * * * * * * * * * * * * * * * * * * * * * * * * * * //

dimensions      [0 3 -1 0 0 0 0];

oriented        oriented;

internalField   nonuniform List<scalar> 
295961
(
1.19985
9.66134e-05
5.7856e-05
1.19978
-6.77209e-05
0.000141319
1.19969
-0.000153798
0.000248324
1.19988
-0.00054066
0.000360025
1.20003
-0.00065682
0.000508694
1.20049
-0.00116035
0.000704042
1.20086
-0.00136538
0.00099898
1.20251
-0.00292614
0.00128009
1.20457
-0.0035744
0.00152172
1.2135
-0.0102792
0.00135739
1.21804
-0.00592397
0.00138649
1.21619
0.000566953
0.0012825
1.22368
-0.00735776
-0.000124907
1.2245
-0.000388223
-0.000438779
1.22521
0.000191855
-0.000901469
1.22658
-0.000274045
-0.00110443
1.22596
-0.00061682
0.00122938
1.22885
-0.00198615
-0.000925512
1.23194
-0.00213803
-0.000970681
1.23537
-0.00251677
-0.000934461
1.239
-0.00282477
-0.000827607
1.24282
-0.00299694
-0.000842519
1.24664
-0.00307511
-0.000768404
1.25015
-0.00310576
-0.000418084
1.25319
-0.00311942
6.36349e-05
1.25564
-0.0031326
0.00066886
1.25727
-0.00316801
0.00153278
1.258
-0.00334283
0.00260311
1.25699
-0.00375141
0.00475751
-0.00493271
0.00793683
1.19999
5.8115e-05
5.80509e-05
1.20002
-0.000241918
0.000143866
1.20018
-0.000564262
0.000254415
1.2003
-0.00102624
0.000368177
1.20082
-0.00166999
0.000497452
1.20134
-0.00243953
0.000763996
1.20102
-0.00218815
0.00114092
1.20293
-0.00621833
0.00139475
1.20649
-0.00901774
0.00189161
1.2136
-0.0188308
0.00144455
1.2186
-0.0125683
0.00165353
1.21621
0.000801589
0.00215536
1.22422
-0.0145295
-0.000834055
1.22469
-0.000306431
-0.00055383
1.22514
0.000804267
-0.00106912
1.22643
-0.000297768
-0.00127
1.22597
-0.00141552
0.00125616
1.22858
-0.00351043
-0.00110757
1.23167
-0.00409652
-0.00114994
1.23515
-0.00491232
-0.00110793
1.23883
-0.00552531
-0.00100036
1.24269
-0.00585435
-0.00102558
1.24653
-0.00599149
-0.000949045
1.25005
-0.00602894
-0.000614989
1.2531
-0.00602125
-0.000162377
1.25557
-0.00601721
0.000409075
1.25722
-0.00615744
0.00132422
1.25801
-0.00673484
0.00259799
1.25713
-0.00778046
0.00489794
-0.0101236
0.00814019
1.20002
-1.27519e-05
6.00602e-05
1.2
-0.000371855
0.000150837
1.2
-0.000830936
0.000269092
1.19981
-0.00122438
0.000394371
1.20042
-0.00279488
0.000511117
1.20067
-0.00357066
0.000888445
1.20023
-0.00311872
0.0013717
1.202
-0.00967469
0.00168798
1.20543
-0.0147993
0.0023598
1.21381
-0.0291959
0.00199757
1.21985
-0.0208549
0.00225158
1.21708
0.000352061
0.00321792
1.22537
-0.0212272
-0.00159406
1.22506
0.00083941
-0.000832692
1.22498
0.00232242
-0.00143885
1.22613
0.000161701
-0.00160652
1.22551
-0.00194943
0.00114462
1.22817
-0.00476038
-0.00142262
1.23135
-0.0058421
-0.00145927
1.23495
-0.0071295
-0.00140068
1.23873
-0.00805068
-0.00127073
1.24267
-0.00853355
-0.00128728
1.24656
-0.00873832
-0.00116749
1.25011
-0.00880152
-0.000796725
1.25319
-0.00882282
-0.000287903
1.25568
-0.00897224
0.000447526
1.25741
-0.00958373
0.00168705
1.25828
-0.0109789
0.00336568
1.25756
-0.0129125
0.00584239
-0.0163809
0.00921556
1.19998
-5.2189e-05
6.26623e-05
1.19994
-0.000485712
0.000162599
1.19994
-0.00111134
0.000280661
1.19989
-0.00161742
0.000444325
1.19996
-0.00343438
0.000573134
1.19987
-0.00451858
0.00103871
1.19921
-0.00415681
0.0017011
1.2005
-0.0131501
0.00218503
1.20391
-0.0213886
0.00318735
1.21413
-0.0424783
0.00306534
1.2221
-0.0321718
0.00335852
1.2189
-0.00121691
0.00476828
1.22726
-0.0269996
-0.00258711
1.22559
0.00379574
-0.00128324
1.22465
0.00530076
-0.00203371
1.2256
0.0013561
-0.00214481
1.22478
-0.00201887
0.00088277
1.22754
-0.00562912
-0.00190185
1.2309
-0.00731839
-0.00190381
1.23469
-0.00913496
-0.00180563
1.23862
-0.0103585
-0.00164146
1.24269
-0.0109901
-0.00163692
1.24666
-0.0112866
-0.00143747
1.25025
-0.0114471
-0.000964853
1.25336
-0.0116831
-0.00025903
1.25588
-0.0123437
0.000831204
1.25764
-0.0138307
0.00247634
1.2585
-0.0162748
0.00443035
1.25781
-0.0191271
0.00689532
-0.023564
0.0102987
1.20001
-0.000117144
6.3504e-05
1.19991
-0.000553302
0.000169677
1.19988
-0.00134453
0.000265674
1.19995
-0.00222722
0.000539163
1.19935
-0.00349749
0.000662337
1.19906
-0.00538957
0.00116357
1.19839
-0.00569808
0.00221137
1.19841
-0.0161039
0.00293809
1.20172
-0.0292986
0.00459802
1.21467
-0.0605338
0.00511387
1.22599
-0.0487192
0.00524526
1.24234
-0.0225742
0.00501939
1.23002
-0.0125455
-0.00211749
1.22618
0.00976997
-0.00213348
1.22407
0.0104919
-0.00307136
1.22492
0.00359395
-0.00308415
1.22388
-0.00120374
0.000207575
1.2267
-0.0056296
-0.00283598
1.23029
-0.00814318
-0.00277674
1.23432
-0.0106257
-0.00256379
1.23844
-0.0122372
-0.0022631
1.24269
-0.0131277
-0.00212774
1.24675
-0.0136735
-0.00169374
1.25039
-0.0141575
-0.000944936
1.2535
-0.0149142
0.000106948
1.25599
-0.0163755
0.0015277
1.25766
-0.0188321
0.00332777
1.25835
-0.0222055
0.00523591
1.25751
-0.0257688
0.00747425
-0.0309338
0.0108178
1.19999
-0.00016473
6.00027e-05
1.19996
-0.000647877
0.000128521
1.1997
-0.00137283
0.000291819
1.19925
-0.00241525
0.000643671
1.19858
-0.00356128
0.000733818
1.1987
-0.00667036
0.00116155
1.19662
-0.00658548
0.00296055
1.19598
-0.019675
0.00420345
1.20015
-0.0402502
0.00679123
1.20546
-0.0750087
0.00916638
1.23277
-0.0845777
0.00856326
1.23707
-0.0316736
0.00483071
1.23387
-0.00780834
-0.00150883
1.22634
0.021038
-0.00372279
1.22261
0.0191831
-0.00495416
1.22363
0.00730226
-0.00473632
1.22273
0.000818362
-0.0011336
1.22567
-0.00433392
-0.00424865
1.2296
-0.00796987
-0.00412393
1.23392
-0.0111643
-0.00380382
1.23824
-0.0132078
-0.00336459
1.24263
-0.0144578
-0.00308123
1.24677
-0.0153883
-0.0024399
1.25043
-0.0163516
-0.00148127
1.2535
-0.0177232
-0.000272436
1.25587
-0.0198962
0.00113775
1.25731
-0.023027
0.00275296
1.25767
-0.0270201
0.00444982
1.25637
-0.0309922
0.00651766
-0.0368225
0.00997916
1.20003
-0.000215694
2.92816e-05
1.20022
-0.000651155
-0.000185272
1.19968
-0.00136773
0.000537174
1.19889
-0.00234032
0.000719059
1.19765
-0.00330777
0.000983633
1.19689
-0.00734955
0.00143538
1.19551
-0.00883934
0.0036335
1.19083
-0.0209817
0.00598009
1.19165
-0.0513643
0.0102791
1.20472
-0.021469
0.016696
-0.0269154
-0.0251138
-0.0312816
1.24322
-0.0391864
0.0134704
-0.0238303
-0.0442697
-0.0292521
1.24674
-0.0098926
0.00628093
-0.00523933
-0.0154731
-0.0108467
1.23965
0.00317787
-0.00266712
0.00314545
-0.00217879
-0.0021735
1.22608
0.0115799
-0.00625833
0.0135259
0.00701767
0.00876212
1.22052
0.032919
-0.00817718
1.21849
0.0160637
-0.00674036
1.22054
0.00516115
-0.00640032
1.22371
0.00028646
-0.00780884
1.22819
-0.00506177
-0.00741824
1.23301
-0.00922076
-0.00678114
1.23772
-0.011935
-0.00600704
1.24243
-0.0137727
-0.00541861
1.2468
-0.0152011
-0.0045833
1.25059
-0.0165738
-0.0035792
1.25363
-0.0182441
-0.00253286
1.25575
-0.020601
-0.00142865
1.25656
-0.0237609
-7.82649e-05
1.25594
-0.0279934
0.00158124
1.25298
-0.0319915
0.00395559
-0.0391622
0.00789776
1.19998
-0.000208489
1.85266e-05
1.20036
-0.000689
-0.000339467
1.20008
-0.0012275
0.00014131
1.1993
-0.0019566
0.000398565
1.19684
-0.00294315
0.00209629
1.19437
-0.00693864
0.00205145
1.19164
-0.0103507
0.00424612
1.18173
-0.0194106
0.00832136
0.295093
-0.0112746
0.0174556
0.293194
0.2941
0.29225
-0.0173798
-0.0135205
-0.0195552
0.297593
-0.0264212
0.00243572
0.310015
-0.0483112
0.00237266
-0.303276
-0.315023
0.319258
-0.0146609
0.000524616
-0.31854
0.3176
0.00568444
-0.00155663
-0.314159
0.310541
0.0176319
-0.00242761
1.21755
0.0559781
-0.0157681
-0.306544
-0.306771
-0.305918
-0.305595
1.21502
0.0301226
-0.0115359
1.21641
0.0174752
-0.0137177
1.22015
0.00944244
-0.0129097
1.22501
0.002048
-0.0120009
1.23011
-0.00314941
-0.0111916
1.23496
-0.00630187
-0.0105078
1.23951
-0.00822911
-0.0101273
1.24335
-0.00945867
-0.00960613
1.24611
-0.0104144
-0.0089443
1.24756
-0.0115031
-0.00820451
1.24737
-0.0133033
-0.00712187
1.24502
-0.0162343
-0.00518106
1.24068
-0.0213254
-0.00233465
1.2329
-0.0256724
0.00145462
-0.0372576
0.00641666
1.19995
-0.000171962
2.05482e-05
1.19994
-0.000598049
-7.47848e-05
1.19999
-0.00109695
-0.000184341
1.19984
-0.00160691
-0.000195796
1.19552
-0.00131301
0.00269132
1.19187
-0.00595418
0.00265994
1.18533
-0.00865044
0.00483928
0.293549
-0.0170163
0.011539
0.293337
0.292021
0.292489
0.290582
-0.0104407
0.00212528
0.289459
-0.0403787
0.00686718
0.0323464
-0.288392
0.314754
0.00965868
-0.303237
0.0627802
-0.0241203
-0.0189354
-0.0236937
-0.0172438
0.330501
-0.327562
0.0200983
-0.00496244
-0.00599209
-0.00932781
-0.00251272
0.00124615
-0.00110029
-0.000544079
0.000236823
-0.326111
0.325185
-0.00765707
0.00225647
0.00314285
0.00143205
0.00407543
0.000224946
-0.00145801
-0.00155253
0.000497451
-0.320717
0.312571
-0.0250435
0.00864999
0.00727492
0.00801281
0.00915431
-0.00100891
0.000861815
0.00137452
-0.00111641
1.19364
0.0817942
-0.0233533
-0.304875
-0.30148
-0.30255
-0.287212
1.19269
0.0561035
-0.0250359
1.19314
0.0462008
-0.0291926
1.19504
0.0385917
-0.0310687
1.19654
0.0319366
-0.0314146
1.19709
0.0270511
-0.0307794
1.19674
0.0234521
-0.0294413
1.1957
0.0203857
-0.0276022
1.19359
0.0174382
-0.0248164
1.19004
0.0140187
-0.0209083
1.18502
0.00926423
-0.0157667
1.17835
0.00271192
-0.00936449
1.17041
-0.00573726
-0.00257243
1.16266
-0.0166786
0.00310416
1.15568
-0.0258196
0.0071138
-0.0443496
0.0109857
1.19993
-0.000124679
2.37947e-05
1.19971
-0.000447359
8.25145e-05
1.19916
-0.000808967
0.000258421
1.19898
-0.00123227
-0.000190991
1.19723
-0.00174384
0.00218682
1.19084
-0.00239505
0.00282442
1.18028
-0.00320797
0.00512355
0.290149
-0.00426251
0.0138464
0.288996
0.287907
0.286631
0.283659
-0.00494925
0.00342134
0.00800807
0.00873986
-0.0687337
0.0673973
-0.00826805
0.000837367
0.0318478
-0.0769835
0.0773045
0.00566123
-0.00885623
-0.00951883
-0.0112447
-0.00821703
0.0170625
-0.0518637
0.048655
-0.0325157
0.0186225
-0.0419341
0.00294461
0.0421549
-0.00999768
0.00682705
-0.0479263
-0.00670237
0.00216433
0.00315845
0.0493122
0.705371
0.0642642
-0.0320924
-0.19625
-0.143193
-0.181547
-0.134769
0.741839
0.0649048
-0.0452877
0.775472
0.0598072
-0.0472556
0.805465
0.0528396
-0.0442605
0.830486
0.0452013
-0.0383142
0.851631
0.0370192
-0.0311455
0.870031
0.0283037
-0.0232824
0.886355
0.0187206
-0.0146887
0.901425
0.00789787
-0.00555876
0.917398
-0.00446684
0.00248736
0.936709
-0.0180319
0.00796408
0.960903
-0.0320991
0.0106022
0.989865
-0.045898
0.011188
1.02
-0.0580983
0.0112749
1.05231
-0.068598
0.0104613
-0.0772637
0.0127191
1.19993
-7.43396e-05
2.37162e-05
1.19969
-0.000285645
8.26556e-05
1.19913
-0.000500348
0.000259076
1.19891
-0.000827286
-0.000188681
1.19712
-0.00213291
0.00219059
1.19071
0.0011835
0.00282957
1.1801
0.00228331
0.0051257
0.288947
0.0085843
0.0138527
0.290097
0.286565
0.287803
0.00109026
0.281563
0.0026544
0.00364398
0.000221424
-0.0665936
0.0615034
0.0034973
0.00138119
0.00385172
-0.0291202
0.0510167
0.0282392
-0.053994
-0.00976497
-0.0466993
0.0422407
0.0185961
-0.00436963
-0.0364493
-0.0128251
0.0159319
-0.000586671
0.0339313
0.614539
0.000812148
0.026882
-0.118712
-0.126887
-0.141908
-0.19048
0.648659
0.0148112
0.0159487
0.685315
0.0114115
0.0117199
0.723728
0.00544973
0.00896
0.76145
-0.00229689
0.00975404
0.800282
-0.0125706
0.0107321
0.839993
-0.024879
0.0134473
0.881216
-0.0380748
0.0155522
0.923795
-0.0512314
0.0165335
0.966859
-0.0634846
0.0159388
1.00871
-0.0741436
0.0142466
1.04694
-0.0829424
0.0126066
1.07958
-0.0900689
0.0115227
1.10548
-0.0950391
0.0110346
1.12661
-0.10012
0.0103873
-0.0997797
0.0117096
1.19994
-2.86058e-05
2.02341e-05
1.19989
-0.000161044
-7.44951e-05
1.19989
-0.000309012
-0.000182678
1.19964
-0.00038377
-0.00019304
1.19522
-0.00039437
0.0026939
1.19133
0.00240194
0.00266874
1.18451
0.00426396
0.00485593
0.29311
0.0113866
0.0115875
0.293259
0.292136
0.291618
-0.00568984
0.287861
0.00805427
0.00290133
-0.00796262
0.0354957
0.0102411
-0.0110298
-0.00924095
-0.0128458
0.0698013
0.0680462
0.0691004
0.0706923
-0.282208
-0.0293097
-0.0740901
0.0773203
0.00384659
0.0222591
-0.0479244
-0.0600324
0.0528385
0.0279794
0.0271332
-0.0314159
-0.0489784
0.0495799
0.00954395
0.0212579
-0.0158398
-0.0496311
0.00616433
0.0486497
0.0106615
1.0756
-0.0358611
0.020973
-0.207874
-0.289174
-0.265434
-0.297434
1.08679
-0.0198568
0.023461
1.0984
-0.0220645
0.0218504
1.11274
-0.0295066
0.020606
1.12676
-0.0372336
0.0209034
1.14216
-0.0461633
0.0181774
1.15723
-0.055494
0.0155239
1.17158
-0.0643206
0.0118893
1.18306
-0.0725718
0.00984581
1.19232
-0.0794819
0.00672603
1.19802
-0.0859588
0.00610967
1.20058
-0.0915676
0.00605736
1.20062
-0.0964087
0.0063028
1.19894
-0.0999938
0.00662517
1.19537
-0.103475
0.00692773
-0.103079
0.00797028
1.19997
-6.35526e-06
1.80324e-05
1.20029
-0.000144023
-0.000338967
1.19992
-7.59661e-05
0.00014174
1.19899
0.000151419
0.000397702
1.19629
0.000214516
0.00209953
1.1935
0.00313056
0.00206601
1.1903
0.00319834
0.00427997
1.17982
0.0134689
0.00841526
0.292509
0.0407464
0.0175187
-0.00896934
-0.0140373
-0.0105552
-0.0155498
0.294119
0.291229
0.292836
-0.0286069
0.293363
0.023375
0.00446204
-0.0622396
0.30749
0.0470299
0.00750744
-0.299718
-0.0342691
-0.316493
0.322967
0.0209771
0.0067779
-0.00597898
-0.322753
0.321907
0.000964086
0.00588107
0.0122876
-0.31791
0.313339
-0.0119409
0.00422617
1.21935
-0.0374515
0.0110974
-0.309019
-0.306721
-0.307384
-0.305749
1.21638
-0.0313168
0.0144134
1.21663
-0.0322513
0.00992502
1.21942
-0.0398569
0.00755695
1.22359
-0.0460078
0.00458662
1.22761
-0.0520101
0.00181885
1.23063
-0.0583536
-0.00017566
1.23238
-0.0646814
-0.00140328
1.23103
-0.0708729
-0.000350314
1.22964
-0.0769392
-0.00116663
1.22587
-0.0829608
0.000772681
1.22148
-0.0881143
0.000930445
1.21601
-0.0929985
0.00205548
1.20991
-0.0968235
0.00292836
1.20287
-0.100022
0.00358949
-0.100205
0.00462054
1.20001
-3.67844e-05
2.86045e-05
1.20013
-7.50897e-05
-0.000185229
1.19945
6.99829e-05
0.000537864
1.19845
0.000437107
0.000721562
1.19691
0.000767624
0.000991891
1.19572
0.00287407
0.001454
1.19372
0.00154119
0.00367371
1.18805
0.0130643
0.00608325
1.1866
0.0316488
0.010575
1.19571
0.0647945
0.0178069
-0.01877
-0.0237607
-0.0217094
-0.027413
1.23243
0.0783233
0.0188483
-0.0374202
-0.0253766
-0.0416452
-0.0294122
1.23677
0.0299518
0.0154127
-0.0124397
-0.00836037
-0.0164331
-0.0124658
1.23179
0.00604196
0.0067762
-0.000146491
0.000281371
-0.00411042
-0.00384617
1.21948
-0.0265013
0.00364984
0.00906052
0.0118627
0.00561259
0.00862491
1.21259
-0.0333565
0.0027819
1.20974
-0.0312727
0.00278699
1.21172
-0.0347766
0.00054366
1.21497
-0.0394083
-0.00370741
1.21954
-0.0450318
-0.00555598
1.22371
-0.050018
-0.00617802
1.22659
-0.0552401
-0.00600758
1.22808
-0.0606523
-0.00552378
1.22779
-0.0662018
-0.00438488
1.22602
-0.0718343
-0.00334401
1.22146
-0.0773845
-0.00102582
1.21686
-0.0825969
-0.000915074
1.21073
-0.0873467
0.000470792
1.20425
-0.0908276
0.000483919
1.19701
-0.0936494
0.000871749
-0.0938376
0.00153775
1.19997
-5.93198e-05
5.9098e-05
1.19985
-7.61528e-05
0.000128811
1.19942
0.000209666
0.000293187
1.19871
0.00050626
0.000646996
1.19767
0.0010703
0.000741521
1.19727
0.00210481
0.00117802
1.19447
0.00136001
0.00299612
1.19274
0.0105093
0.00429684
1.19509
0.0222626
0.00705399
1.19782
0.0522108
0.00988062
1.22346
0.0417398
0.010958
1.22732
0.0172445
0.00885712
1.22448
0.00619561
0.00268824
1.21714
-0.0195905
0.00042743
1.21205
-0.0272371
-0.00104189
1.21207
-0.0284514
-0.00284437
1.21108
-0.0318609
-0.00193556
1.21424
-0.0352342
-0.00733692
1.21807
-0.0402889
-0.00857807
1.2213
-0.0447753
-0.00848021
1.22322
-0.0495374
-0.00763762
1.22384
-0.0545523
-0.0067282
1.22284
-0.0597161
-0.00549284
1.22024
-0.0649097
-0.00433438
1.21596
-0.0699655
-0.00314271
1.21048
-0.0746634
-0.00245763
1.20337
-0.078795
-0.00144575
1.19633
-0.0820571
-0.00172461
1.18864
-0.0844425
-0.00152036
-0.0843316
-0.00154896
1.19998
-9.42603e-05
6.24948e-05
1.19977
-3.61257e-05
0.000169981
1.19955
0.000171211
0.000266916
1.19933
0.000193263
0.000542059
1.19831
0.00142813
0.000669146
1.19743
0.00181339
0.00117787
1.19595
0.000607491
0.00224252
1.19485
0.00860934
0.00301324
1.19658
0.0157713
0.00477938
1.20743
0.0358213
0.00555961
1.21708
0.0256893
0.00641008
1.23231
-0.00487625
0.00690086
1.21937
0.0192586
-0.000128452
1.21474
-0.0144886
-0.00046663
1.21107
-0.0213125
-0.00225831
1.21085
-0.0237623
-0.00448012
1.20972
-0.0270524
-0.00368102
1.21275
-0.0297848
-0.00848258
1.21605
-0.0343473
-0.00924725
1.21861
-0.0384301
-0.00891457
1.21978
-0.042673
-0.00804378
1.21957
-0.0470857
-0.00726016
1.21775
-0.0515784
-0.00632483
1.21428
-0.0560487
-0.00540524
1.20928
-0.0603503
-0.00461415
1.20297
-0.0643143
-0.00404449
1.1957
-0.0677556
-0.00378037
1.18793
-0.0704498
-0.0038336
1.17973
-0.0723151
-0.00392325
-0.0720834
-0.00434186
1.19995
-0.000100131
6.15358e-05
1.19979
-3.00374e-05
0.000162738
1.19958
0.000107185
0.000281627
1.1992
0.000128205
0.000446718
1.1988
0.00125323
0.000578583
1.19808
0.00149686
0.00104984
1.19656
0.000411578
0.00172456
1.19672
0.00622812
0.00223584
1.19864
0.0105631
0.00330287
1.207
0.0241547
0.00332066
1.21323
0.0155556
0.00391172
1.20864
-0.00586259
0.00557691
1.21555
0.0141647
-0.00181397
1.21235
-0.0102824
-0.00100551
1.20962
-0.0156954
-0.00288866
1.20952
-0.0183336
-0.00533212
1.20861
-0.0213949
-0.00475044
1.21149
-0.0235449
-0.00912104
1.2143
-0.0273638
-0.00980006
1.21616
-0.0307751
-0.00952478
1.21652
-0.0342654
-0.00877418
1.2154
-0.0378608
-0.0081132
1.2127
-0.0414866
-0.00740007
1.20838
-0.0450546
-0.00668473
1.20263
-0.048449
-0.00615181
1.19563
-0.0515416
-0.00578354
1.18772
-0.0542
-0.00564056
1.17934
-0.0562548
-0.00581732
1.17103
-0.0576375
-0.00636257
-0.0572827
-0.00694219
1.19998
-0.000134632
5.88291e-05
1.19984
-3.0688e-05
0.000150789
1.19961
7.32235e-05
0.000269697
1.19906
0.000282258
0.000396
1.19918
0.000625075
0.000514916
1.19876
0.00103589
0.000895978
1.19743
0.000361884
0.00138671
1.19805
0.00389994
0.00171859
1.19999
0.0062141
0.00242271
1.20664
0.0153893
0.00212375
1.21088
0.00884529
0.00247867
1.20641
-0.00486812
0.00347436
1.21281
0.00928391
-0.00152466
1.2105
-0.00661004
-0.00135582
1.20841
-0.0103545
-0.0032575
1.20849
-0.0125078
-0.00590204
1.20776
-0.0150053
-0.00566017
1.21038
-0.0164251
-0.00974339
1.21269
-0.0193018
-0.0103779
1.21389
-0.0218228
-0.0101524
1.21349
-0.0243571
-0.00951597
1.21155
-0.0269357
-0.0089894
1.20804
-0.0295037
-0.00847671
1.20293
-0.032002
-0.00795416
1.19643
-0.0343513
-0.00760243
1.18878
-0.0364679
-0.00743319
1.18031
-0.0382732
-0.00746042
1.17137
-0.0396424
-0.00767166
1.16275
-0.0405762
-0.00842656
-0.0402108
-0.0094068
1.19995
-0.000134832
5.67715e-05
1.19985
-6.94831e-05
0.000143754
1.19977
-9.37351e-05
0.000254796
1.19952
0.000165189
0.000369238
1.19952
0.000129945
0.000500007
1.19935
0.000452975
0.000768716
1.1981
0.000465925
0.00114969
1.19886
0.0017411
0.00141036
1.20094
0.00222923
0.00191963
1.20637
0.00847859
0.00149138
1.2095
0.00400517
0.00170567
1.20522
-0.00271435
0.00212452
1.21108
0.00457459
-0.00114817
1.20924
-0.00326343
-0.00151455
1.20752
-0.00519307
-0.00344192
1.20772
-0.00642848
-0.00627276
1.2071
-0.00800332
-0.00638515
1.20949
-0.00850864
-0.0103079
1.21135
-0.0101849
-0.01098
1.21195
-0.0115671
-0.0108549
1.21087
-0.0129217
-0.0103608
1.20819
-0.0142851
-0.00997629
1.20395
-0.0156306
-0.00963066
1.19812
-0.0169255
-0.00925699
1.19094
-0.0181335
-0.00903572
1.18266
-0.0192104
-0.00898249
1.17364
-0.0201284
-0.00912872
1.16421
-0.0207989
-0.00940955
1.1553
-0.0213113
-0.0103412
-0.021024
-0.0115738
1.19981
5.61383e-05
1.19961
0.00014069
1.19927
0.00024788
1.19908
0.000359973
1.1987
0.000509528
1.19845
0.000706257
1.19792
0.00100294
1.19838
0.00128653
1.19909
0.00153113
1.20621
0.00136317
1.20885
0.00135824
1.20502
0.00112238
1.21022
-0.000629428
1.20858
-0.00162579
1.20701
-0.00362341
1.20727
-0.00668252
1.20643
-0.00716957
1.20889
-0.0109682
1.21041
-0.011698
1.21049
-0.0116576
1.20884
-0.0112681
1.20554
-0.0109877
1.20066
-0.0107585
1.19421
-0.0104791
1.18642
-0.0103464
1.17757
-0.0103589
1.16804
-0.0105928
1.15815
-0.0109127
1.14891
-0.0120645
-0.0133576
1.19998
-3.46202e-06
8.59753e-05
1.19997
-0.000106582
0.000258182
1.19965
0.000110013
0.000456848
1.19952
-0.000131381
0.00062886
1.19916
2.89877e-06
0.000864449
1.20025
-0.00164492
0.00126126
1.20089
-0.00164344
0.0020063
1.20245
-0.002827
0.00255873
1.20395
-0.00291191
0.00293309
1.21015
-0.00796302
0.00312713
1.2158
-0.00667488
0.00241654
1.21314
0.00220042
0.00175144
1.21924
-0.0068693
0.00064562
1.22263
-0.00305902
-0.000772667
1.2232
6.49702e-05
-0.00153801
1.2244
-0.000508746
-0.00180181
1.22966
-0.00277771
-0.00126059
1.23301
-0.00247509
-0.00181742
1.23638
-0.00244941
-0.00191355
1.24005
-0.00283302
-0.00179007
1.24389
-0.0031433
-0.00154794
1.24763
-0.00331716
-0.00128325
1.25111
-0.00339586
-0.000872236
1.25426
-0.00342889
-0.000161035
1.25605
-0.00346677
0.00172835
1.25841
-0.00359989
0.00189732
1.26031
-0.00435803
0.00398599
1.26196
-0.00612676
0.00707364
1.26299
-0.00833823
0.0120569
-0.0101671
0.0180009
1.20003
-6.30893e-05
8.78773e-05
1.20005
-0.000240949
0.000264699
1.20023
-0.000278442
0.000464205
1.20029
-0.000390676
0.000570822
1.20114
-0.00107607
0.000725268
1.20186
-0.00301374
0.00142315
1.2021
-0.00322681
0.00248528
1.20426
-0.00631726
0.00272468
1.20847
-0.00846019
0.00324517
1.21213
-0.0139464
0.00377223
1.21609
-0.0120216
0.00304252
1.21442
0.00404419
0.00198844
1.21932
-0.0135476
0.000942206
1.22388
-0.00684435
-0.00132918
1.22475
-2.71035e-05
-0.00185341
1.22607
-0.000988396
-0.00211544
1.23018
-0.00409166
-0.00154268
1.23299
-0.00432982
-0.00208057
1.23634
-0.00476069
-0.00220333
1.24002
-0.00555646
-0.00208498
1.24386
-0.00616416
-0.00184868
1.24758
-0.00648489
-0.00159885
1.25103
-0.00660976
-0.00120193
1.25363
-0.00665327
-1.30167e-05
1.25595
-0.00669716
0.000731154
1.2584
-0.00734627
0.00169683
1.26051
-0.0094512
0.00430685
1.26221
-0.0129316
0.00769801
1.26299
-0.0166372
0.0124094
-0.0195796
0.0177901
1.2
-9.47271e-05
9.1614e-05
1.19987
-0.000230706
0.000277663
1.19994
-0.000562814
0.000482756
1.19967
-0.000282218
0.00056127
1.20089
-0.00234605
0.000568016
1.20141
-0.00437031
0.00171901
1.20126
-0.00474061
0.00304012
1.20324
-0.00981185
0.0032075
1.20721
-0.0140917
0.00403103
1.21176
-0.0215972
0.00510228
1.21114
-0.0136208
0.00447756
1.21649
-0.000388669
0.00229595
1.22093
-0.0207777
0.00119894
1.22401
-0.00868715
-0.00206785
1.22445
0.000601672
-0.00250777
1.22569
-0.0011586
-0.00268335
1.23006
-0.00529915
-0.00202163
1.23284
-0.00602954
-0.00251945
1.23621
-0.00693511
-0.00267482
1.23997
-0.0081891
-0.00254527
1.24389
-0.00908311
-0.00228977
1.24765
-0.0095282
-0.00203187
1.25056
-0.009715
-0.000989639
1.25328
-0.00973867
-0.000446023
1.25634
-0.0102522
0.00019536
1.25911
-0.0121893
0.00250494
1.26143
-0.0159921
0.00590669
1.26297
-0.0207276
0.00961302
1.26327
-0.0251602
0.0140611
-0.0285475
0.018886
1.20001
-0.000134825
9.69305e-05
1.2
-0.000344666
0.000289282
1.20023
-0.000961778
0.000452652
1.20049
-0.000770348
0.000675554
1.20074
-0.00259157
0.00056421
1.20076
-0.00532102
0.00197479
1.20023
-0.0062017
0.00368666
1.202
-0.0133867
0.00399502
1.20613
-0.0202939
0.00526724
1.21193
-0.0319353
0.00761171
1.21642
-0.021859
0.00710733
1.21985
-0.00219619
0.00315351
1.2221
-0.0269783
0.00136022
1.22445
-0.00916198
-0.00314779
1.22406
0.00259207
-0.00363546
1.22515
-0.000758867
-0.00363811
1.22968
-0.00618399
-0.00276575
1.23247
-0.00749706
-0.00324673
1.23596
-0.00897798
-0.00336666
1.23987
-0.0107369
-0.00318714
1.24392
-0.0119031
-0.00288674
1.24778
-0.0124612
-0.00258427
1.25017
-0.0127528
-0.000806761
1.25374
-0.0131481
-0.00114011
1.25708
-0.0147736
0.000910203
1.25997
-0.0183351
0.00407352
1.26204
-0.0234526
0.00786724
1.26304
-0.0288497
0.0115477
1.26266
-0.0335372
0.0156511
-0.0370636
0.0200691
1.20003
-0.000200451
0.000101055
1.20009
-0.000492824
0.000255413
1.20065
-0.00151484
0.000263402
1.20114
-0.00169787
0.000984544
1.20044
-0.00188373
0.000654285
1.20018
-0.00599579
0.00209824
1.19915
-0.00754743
0.00458238
1.20037
-0.0168129
0.00515175
1.20513
-0.028061
0.00760136
1.21326
-0.0467421
0.0118015
1.22125
-0.0356488
0.0110545
1.24182
-0.0227564
0.00502703
1.22521
-0.0134794
0.00100907
1.22502
-0.00610737
-0.00498925
1.22344
0.00665744
-0.00555186
1.22443
0.000382337
-0.00522463
1.2291
-0.00660071
-0.00405736
1.23187
-0.00852723
-0.0045911
1.23553
-0.010886
-0.00454635
1.23965
-0.0132697
-0.00417023
1.24389
-0.0147627
-0.00365859
1.24728
-0.0155911
-0.00240303
1.25054
-0.0161035
-0.00161597
1.25434
-0.0173303
-0.000577443
1.25768
-0.0201708
0.00214963
1.26017
-0.0248747
0.00557355
1.26148
-0.0306569
0.00921648
1.26159
-0.0363226
0.0126034
1.26024
-0.0410486
0.0163297
-0.0447592
0.0205112
1.2
-0.000228985
9.00343e-05
1.2003
-0.000728184
6.85822e-05
1.20045
-0.00154439
0.000167481
1.20013
-0.00206626
0.00133615
1.19978
-0.00152361
0.000723496
1.19986
-0.00687164
0.0019588
1.19848
-0.0089649
0.00575806
1.19852
-0.020002
0.0073472
1.20381
-0.0380297
0.0114603
1.21528
-0.0673743
0.01835
1.23881
-0.0681392
0.0175563
1.23621
-0.0231987
0.00789168
1.24068
-0.0188498
-0.000594298
1.22591
0.0127991
-0.00785671
1.22251
0.0139983
-0.00889388
1.22373
0.00207237
-0.00764926
1.22807
-0.00604314
-0.00605281
1.23102
-0.00926798
-0.00647299
1.23499
-0.0127842
-0.00622142
1.23942
-0.0159179
-0.00560169
1.24323
-0.0179228
-0.00403274
1.24679
-0.0190036
-0.00324722
1.25099
-0.0201498
-0.00260473
1.25471
-0.0220986
-0.000446104
1.2575
-0.025594
0.00235376
1.25893
-0.0306772
0.00550413
1.25884
-0.0365964
0.00878031
1.25745
-0.0423797
0.011893
1.25461
-0.047121
0.015429
-0.0514169
0.0196837
1.20006
-0.000238222
-2.27205e-05
1.20028
-0.000762986
-0.000365473
1.20047
-0.00148076
0.000281789
1.19969
-0.00208911
0.00152864
1.1992
-0.00136021
0.00130504
1.1993
-0.0078664
0.00233015
1.19718
-0.00998468
0.00677636
1.19392
-0.0211079
0.0103313
1.19836
-0.0485835
0.0164121
1.207
-0.019547
0.0295148
-0.0264695
-0.0181016
-0.0247144
1.23558
-0.0345211
0.0296997
-0.0262096
-0.0269492
-0.0252479
1.23631
-0.00876221
0.0117857
-0.00789049
-0.00449961
-0.0082372
1.23294
-4.62537e-05
-0.00265731
-0.00465763
-0.000746847
-0.0100168
1.22295
0.00821617
-0.012746
0.00863524
0.00687384
0.00556573
1.22035
0.022806
-0.0143928
1.22294
0.00463065
-0.0118927
1.22607
-0.00562551
-0.00996848
1.22932
-0.0108625
-0.00949087
1.23407
-0.0164227
-0.00854758
1.2385
-0.0205191
-0.00663041
1.24264
-0.0226837
-0.00540806
1.24727
-0.023913
-0.00515862
1.25121
-0.0248884
-0.00380515
1.25396
-0.0263895
-0.0020539
1.25492
-0.0292179
0.000129345
1.25379
-0.0338146
0.00283151
1.25089
-0.0398097
0.00603519
1.24705
-0.0463317
0.00936538
1.24238
-0.0517131
0.0132177
-0.0574543
0.0179822
1.20011
-0.000215627
-0.000118351
1.20075
-0.000719639
-0.00101522
1.20035
-0.00132876
0.000388603
1.19942
-0.00178478
0.00103001
1.19852
-0.00127784
0.00291292
1.19707
-0.00783015
0.0034634
1.19478
-0.011058
0.00760031
1.18632
-0.0179263
0.0136019
0.296282
-0.011925
0.0262907
0.294593
0.297878
0.296448
-0.0170374
-0.0113633
-0.0159865
-0.00618421
0.298188
-0.0236313
0.00835362
-0.00669913
0.307139
-0.0425413
0.010847
-0.303261
-0.00152235
-0.312269
0.316025
-0.0138545
0.00286405
0.000873344
-0.315257
0.314614
0.000214178
-0.000484691
0.00290915
-0.312332
0.308769
0.0126955
-0.00382382
1.21662
0.0414303
-0.0271605
-0.305147
-0.305007
-0.306908
-0.306798
1.21941
0.0116874
-0.021396
1.22013
-0.000859477
-0.0192205
1.22306
-0.00917635
-0.017541
1.22755
-0.0158412
-0.0170983
1.23089
-0.0198562
-0.0152239
1.23423
-0.0216813
-0.0148825
1.23649
-0.0222779
-0.0140444
1.23729
-0.0224572
-0.0128563
1.23615
-0.0232756
-0.0109464
1.23282
-0.0261917
-0.00790828
1.2279
-0.0323839
-0.00364389
1.2229
-0.0413173
0.00132462
1.21894
-0.0509092
0.00619817
1.21557
-0.0579539
0.0110646
-0.0648523
0.016746
1.20017
-0.000177735
-0.00018383
1.20094
-0.000605209
-0.000960085
1.20027
-0.00108821
0.000244961
1.19902
-0.00139694
0.000670121
1.19697
-0.000197244
0.00366705
1.19396
-0.00661276
0.00444823
1.18883
-0.00936663
0.00827213
0.294019
-0.0157623
0.0167812
0.295132
0.295514
0.296758
-0.00500368
0.2911
-0.0107908
0.00678396
0.291449
-0.0342275
0.0168766
-0.0126379
0.0279886
-0.289504
0.0201481
-0.0160338
-0.301841
0.0503603
0.0779272
0.0770368
0.0772669
0.0775263
-0.0133453
-0.0174212
-0.0159413
-0.01566
0.000853834
-0.0793271
0.00577327
0.0811681
-0.00740408
-0.00106295
-0.0802505
0.000875444
0.000142552
0.0799337
-0.00025353
-0.000441828
-0.0787435
0.00098461
-0.0043779
0.00505308
-0.000956991
0.0780444
1.15309
0.0831032
-0.0646272
-0.299669
-0.270352
-0.302541
-0.280935
1.15347
0.0400317
-0.053773
1.15387
0.0205435
-0.0510086
1.15345
0.00888147
-0.048724
1.15211
0.000338365
-0.0462806
1.14937
-0.00544139
-0.0424832
1.14577
-0.00946582
-0.0380902
1.14169
-0.0127394
-0.0330837
1.13758
-0.0164488
-0.0267496
1.13491
-0.022271
-0.019266
1.13626
-0.0317067
-0.0116098
1.14316
-0.0441419
-0.00451319
1.15375
-0.0564788
0.00198541
1.16404
-0.065943
0.00784794
1.17177
-0.0712598
0.0126895
-0.075206
0.0181763
1.20017
-0.000130842
-0.000195147
1.20057
-0.000456335
-0.000461231
1.20003
-0.000822323
0.000535229
1.19947
-0.00124962
0.00022548
1.19986
-0.00177062
0.00337384
1.1936
-0.00243945
0.00490728
1.1846
-0.00328197
0.00804545
0.291459
-0.00440481
0.01999
0.290456
0.293481
0.291699
0.286403
-0.00507653
0.00995779
-0.00712237
0.00729216
-0.00520767
0.00860695
-0.0684808
0.0668097
-0.00816074
0.00642111
-0.00361871
0.0067768
-0.0187638
0.0197958
-0.00793106
0.00373753
0.0017417
0.00124041
-0.00551677