/*--------------------------------*- C++ -*----------------------------------*\
| =========                 |                                                 |
| \\      /  F ield         | OpenFOAM: The Open Source CFD Toolbox           |
|  \\    /   O peration     | Version:  2512                                  |
|   \\  /    A nd           | Website:  www.openfoam.com                      |
|    \\/     M anipulation  |                                                 |
\*---------------------------------------------------------------------------*/
FoamFile
{
    version     2.0;
    format      ascii;
    arch        "LSB;label=32;scalar=64";
    class       volVectorField;
    location    "250";
    object      U;
}
// * * * * * * * * * * * * * * * * * * * * * * * * * * * * * * * * * * * * * //

dimensions      [0 1 -1 0 0 0 0];

internalField   nonuniform List<vector> 
96507
(
(15.0001 -0.000246491 0.00013798)
(15.0007 -0.000798108 0.000440614)
(15.0022 -0.00150538 0.000797168)
(15.005 -0.00251274 0.00123726)
(15.0101 -0.00399943 0.00179224)
(15.0188 -0.0061822 0.00248571)
(15.0333 -0.00924911 0.00332451)
(15.0566 -0.0132419 0.004251)
(15.0912 -0.0176234 0.00504309)
(15.1386 -0.0212626 0.00538335)
(15.1951 -0.0215701 0.00488128)
(15.2501 -0.0165935 0.00333893)
(15.2894 -0.00849034 0.000988759)
(15.3079 -0.00193523 -0.00143941)
(15.3144 0.000153761 -0.00319997)
(15.3235 -0.00138681 -0.00400178)
(15.3443 -0.00396045 -0.00411815)
(15.3756 -0.00612707 -0.00403068)
(15.4135 -0.00795776 -0.00387947)
(15.4556 -0.00958757 -0.00357821)
(15.5008 -0.0108019 -0.00306428)
(15.5473 -0.0115033 -0.00233827)
(15.5926 -0.0118347 -0.00138003)
(15.6345 -0.0119751 -0.000135919)
(15.6714 -0.0120558 0.00153294)
(15.7012 -0.0121587 0.00359287)
(15.7234 -0.0123546 0.00622377)
(15.7307 -0.0129509 0.00830473)
(15.7349 -0.0142619 0.0125118)
(15.6842 -0.0187461 0.0224777)
(15.0001 -0.000720544 0.000140266)
(15.0006 -0.00233845 0.000450647)
(15.0018 -0.00442056 0.000819918)
(15.0042 -0.00739792 0.00128351)
(15.0085 -0.0118239 0.00188051)
(15.0162 -0.0183844 0.00264738)
(15.0297 -0.0277371 0.0036053)
(15.0521 -0.0401267 0.00471603)
(15.087 -0.0541079 0.00575992)
(15.1369 -0.0660623 0.00634723)
(15.1985 -0.0673249 0.00582431)
(15.2585 -0.0511152 0.00396527)
(15.2987 -0.0249068 0.00112319)
(15.3136 -0.00413732 -0.00181221)
(15.3152 0.0020588 -0.00382832)
(15.3216 -0.00326183 -0.00467606)
(15.3419 -0.0114382 -0.00476627)
(15.3736 -0.0180057 -0.00467813)
(15.4117 -0.0233884 -0.00453306)
(15.4541 -0.028091 -0.00421842)
(15.4998 -0.0315299 -0.0036863)
(15.5468 -0.0334896 -0.00295092)
(15.5922 -0.0343972 -0.00200094)
(15.6341 -0.0347384 -0.000772722)
(15.671 -0.0348404 0.000842115)
(15.7008 -0.0349286 0.00268338)
(15.723 -0.0354198 0.00477776)
(15.7308 -0.0376754 0.00692882)
(15.7359 -0.0424824 0.0121114)
(15.6868 -0.0554593 0.024158)
(15 -0.00114738 0.000147124)
(15.0003 -0.00373472 0.000475429)
(15.001 -0.00708161 0.000873284)
(15.0024 -0.0119015 0.00138766)
(15.0053 -0.0191614 0.00207652)
(15.0111 -0.0301267 0.00300484)
(15.0221 -0.0461795 0.00423731)
(15.0425 -0.0681958 0.0057829)
(15.0775 -0.0942065 0.00739595)
(15.1327 -0.117831 0.00856121)
(15.2058 -0.121079 0.00795674)
(15.2771 -0.0893339 0.00527592)
(15.3191 -0.0392179 0.00125949)
(15.3257 -0.00112674 -0.00280899)
(15.3165 0.00887973 -0.00533038)
(15.317 -0.00188824 -0.00615141)
(15.337 -0.0166985 -0.00607653)
(15.3699 -0.0282643 -0.0059253)
(15.4088 -0.0377671 -0.00576155)
(15.452 -0.0458136 -0.00539405)
(15.4989 -0.0513495 -0.00477846)
(15.5468 -0.054265 -0.00395285)
(15.5929 -0.0554461 -0.00286824)
(15.6352 -0.0557099 -0.00143269)
(15.6723 -0.0556136 0.000356295)
(15.7022 -0.0557938 0.00208856)
(15.725 -0.0578528 0.00429233)
(15.7339 -0.0644854 0.00792257)
(15.7406 -0.075218 0.0149281)
(15.6925 -0.0969858 0.0298748)
(15 -0.00150338 0.000156087)
(14.9999 -0.00490642 0.000508587)
(14.9998 -0.00933369 0.000946603)
(14.9999 -0.0157716 0.00153525)
(15.0005 -0.0256498 0.00236294)
(15.003 -0.040985 0.00355047)
(15.0098 -0.064364 0.00523964)
(15.0262 -0.0981239 0.00755721)
(15.0602 -0.14097 0.0102505)
(15.124 -0.183723 0.0126471)
(15.2184 -0.190564 0.0119286)
(15.3101 -0.133485 0.00757358)
(15.354 -0.0482164 0.00145047)
(15.345 0.0115483 -0.00453953)
(15.3173 0.0230166 -0.00788492)
(15.3088 0.00332742 -0.00865944)
(15.3287 -0.0187381 -0.00834088)
(15.3636 -0.0350683 -0.0080647)
(15.4038 -0.0493604 -0.00779809)
(15.4487 -0.061818 -0.00728905)
(15.4975 -0.0703409 -0.00651679)
(15.5471 -0.0749573 -0.00552413)
(15.5942 -0.0771155 -0.00417879)
(15.637 -0.0780349 -0.00238178)
(15.6744 -0.0787705 -0.000406803)
(15.7046 -0.0811121 0.00168538)
(15.7281 -0.0881992 0.0053175)
(15.737 -0.102149 0.0110965)
(15.744 -0.119919 0.0193901)
(15.6945 -0.149517 0.0360558)
(14.9999 -0.00176309 0.000166763)
(14.9995 -0.00576707 0.000548709)
(14.9983 -0.0110049 0.00103682)
(14.9965 -0.0187081 0.00172231)
(14.9941 -0.0307993 0.00273962)
(14.9917 -0.0502351 0.00430316)
(14.9917 -0.08158 0.00669688)
(15.0004 -0.129991 0.010282)
(15.0302 -0.197733 0.015018)
(15.1074 -0.275449 0.0201264)
(15.2398 -0.289592 0.0189686)
(15.3654 -0.187551 0.0100201)
(15.4098 -0.0467417 -0.000876958)
(15.3722 0.0436553 -0.00983649)
(15.3153 0.0508161 -0.0140371)
(15.2957 0.0128736 -0.0144123)
(15.3179 -0.0200137 -0.0137022)
(15.3555 -0.0407724 -0.013257)
(15.3967 -0.0584177 -0.0126902)
(15.4434 -0.0735341 -0.0116761)
(15.495 -0.0835056 -0.0103093)
(15.5467 -0.0889411 -0.00859593)
(15.5952 -0.0919422 -0.00637552)
(15.6386 -0.0941904 -0.00375526)
(15.6763 -0.0976278 -0.000872222)
(15.7066 -0.105425 0.00281027)
(15.7295 -0.12051 0.00825265)
(15.7364 -0.142973 0.0151738)
(15.7421 -0.167719 0.0233587)
(15.6876 -0.204378 0.0400934)
(14.9999 -0.00190488 0.000178002)
(14.9989 -0.00624795 0.000591966)
(14.9966 -0.0119468 0.00113636)
(14.9926 -0.0204097 0.00193579)
(14.9862 -0.0340248 0.00319181)
(14.9771 -0.0568323 0.00525655)
(14.9666 -0.0962666 0.00870886)
(14.9609 -0.163078 0.0144337)
(14.9782 -0.26963 0.0227701)
(15.0749 -0.409734 0.0346359)
(15.276 -0.43457 0.0320884)
(15.4593 -0.257145 0.0141106)
(15.4962 -0.0326605 -0.0044209)
(15.4065 0.105264 -0.0173331)
(15.3018 0.105492 -0.0227023)
(15.2692 0.0432792 -0.0226954)
(15.2997 -0.00647817 -0.0216208)
(15.3438 -0.0396932 -0.0211253)
(15.3874 -0.067486 -0.0204095)
(15.437 -0.089228 -0.0190963)
(15.4918 -0.102989 -0.0173047)
(15.5457 -0.111095 -0.0150208)
(15.5952 -0.116686 -0.0122635)
(15.6392 -0.122186 -0.00923225)
(15.677 -0.130322 -0.00576776)
(15.7064 -0.14415 -0.00146037)
(15.7274 -0.165277 0.0040782)
(15.73 -0.192795 0.0105687)
(15.7326 -0.221055 0.018059)
(15.6666 -0.261095 0.0349912)
(14.9998 -0.00191767 0.000189036)
(14.9983 -0.00630416 0.000632592)
(14.9948 -0.0120566 0.00123222)
(14.9882 -0.0206084 0.00215013)
(14.9773 -0.0346257 0.00368516)
(14.9594 -0.0591084 0.00636333)
(14.9331 -0.105313 0.0114143)
(14.9013 -0.191663 0.0204412)
(14.8892 -0.368626 0.0363744)
(15.0084 -0.619755 0.0598254)
(15.326 -0.637902 0.0500309)
(15.6023 -0.316609 0.0164612)
(15.6243 0.00373615 -0.0135706)
(15.4538 0.196261 -0.0316666)
(15.2772 0.157697 -0.0376667)
(15.2278 0.0748922 -0.0391662)
(15.2674 0.0247782 -0.0402884)
(15.3181 -0.0129596 -0.0411363)
(15.3664 -0.049038 -0.0405796)
(15.4223 -0.076618 -0.0385618)
(15.4833 -0.09394 -0.0353676)
(15.542 -0.1051 -0.0313873)
(15.5948 -0.113957 -0.0269933)
(15.641 -0.123338 -0.0225945)
(15.6795 -0.136206 -0.0185458)
(15.7075 -0.155389 -0.0151177)
(15.7238 -0.181448 -0.0115737)
(15.7151 -0.213848 -0.00681356)
(15.706 -0.244717 0.000719998)
(15.6072 -0.293409 0.0196491)
(14.9998 -0.00180836 0.000198813)
(14.9978 -0.00592782 0.000669526)
(14.9931 -0.0112811 0.00131612)
(14.9841 -0.0191916 0.00231993)
(14.9682 -0.032251 0.00410223)
(14.94 -0.0551954 0.00744069)
(14.8915 -0.103827 0.0146454)
(14.8112 -0.199424 0.0282139)
(14.7174 -0.473913 0.063257)
(14.8394 -0.712818 0.0446212)
(15.3085 -0.978457 0.0357367)
(15.8539 -0.496035 -0.0132418)
(15.9048 0.131035 -0.0258082)
(15.6337 0.454938 -0.0398489)
(15.2058 0.297477 -0.0672219)
(15.1664 0.127418 -0.0647007)
(15.2238 0.0606017 -0.0641358)
(15.2753 0.015533 -0.0626038)
(15.3223 -0.0300754 -0.0590121)
(15.383 -0.066108 -0.0544225)
(15.4485 -0.0902616 -0.0494795)
(15.5076 -0.106907 -0.0445091)
(15.5563 -0.119492 -0.0398931)
(15.593 -0.130608 -0.0362769)
(15.6157 -0.1429 -0.0346563)
(15.6197 -0.159402 -0.0352848)
(15.6019 -0.181406 -0.0353191)
(15.5481 -0.213104 -0.0308025)
(15.4912 -0.239506 -0.0195453)
(15.3209 -0.300657 0.0067678)
(14.9998 -0.00158534 0.000205826)
(14.9974 -0.00518195 0.000698316)
(14.9916 -0.00971717 0.00138247)
(14.9806 -0.0160647 0.00245891)
(14.9605 -0.0265063 0.00432975)
(14.9219 -0.0447312 0.00837529)
(14.8489 -0.0830945 0.0166462)
(14.6967 -0.178508 0.0417531)
(14.603 -0.334094 0.0381549)
(14.4024 -1.16371 0.0964906)
(15.446 -1.74193 0.126553)
(16.5229 -0.694282 0.034)
(16.3271 0.245131 -0.0416637)
(15.8504 0.857692 -0.0264292)
(14.8432 0.604324 -0.0349791)
(14.8701 0.323088 -0.0705305)
(14.9568 0.195091 -0.0947456)
(14.9826 0.119754 -0.111951)
(14.9895 0.0619238 -0.121851)
(14.9995 0.0232655 -0.126812)
(15.0041 0.000754766 -0.128319)
(14.9947 -0.0120404 -0.126721)
(14.971 -0.0187073 -0.121952)
(14.9313 -0.0212927 -0.113393)
(14.8727 -0.023389 -0.0992207)
(14.7967 -0.0307366 -0.0771344)
(14.6981 -0.0484792 -0.0480224)
(14.5877 -0.0904207 -0.0172937)
(14.4961 -0.128801 0.00789598)
(14.399 -0.244072 0.0379705)
(14.9997 -0.001277 0.000209723)
(14.9971 -0.0041471 0.000712869)
(14.9907 -0.00754719 0.00141956)
(14.9783 -0.0119397 0.00255335)
(14.9558 -0.0181985 0.00454706)
(14.9093 -0.0281424 0.00883329)
(14.8212 -0.0484852 0.018099)
(14.5836 -0.0963883 0.0498809)
(14.3349 -0.236247 0.0602318)
(13.6969 -0.979453 0.0641474)
(16.1794 -3.92319 0.104618)
(9.90358 -2.81222 0.320278)
(8.49992 -0.973093 0.0866063)
(10.0052 0.396143 0.230205)
(8.28575 0.916759 -0.199611)
(8.94401 0.711249 -0.301739)
(9.56438 0.590518 -0.318337)
(9.96744 0.510106 -0.303693)
(10.2768 0.446497 -0.27478)
(10.5589 0.396 -0.239853)
(10.8102 0.353808 -0.201434)
(11.0267 0.313804 -0.15843)
(11.212 0.271225 -0.111349)
(11.3917 0.21642 -0.0620523)
(11.6017 0.140972 -0.0150252)
(11.8646 0.0437805 0.0214371)
(12.1964 -0.0711173 0.0420967)
(12.5813 -0.19298 0.052143)
(12.9284 -0.296513 0.0514694)
(13.4022 -0.428726 0.0615986)
(14.9997 -0.000920004 0.000209792)
(14.997 -0.00294987 0.000713632)
(14.9904 -0.00505836 0.00142155)
(14.9776 -0.00716216 0.00255727)
(14.9546 -0.00884435 0.0045578)
(14.9073 -0.00909473 0.00886354)
(14.8175 -0.00216084 0.0181456)
(14.5788 0.0264531 0.0501194)
(14.2668 0.061621 0.0652197)
(12.8463 0.272914 0.114802)
(8.67068 1.47015 -5.78341)
(9.55149 1.80548 -0.938512)
(7.48228 1.84834 -0.20237)
(7.16227 -0.0167897 0.183099)
(7.74317 0.198989 0.000461465)
(8.39264 0.247358 -0.0627842)
(8.86845 0.232495 -0.0711386)
(9.31692 0.188577 -0.0540924)
(9.79765 0.119403 -0.026399)
(10.2953 0.0301672 0.00542913)
(10.8015 -0.0734005 0.0379084)
(11.3232 -0.188943 0.0682349)
(11.8582 -0.309185 0.0880323)
(12.3923 -0.423808 0.0925782)
(12.8952 -0.5246 0.086909)
(13.3364 -0.607409 0.077765)
(13.6976 -0.665932 0.0700683)
(13.9657 -0.716625 0.0622815)
(14.2177 -0.72815 0.0635327)
(14.9997 -0.000555688 0.000205778)
(14.9971 -0.00173275 0.000700159)
(14.9907 -0.00255771 0.00138796)
(14.9787 -0.00252552 0.0024685)
(14.9569 0.000195414 0.0043469)
(14.916 0.0086244 0.0084236)
(14.8385 0.0340578 0.0168282)
(14.6811 0.113126 0.0423143)
(14.4701 0.267248 0.0520502)
(13.9202 1.27014 0.155493)
(15.263 2.84499 0.182617)
(10.875 4.23118 1.16136)
(9.86669 3.47405 0.000395406)
(9.85488 1.72394 0.22986)
(13.3285 -0.259464 0.398973)
(13.4653 -0.0985205 0.327746)
(13.6901 -0.100531 0.278862)
(13.8706 -0.150022 0.241951)
(14.0403 -0.211047 0.211787)
(14.2311 -0.286635 0.184917)
(14.4281 -0.372456 0.158339)
(14.6156 -0.459501 0.13042)
(14.781 -0.539987 0.102505)
(14.91 -0.609192 0.0777978)
(14.9952 -0.665091 0.0591327)
(15.0362 -0.707966 0.0471735)
(15.0434 -0.74126 0.0406977)
(15.018 -0.763271 0.0380277)
(14.9918 -0.787754 0.0370371)
(14.8941 -0.779157 0.0416089)
(14.9998 -0.000222602 0.000198739)
(14.9973 -0.000627357 0.000672419)
(14.9916 -0.000353807 0.00132355)
(14.9809 0.00159698 0.0023309)
(14.9624 0.00741401 0.00413579)
(14.9305 0.0212567 0.00753447)
(14.876 0.0585969 0.0149165)
(14.7864 0.139835 0.0290335)
(14.6765 0.395116 0.0652915)
(14.6152 0.758983 0.0795887)
(15.1468 1.25136 0.132193)
(16.0109 0.781309 0.0960156)
(16.094 0.0325246 0.103662)
(15.7947 -0.40488 0.0879655)
(15.2574 -0.266233 0.065871)
(15.191 -0.189755 0.0678433)
(15.2297 -0.216939 0.0620746)
(15.2706 -0.271985 0.0529047)
(15.31 -0.327239 0.0429399)
(15.3597 -0.386764 0.031865)
(15.4074 -0.447533 0.0193241)
(15.4382 -0.503029 0.00750192)
(15.4466 -0.552059 -0.000579691)
(15.431 -0.596447 -0.00363745)
(15.3937 -0.638664 -0.00222742)
(15.3364 -0.67835 0.0020259)
(15.2669 -0.714762 0.00731336)
(15.1792 -0.743614 0.0125576)
(15.1093 -0.76931 0.0167111)
(14.9572 -0.769967 0.0240999)
(14.9998 4.73457e-05 0.000188793)
(14.9977 0.000270902 0.000636048)
(14.9928 0.00135134 0.00124121)
(14.984 0.00444535 0.00217288)
(14.9696 0.0118786 0.00374312)
(14.9469 0.0283338 0.00649)
(14.9134 0.064491 0.0117111)
(14.8705 0.139445 0.0211768)
(14.84 0.301606 0.0382792)
(14.9224 0.54306 0.0657052)
(15.2073 0.595714 0.0734843)
(15.478 0.305207 0.0546397)
(15.5082 -0.00174932 0.0286123)
(15.3571 -0.220676 0.011575)
(15.188 -0.259134 0.00792173)
(15.1269 -0.251174 0.004259)
(15.1569 -0.281635 -0.000442162)
(15.2068 -0.328873 -0.0076004)
(15.2579 -0.370195 -0.0167901)
(15.3121 -0.406475 -0.0244297)
(15.3587 -0.442677 -0.0287063)
(15.3863 -0.480605 -0.0292808)
(15.391 -0.52093 -0.0264505)
(15.3729 -0.563391 -0.0211399)
(15.3339 -0.606409 -0.0146813)
(15.275 -0.647045 -0.00818186)
(15.2033 -0.683448 -0.00247294)
(15.1111 -0.712053 0.002272)
(15.0375 -0.734351 0.00520096)
(14.88 -0.735527 0.0104604)
(14.9998 0.00024071 0.000177532)
(14.9981 0.000879809 0.000596118)
(14.9942 0.00244017 0.00114893)
(14.9874 0.00609546 0.00196455)
(14.977 0.0139621 0.00325293)
(14.9621 0.0297823 0.0053841)
(14.9434 0.0608489 0.00896747)
(14.926 0.117908 0.0149949)
(14.9262 0.214115 0.0241353)
(14.9962 0.348238 0.0379242)
(15.1724 0.387645 0.0421098)
(15.3432 0.218637 0.0302777)
(15.3753 -0.0109461 0.0130503)
(15.2866 -0.177178 -0.000549882)
(15.1778 -0.234366 -0.00742245)
(15.1319 -0.236487 -0.0112506)
(15.1537 -0.2529 -0.0156965)
(15.1984 -0.285627 -0.0248268)
(15.2446 -0.31939 -0.034475)
(15.2886 -0.353909 -0.0396415)
(15.3224 -0.392175 -0.0398473)
(15.3377 -0.433284 -0.0365009)
(15.3317 -0.475507 -0.0310995)
(15.3042 -0.517652 -0.0249755)
(15.2569 -0.558409 -0.0191105)
(15.1904 -0.596159 -0.0140295)
(15.1117 -0.629421 -0.0101251)
(15.0128 -0.655572 -0.00708336)
(14.934 -0.67473 -0.00596223)
(14.7746 -0.675067 -0.0032729)
(14.9999 0.000344286 0.000166265)
(14.9985 0.00119859 0.000553767)
(14.9955 0.00292608 0.00105014)
(14.9905 0.00656435 0.00175135)
(14.9835 0.0138162 0.00279885)
(14.9747 0.0274448 0.00441835)
(14.9658 0.0518818 0.0069041)
(14.9623 0.0924134 0.0106812)
(14.9758 0.151976 0.0158687)
(15.0307 0.223295 0.0220349)
(15.1406 0.239855 0.0236049)
(15.2491 0.136899 0.0171558)
(15.2806 -0.0148102 0.00678837)
(15.2323 -0.130155 -0.00341385)
(15.1617 -0.181384 -0.0104162)
(15.1263 -0.19568 -0.0153053)
(15.1404 -0.21682 -0.021333)
(15.1792 -0.250256 -0.0301551)
(15.2217 -0.284578 -0.0377899)
(15.2593 -0.317933 -0.0410248)
(15.2839 -0.35249 -0.0402335)
(15.289 -0.388276 -0.0369735)
(15.2724 -0.424533 -0.0325177)
(15.2342 -0.46063 -0.0278099)
(15.1766 -0.495598 -0.0235802)
(15.1007 -0.528071 -0.0201389)
(15.0133 -0.556426 -0.0177547)
(14.9072 -0.578704 -0.0160815)
(14.8224 -0.594171 -0.0164878)
(14.6628 -0.592699 -0.016329)
(14.9999 0.000365951 0.000155456)
(14.9989 0.0012455 0.000513509)
(14.9967 0.00286288 0.000959754)
(14.9932 0.0060569 0.00156334)
(14.9888 0.0120923 0.00241735)
(14.9843 0.0228423 0.0036488)
(14.9817 0.0408245 0.00540059)
(14.9856 0.0684401 0.00782594)
(15.0035 0.104856 0.0107633)
(15.0469 0.141854 0.0136955)
(15.1194 0.146195 0.0140826)
(15.1908 0.0847053 0.0106575)
(15.216 -0.0121412 0.00445304)
(15.1881 -0.0934513 -0.003316)
(15.1398 -0.13889 -0.0101653)
(15.1133 -0.159888 -0.0162769)
(15.1259 -0.180845 -0.0238874)
(15.1622 -0.207926 -0.0330567)
(15.2015 -0.235868 -0.0403683)
(15.2324 -0.263673 -0.0434967)
(15.2475 -0.292799 -0.0429204)
(15.2419 -0.323228 -0.0401586)
(15.2142 -0.354121 -0.0364446)
(15.1653 -0.384649 -0.0326478)
(15.0973 -0.413819 -0.0294138)
(15.0119 -0.44051 -0.0270031)
(14.9159 -0.463495 -0.02564)
(14.8028 -0.481319 -0.0248861)
(14.7122 -0.493183 -0.0264307)
(14.5533 -0.490527 -0.0285985)
(14.9999 0.00031746 0.000146368)
(14.9992 0.00106344 0.000480138)
(14.9976 0.00236141 0.000886014)
(14.9953 0.00481952 0.00141398)
(14.9928 0.00929171 0.00212456)
(14.9912 0.0169449 0.00308584)
(14.9924 0.0291197 0.00435716)
(15.0001 0.0467137 0.00595941)
(15.019 0.0680539 0.00768534)
(15.0544 0.0871126 0.0090812)
(15.1055 0.0868542 0.00885712)
(15.1543 0.0502252 0.00629098)
(15.1733 -0.00967456 0.00160851)
(15.1557 -0.0641386 -0.00462247)
(15.1213 -0.0983198 -0.0110083)
(15.1019 -0.116812 -0.0177507)
(15.1146 -0.134076 -0.0265292)
(15.1481 -0.155368 -0.0360786)
(15.1832 -0.177952 -0.0431761)
(15.2074 -0.200627 -0.0461839)
(15.2136 -0.2239 -0.0457971)
(15.1982 -0.247684 -0.0435247)
(15.1604 -0.271364 -0.040584)
(15.1015 -0.294358 -0.0377193)
(15.0239 -0.316019 -0.0354006)
(14.9295 -0.335589 -0.0338478)
(14.8254 -0.352266 -0.033306)
(14.7056 -0.365026 -0.0332834)
(14.6093 -0.373402 -0.0357144)
(14.4508 -0.370281 -0.0399737)
(15 0.000216813 0.000139507)
(14.9994 0.000716023 0.00045561)
(14.9983 0.00155292 0.000832764)
(14.9967 0.00309487 0.0013086)
(14.9955 0.00583103 0.00192411)
(14.9956 0.010389 0.00271471)
(14.999 0.0174019 0.00369581)
(15.0084 0.0271184 0.00482985)
(15.0271 0.0382472 0.00591332)
(15.0574 0.0472563 0.00656371)
(15.0968 0.0458233 0.00606657)
(15.1327 0.0260179 0.00391503)
(15.1473 -0.00663082 6.66512e-05)
(15.1347 -0.0377092 -0.00524666)
(15.1081 -0.0587627 -0.0113698)
(15.093 -0.0717949 -0.0184991)
(15.1058 -0.0842807 -0.0281282)
(15.137 -0.0988349 -0.0382609)
(15.168 -0.113901 -0.0456964)
(15.1859 -0.128776 -0.0491382)
(15.1842 -0.143775 -0.0493569)
(15.1601 -0.158924 -0.0478019)
(15.1132 -0.173887 -0.0456426)
(15.0452 -0.188286 -0.0435805)
(14.9589 -0.201734 -0.041989)
(14.8564 -0.213752 -0.0410208)
(14.7447 -0.223953 -0.0410157)
(14.6186 -0.231532 -0.0414322)
(14.5169 -0.236832 -0.0445349)
(14.3574 -0.234146 -0.0504014)
(15 7.79472e-05 0.000135688)
(14.9995 0.000254714 0.000442908)
(14.9986 0.000544455 0.000806021)
(14.9974 0.00107022 0.00125663)
(14.9967 0.00199092 0.0018271)
(14.9977 0.00350366 0.00253838)
(15.002 0.00579018 0.0033888)
(15.0122 0.00889041 0.00431863)
(15.0306 0.0123185 0.00511932)
(15.0584 0.0149408 0.00544883)
(15.0924 0.0142501 0.00483018)
(15.1225 0.00795465 0.00280306)
(15.1349 -0.00241425 -0.000726746)
(15.1241 -0.0125408 -0.00568247)
(15.1007 -0.019752 -0.011807)
(15.0877 -0.024654 -0.0192999)
(15.1004 -0.0295378 -0.0299496)
(15.1298 -0.0349369 -0.0410931)
(15.1571 -0.0403837 -0.0492426)
(15.1695 -0.0457069 -0.0532135)
(15.1611 -0.0510394 -0.0539131)
(15.1295 -0.0563923 -0.0528432)
(15.075 -0.0616425 -0.0511804)
(14.9993 -0.0666395 -0.0496123)
(14.9055 -0.0712598 -0.0484821)
(14.7956 -0.0753328 -0.047854)
(14.6773 -0.0787795 -0.0482368)
(14.545 -0.0812322 -0.0487731)
(14.4383 -0.0831335 -0.0527308)
(14.2761 -0.0819302 -0.0592197)
(15.0001 -0.000249344 0.000418896)
(15.0007 -0.000797237 0.00129647)
(15.0023 -0.00149636 0.00231376)
(15.0052 -0.00248791 0.00357379)
(15.0104 -0.00394282 0.00516918)
(15.0193 -0.00607186 0.00716355)
(15.034 -0.00905438 0.00952695)
(15.0572 -0.0129152 0.0120621)
(15.0918 -0.0171478 0.0142544)
(15.1387 -0.0206282 0.0153099)
(15.1946 -0.0210021 0.0140116)
(15.249 -0.0163613 0.00958265)
(15.2883 -0.00882505 0.00290211)
(15.3075 -0.00276413 -0.0037941)
(15.3153 -0.000937935 -0.00848512)
(15.3259 -0.00255381 -0.0106955)
(15.3479 -0.00514199 -0.0112605)
(15.3803 -0.00734292 -0.0112158)
(15.4193 -0.00921126 -0.0109389)
(15.4626 -0.0108551 -0.0102311)
(15.5091 -0.0120716 -0.0089514)
(15.557 -0.0127785 -0.00706651)
(15.6038 -0.0131284 -0.00444002)
(15.6472 -0.0132912 -0.000867358)
(15.6858 -0.0134573 0.00380956)
(15.7181 -0.0139026 0.00924463)
(15.7434 -0.0160598 0.0165561)
(15.7645 -0.022495 0.0275111)
(15.784 -0.0317956 0.0518175)
(15.7901 -0.0398249 0.0881407)
(15.0001 -0.000726872 0.000426761)
(15.0006 -0.0023319 0.00132741)
(15.0019 -0.00438791 0.00238172)
(15.0044 -0.0073158 0.00370737)
(15.0089 -0.0116444 0.0054209)
(15.0168 -0.0180341 0.00762066)
(15.0304 -0.0271081 0.0103225)
(15.0529 -0.0390492 0.0133732)
(15.0877 -0.0525324 0.0162033)
(15.137 -0.0638764 0.0178705)
(15.1977 -0.0653575 0.0166748)
(15.2569 -0.0503639 0.0113013)
(15.2971 -0.0260445 0.00315084)
(15.3129 -0.0067948 -0.00475697)
(15.3159 -0.0013376 -0.0100006)
(15.3237 -0.00669894 -0.0122318)
(15.3451 -0.0147262 -0.0127039)
(15.3777 -0.0212774 -0.0126756)
(15.4166 -0.0267188 -0.0124387)
(15.4599 -0.0314423 -0.0117352)
(15.5066 -0.0348699 -0.0104673)
(15.5546 -0.0368223 -0.00863657)
(15.6012 -0.0376846 -0.0060978)
(15.6444 -0.0380307 -0.00275265)
(15.6827 -0.038376 0.00141209)
(15.7153 -0.0403206 0.00669966)
(15.7435 -0.0496081 0.0159916)
(15.7674 -0.0695942 0.0303718)
(15.7861 -0.0934639 0.0554181)
(15.7863 -0.113051 0.0894182)
(15 -0.00115674 0.000445392)
(15.0003 -0.0037231 0.00139384)
(15.0011 -0.00702706 0.00252329)
(15.0027 -0.0117638 0.00398164)
(15.0058 -0.0188607 0.00593819)
(15.0118 -0.0295211 0.00857146)
(15.0231 -0.0450582 0.0120084)
(15.0437 -0.0661961 0.0162055)
(15.0786 -0.0911803 0.0205201)
(15.1329 -0.113498 0.0237058)
(15.2043 -0.116978 0.0226803)
(15.2743 -0.0879593 0.0150743)
(15.3163 -0.0415817 0.00351937)
(15.3242 -0.00627388 -0.00701693)
(15.3171 0.00245733 -0.0132586)
(15.3195 -0.00833451 -0.0152637)
(15.3405 -0.0228512 -0.0153394)
(15.3742 -0.0343115 -0.015218)
(15.4138 -0.0437995 -0.0149802)
(15.4579 -0.0517817 -0.0141916)
(15.5057 -0.0572308 -0.0127966)
(15.5546 -0.0600416 -0.0108046)
(15.602 -0.0611501 -0.00808585)
(15.6457 -0.0613805 -0.00470008)
(15.6853 -0.0625506 -0.000226646)
(15.7218 -0.0707868 0.00763865)
(15.7549 -0.0931095 0.0222047)
(15.7792 -0.125218 0.0411796)
(15.7941 -0.156849 0.066834)
(15.7845 -0.181355 0.098676)
(15 -0.00151688 0.000471097)
(15 -0.00489376 0.00148622)
(15 -0.00926438 0.00272334)
(15.0002 -0.0155896 0.00437747)
(15.0011 -0.0252383 0.00670376)
(15.004 -0.0401148 0.0100243)
(15.0114 -0.062656 0.0146933)
(15.0281 -0.0948687 0.0209464)
(15.0622 -0.13566 0.0281294)
(15.1246 -0.175525 0.0345524)
(15.2157 -0.18312 0.0340106)
(15.305 -0.131906 0.0220471)
(15.3492 -0.0530442 0.00447882)
(15.3424 0.00263917 -0.0104652)
(15.3179 0.0125538 -0.0182986)
(15.3117 -0.0068875 -0.0198656)
(15.3327 -0.0285755 -0.0192716)
(15.3682 -0.0448719 -0.0188984)
(15.4092 -0.0590582 -0.0184898)
(15.4549 -0.071161 -0.017457)
(15.5047 -0.079209 -0.0158066)
(15.5553 -0.0832603 -0.0134295)
(15.6039 -0.0848097 -0.0103226)
(15.6495 -0.0860379 -0.00636733)
(15.6929 -0.092887 0.000631396)
(15.7331 -0.113651 0.0134737)
(15.7656 -0.148289 0.0324001)
(15.784 -0.187089 0.0531222)
(15.7918 -0.221679 0.0776186)
(15.7705 -0.247684 0.107625)
(14.9999 -0.00177995 0.00050184)
(14.9995 -0.00575503 0.00159857)
(14.9985 -0.0109262 0.00297117)
(14.9969 -0.0184934 0.00488086)
(14.9949 -0.0302885 0.00770966)
(14.9932 -0.0490889 0.0120153)
(14.9942 -0.0791359 0.0185902)
(15.0038 -0.124911 0.0282717)
(15.0342 -0.188771 0.0409292)
(15.1085 -0.259679 0.0543317)
(15.2342 -0.27591 0.0533508)
(15.3563 -0.186058 0.032942)
(15.401 -0.0552694 0.00610569)
(15.3677 0.029592 -0.0157602)
(15.3156 0.0349257 -0.0257729)
(15.299 -0.00224316 -0.026717)
(15.3219 -0.0343913 -0.0257336)
(15.3599 -0.0551302 -0.0254301)
(15.402 -0.0727521 -0.0246373)
(15.4498 -0.0875798 -0.0227409)
(15.5024 -0.0970697 -0.0199529)
(15.5556 -0.102091 -0.0163356)
(15.6067 -0.105334 -0.0118556)
(15.6557 -0.111827 -0.0053781)
(15.7018 -0.12983 0.00548385)
(15.7396 -0.162674 0.0212825)
(15.7645 -0.204785 0.0406149)
(15.7715 -0.246739 0.0600052)
(15.7689 -0.282229 0.0821724)
(15.7318 -0.309091 0.110902)
(14.9999 -0.00192546 0.000535345)
(14.999 -0.00623965 0.00172244)
(14.9968 -0.011869 0.00324851)
(14.9931 -0.0201837 0.00545963)
(14.9873 -0.0334505 0.00891556)
(14.9793 -0.0554251 0.0145344)
(14.9705 -0.0929792 0.0239185)
(14.967 -0.15534 0.039152)
(14.9864 -0.254123 0.0619892)
(15.0779 -0.380287 0.090103)
(15.2654 -0.413369 0.0862455)
(15.4422 -0.256566 0.0466433)
(15.4822 -0.0468331 0.00301777)
(15.3995 0.0839513 -0.0292498)
(15.302 0.0819057 -0.0410433)
(15.2734 0.0181001 -0.0396014)
(15.3042 -0.0331953 -0.0374273)
(15.3485 -0.0671799 -0.0370363)
(15.3932 -0.0946121 -0.0357208)
(15.4441 -0.115115 -0.0326981)
(15.5007 -0.127338 -0.028599)
(15.5573 -0.134035 -0.0236924)
(15.6114 -0.139909 -0.0173585)
(15.662 -0.151737 -0.00839924)
(15.7046 -0.17604 0.00390893)
(15.7322 -0.213291 0.0190263)
(15.7412 -0.257384 0.0363037)
(15.7289 -0.300012 0.0538025)
(15.709 -0.335014 0.0748131)
(15.6495 -0.363937 0.104473)
(14.9998 -0.00194177 0.000566908)
(14.9984 -0.00630402 0.00184549)
(14.995 -0.0119881 0.00353018)
(14.9889 -0.0204027 0.00606129)
(14.9787 -0.0340773 0.0102374)
(14.9625 -0.0576283 0.017484)
(14.9393 -0.101193 0.0308215)
(14.9123 -0.180879 0.0550791)
(14.906 -0.339094 0.0960768)
(15.0147 -0.554539 0.155141)
(15.3048 -0.61235 0.142068)
(15.5728 -0.314902 0.0692665)
(15.6033 -0.0159651 -0.00321464)
(15.4439 0.166094 -0.0519488)
(15.2759 0.126638 -0.0663428)
(15.2301 0.0424069 -0.0636103)
(15.2713 -0.0116283 -0.0612243)
(15.3247 -0.0523472 -0.0599308)
(15.3768 -0.0896115 -0.0563489)
(15.4366 -0.117904 -0.0509222)
(15.5013 -0.135668 -0.044833)
(15.5628 -0.147595 -0.0382268)
(15.6173 -0.159732 -0.0309869)
(15.6609 -0.178094 -0.0234381)
(15.6864 -0.207329 -0.0146893)
(15.6855 -0.247106 -0.00295931)
(15.6591 -0.291946 0.0132613)
(15.6119 -0.336011 0.0324309)
(15.5663 -0.372054 0.0570301)
(15.485 -0.409092 0.0913866)
(14.9998 -0.001832 0.000594247)
(14.9979 -0.00594339 0.00195003)
(14.9933 -0.0112436 0.00378097)
(14.9848 -0.0190179 0.00664354)
(14.97 -0.0317425 0.0115442)
(14.9442 -0.0539947 0.0205505)
(14.9011 -0.0991896 0.0390344)
(14.8323 -0.187036 0.0762099)
(14.7592 -0.421037 0.158904)
(14.8059 -0.725136 0.202751)
(15.1994 -1.00025 0.228318)
(15.7518 -0.65539 0.0643342)
(15.8271 0.00493153 0.0104707)
(15.5843 0.340622 -0.0625942)
(15.1971 0.208972 -0.132986)
(15.1569 0.0128129 -0.118835)
(15.2083 -0.0698041 -0.111514)
(15.2579 -0.122435 -0.107053)
(15.3046 -0.168225 -0.101837)
(15.3575 -0.199095 -0.0978939)
(15.4073 -0.21452 -0.0956409)
(15.444 -0.220359 -0.0935442)
(15.4638 -0.221615 -0.0909355)
(15.4633 -0.223406 -0.0869813)
(15.4366 -0.232714 -0.0782641)
(15.3818 -0.257747 -0.060117)
(15.3151 -0.30176 -0.0311008)
(15.2555 -0.357863 0.00335914)
(15.2186 -0.404929 0.0406574)
(15.1633 -0.455904 0.0838509)
(14.9997 -0.00161162 0.00061552)
(14.9974 -0.00520459 0.00202534)
(14.992 -0.00971779 0.00395572)
(14.9815 -0.0160394 0.00707288)
(14.9625 -0.0262136 0.0126521)
(14.9273 -0.0438536 0.0232698)
(14.8622 -0.0797303 0.0466122)
(14.7343 -0.165333 0.102906)
(14.5952 -0.34164 0.166906)
(14.4289 -1.04157 0.400258)
(15.2016 -1.50751 0.478646)
(16.0897 -1.19844 -0.12128)
(16.0683 -0.000114387 -0.052892)
(15.7941 0.585348 -0.0884464)
(14.2404 0.576412 -0.193777)
(14.3233 0.22175 -0.23351)
(14.4198 0.0747377 -0.262937)
(14.4309 0.000375939 -0.279504)
(14.4076 -0.0497176 -0.281135)
(14.3778 -0.0786545 -0.273294)
(14.3402 -0.0916316 -0.258188)
(14.2925 -0.0958421 -0.235089)
(14.2397 -0.0979309 -0.203368)
(14.192 -0.110136 -0.163903)
(14.1752 -0.151763 -0.117462)
(14.2265 -0.231596 -0.0649547)
(14.3492 -0.329841 -0.0113911)
(14.4932 -0.41689 0.0351095)
(14.6072 -0.470572 0.069799)
(14.6875 -0.516061 0.105859)
(14.9997 -0.00130372 0.000626614)
(14.9972 -0.00418778 0.00206899)
(14.9911 -0.00758415 0.00405168)
(14.9792 -0.0119827 0.00724667)
(14.9579 -0.0183228 0.0131958)
(14.9158 -0.0282508 0.0246229)
(14.8367 -0.0474154 0.0516621)
(14.6428 -0.0899265 0.122273)
(14.3566 -0.228717 0.234431)
(13.5755 -0.992251 0.636877)
(15.6107 -3.07051 1.56865)
(17.6487 -3.36734 -3.09528)
(9.89103 0.300609 -0.227427)
(9.2907 1.15765 -0.0848437)
(6.36889 1.0864 0.166172)
(7.94182 0.57454 -0.155767)
(8.97168 0.312184 -0.25491)
(9.58832 0.16368 -0.263988)
(10.0373 0.0630044 -0.230765)
(10.444 -0.0105765 -0.180535)
(10.8282 -0.0691688 -0.122036)
(11.2121 -0.125177 -0.060071)
(11.6451 -0.191994 -0.00329264)
(12.1617 -0.27688 0.0382699)
(12.7352 -0.373323 0.0623019)
(13.274 -0.463984 0.0740684)
(13.7018 -0.534586 0.0801955)
(14.0068 -0.580557 0.0872113)
(14.2063 -0.606332 0.089681)
(14.3725 -0.613592 0.112084)
(14.9997 -0.000947441 0.000626532)
(14.9971 -0.0030036 0.00207082)
(14.9907 -0.00515314 0.00405609)
(14.9786 -0.00729889 0.00725685)
(14.9567 -0.00900053 0.0132237)
(14.9138 -0.00938236 0.0246951)
(14.8332 -0.00382152 0.0518197)
(14.6378 0.0194737 0.122907)
(14.298 0.0492333 0.249446)
(12.7592 0.259527 0.838015)
(1.13243 -0.657358 -0.953913)
(7.58202 -1.23288 0.571597)
(8.83148 -0.84604 0.372807)
(9.74859 -0.650221 0.254521)
(10.363 -0.554583 0.191983)
(10.8601 -0.512592 0.167396)
(11.3392 -0.509507 0.162171)
(11.8235 -0.531917 0.160638)
(12.3364 -0.566964 0.150403)
(12.8717 -0.604648 0.129219)
(13.3707 -0.640089 0.105313)
(13.7683 -0.671256 0.0881473)
(14.0501 -0.696262 0.0807686)
(14.241 -0.714247 0.0805162)
(14.3675 -0.72182 0.084383)
(14.4511 -0.727296 0.0865518)
(14.5084 -0.699353 0.101058)
(14.9997 -0.000582287 0.000614881)
(14.9972 -0.00180218 0.00202901)
(14.991 -0.00268826 0.00396789)
(14.9795 -0.00273633 0.00710636)
(14.9589 -0.000382527 0.0127254)
(14.9214 0.00733476 0.0234591)
(14.852 0.0301825 0.047074)
(14.7189 0.0990467 0.104719)
(14.4795 0.246729 0.1983)
(14.0433 1.05477 0.609913)
(14.9686 1.86893 1.30837)
(17.4543 1.42934 -0.901044)
(15.5551 -1.21815 -0.901329)
(14.6542 -1.08155 -0.534154)