/*--------------------------------*- C++ -*----------------------------------*\
| =========                 |                                                 |
| \\      /  F ield         | OpenFOAM: The Open Source CFD Toolbox           |
|  \\    /   O peration     | Version:  2512                                  |
|   \\  /    A nd           | Website:  www.openfoam.com                      |
|    \\/     M anipulation  |                                                 |
\*---------------------------------------------------------------------------*/
FoamFile
{
    version     2.0;
    format      ascii;
    arch        "LSB;label=32;scalar=64";
    class       volScalarField;
    location    "180";
    object      k;
}
// * * * * * * * * * * * * * * * * * * * * * * * * * * * * * * * * * * * * * //

dimensions      [0 2 -2 0 0 0 0];

internalField   nonuniform List<scalar> 
84826
(
0.231931
0.224214
0.216971
0.210155
0.203728
0.197656
0.191917
0.186476
0.18137
0.176571
0.172076
0.167879
0.163921
0.160177
0.156589
0.153125
0.149761
0.146523
0.143401
0.140393
0.137495
0.134705
0.132018
0.129429
0.126933
0.124525
0.122201
0.119955
0.117784
0.115683
0.231931
0.224216
0.216975
0.210162
0.203742
0.197679
0.191951
0.186525
0.181434
0.176652
0.172178
0.168
0.16406
0.160326
0.156741
0.153274
0.149902
0.146657
0.143527
0.140512
0.137607
0.134809
0.132115
0.129519
0.127017
0.124602
0.122272
0.120019
0.117841
0.115734
0.231932
0.224218
0.216978
0.21017
0.203755
0.197703
0.19199
0.186582
0.181518
0.176771
0.172342
0.168208
0.164311
0.160604
0.157029
0.153559
0.150176
0.146917
0.143776
0.14075
0.137835
0.135028
0.132326
0.129724
0.127215
0.124796
0.122462
0.120206
0.118026
0.115915
0.231932
0.224219
0.216981
0.210176
0.203767
0.197726
0.192028
0.186642
0.181615
0.176923
0.17257
0.168516
0.164689
0.161028
0.157473
0.154001
0.150599
0.147322
0.144163
0.141121
0.13819
0.135369
0.132654
0.130038
0.127517
0.125084
0.122736
0.120466
0.118272
0.116149
0.231932
0.22422
0.216983
0.210181
0.203778
0.197746
0.192065
0.186705
0.181726
0.177111
0.172797
0.168803
0.165126
0.161543
0.15803
0.154559
0.151134
0.147836
0.144661
0.141606
0.138669
0.135848
0.133137
0.130529
0.128015
0.125591
0.123249
0.120984
0.118794
0.116671
0.231932
0.22422
0.216985
0.210184
0.203786
0.197764
0.192099
0.186772
0.181856
0.17724
0.173
0.169162
0.165565
0.162143
0.158707
0.155248
0.151816
0.148621
0.145629
0.14284
0.140235
0.137764
0.13537
0.133014
0.130676
0.128348
0.126032
0.123738
0.121482
0.119288
0.231932
0.22422
0.216985
0.210187
0.203792
0.197779
0.192132
0.186861
0.181949
0.177379
0.173549
0.170169
0.16737
0.166695
0.16419
0.161565
0.163987
0.168413
0.173471
0.178683
0.183398
0.18696
0.189056
0.189678
0.188967
0.187141
0.18446
0.181217
0.177614
0.174083
0.231932
0.224219
0.216985
0.210188
0.203798
0.197792
0.192165
0.186946
0.181996
0.177566
0.173387
0.166665
0.160934
0.162965
0.442553
0.490367
0.538239
0.576401
0.60307
0.619971
0.628042
0.628186
0.62183
0.610544
0.595652
0.578335
0.559465
0.540085
0.52025
0.501277
0.231932
0.224219
0.216985
0.210189
0.203802
0.197803
0.192194
0.187015
0.182109
0.17784
0.174195
0.174351
0.191943
0.721444
2.40486
2.18816
1.99569
1.82864
1.68393
1.55842
1.44782
1.34936
1.26355
1.18755
1.11916
1.05709
1.00061
0.94904
0.902673
0.859288
0.231933
0.224222
0.216989
0.210195
0.20381
0.197816
0.192217
0.187018
0.182163
0.178163
0.175676
0.180215
0.536233
3.07134
2.84706
2.40818
2.171
1.96874
1.79797
1.65208
1.52499
1.4131
1.31406
1.22603
1.14759
1.07761
1.01522
0.959564
0.91032
0.86525
0.231935
0.224226
0.216995
0.210202
0.203818
0.197817
0.192219
0.187021
0.182168
0.178173
0.176155
0.180664
3.42544
3.14582
2.40227
2.18619
2.0098
1.86077
1.73236
1.61872
1.51686
1.4248
1.34085
1.26355
1.19161
1.12413
1.06011
1.00003
0.942012
0.231936
0.224224
0.216992
0.210199
0.203813
0.197809
0.192202
0.187024
0.182122
0.177872
0.174716
0.175297
0.379572
2.10403
1.25764
1.09974
1.01658
0.969952
0.946707
0.938712
0.935423
0.933618
0.931619
0.928514
0.923573
0.916374
0.906678
0.894128
0.879315
0.864101
0.231934
0.224222
0.216989
0.210195
0.203806
0.197803
0.19218
0.186966
0.182022
0.177613
0.173707
0.16911
0.183228
0.236412
0.198787
0.191595
0.188665
0.187838
0.189602
0.195989
0.211573
0.234498
0.262612
0.293759
0.326444
0.359444
0.391548
0.422128
0.448908
0.47542
0.231933
0.224222
0.21699
0.210194
0.203802
0.197792
0.192151
0.186886
0.181979
0.177429
0.173662
0.170476
0.167885
0.164609
0.161134
0.157689
0.15451
0.151485
0.148557
0.145709
0.143089
0.141044
0.140102
0.141119
0.144329
0.149711
0.157012
0.16592
0.175821
0.186562
0.231933
0.224222
0.216989
0.210192
0.203797
0.197778
0.19212
0.186801
0.181898
0.177296
0.173089
0.169306
0.165792
0.162375
0.159068
0.155878
0.152676
0.149532
0.146408
0.143282
0.140171
0.137164
0.134292
0.131596
0.12914
0.126981
0.12517
0.12374
0.122719
0.122048
0.231933
0.224222
0.216988
0.210188
0.203788
0.197761
0.192086
0.186736
0.181772
0.177179
0.172888
0.168928
0.165317
0.16183
0.15843
0.155145
0.151875
0.148693
0.145579
0.142521
0.139516
0.136578
0.133717
0.130939
0.128253
0.125682
0.123222
0.120868
0.118619
0.116475
0.231932
0.224221
0.216985
0.210182
0.203777
0.19774
0.19205
0.186675
0.181664
0.176996
0.172676
0.168671
0.164906
0.161305
0.157824
0.154463
0.151147
0.147933
0.144799
0.14174
0.138748
0.13583
0.132995
0.130257
0.127624
0.125091
0.122654
0.120305
0.118042
0.115861
0.231932
0.224219
0.216981
0.210175
0.203764
0.197717
0.192012
0.186617
0.181572
0.176852
0.172457
0.168368
0.164521
0.160858
0.157334
0.153935
0.150601
0.147376
0.144242
0.141195
0.138232
0.135356
0.132569
0.129873
0.127269
0.12476
0.122347
0.120023
0.117784
0.115625
0.231932
0.224217
0.216977
0.210166
0.203749
0.197693
0.191975
0.186564
0.181496
0.176745
0.172308
0.168174
0.164278
0.160581
0.157033
0.153614
0.150273
0.147045
0.143914
0.140878
0.137933
0.135079
0.132317
0.129645
0.127061
0.124567
0.122166
0.119854
0.117625
0.115479
0.231931
0.224215
0.216973
0.210158
0.203735
0.197672
0.191946
0.186526
0.181445
0.176679
0.172224
0.16807
0.164153
0.160441
0.156882
0.153453
0.15011
0.146878
0.143747
0.140712
0.13777
0.134922
0.132167
0.129503
0.126929
0.124446
0.122055
0.119753
0.117535
0.115397
0.238837
0.23749
0.236009
0.23442
0.232744
0.230999
0.229206
0.227391
0.225589
0.223841
0.222149
0.220426
0.21857
0.216634
0.214711
0.212823
0.210942
0.209081
0.207235
0.205408
0.203598
0.20181
0.200043
0.198297
0.196567
0.194863
0.193179
0.191514
0.189867
0.188243
0.238837
0.23749
0.236009
0.23442
0.232744
0.230999
0.229207
0.2274
0.225615
0.223905
0.222279
0.220625
0.218825
0.216919
0.215005
0.213118
0.211232
0.209364
0.20751
0.205673
0.203855
0.202058
0.200282
0.198527
0.196793
0.195084
0.193395
0.191727
0.190077
0.188451
0.238837
0.23749
0.236009
0.23442
0.232744
0.231001
0.229213
0.227422
0.225681
0.224071
0.222631
0.221159
0.219503
0.217675
0.215785
0.213899
0.211998
0.210114
0.20824
0.206385
0.204551
0.202741
0.200954
0.199193
0.197461
0.195756
0.194077
0.192421
0.190788
0.18918
0.238838
0.237491
0.236009
0.23442
0.232745
0.231004
0.229226
0.227469
0.225822
0.224448
0.22343
0.222373
0.221004
0.21932
0.217467
0.215567
0.213624
0.211691
0.209767
0.207862
0.205976
0.204115
0.202275
0.200468
0.198687
0.196932
0.195202
0.193494
0.191806
0.190143
0.238838
0.237492
0.236009
0.234421
0.232746
0.231011
0.229251
0.22756
0.226111
0.225239
0.225007
0.224689
0.223866
0.222471
0.2207
0.218749
0.216698
0.214652
0.212623
0.210626
0.208663
0.206739
0.20486
0.203032
0.20125
0.199509
0.197805
0.196131
0.194482
0.192853
0.238838
0.237493
0.236012
0.234421
0.232749
0.231022
0.229297
0.22773
0.226667
0.226607
0.227607
0.227962
0.228013
0.22744
0.226075
0.224298
0.222248
0.220072
0.217849
0.215619
0.213388
0.211173
0.208978
0.206817
0.204694
0.202616
0.200586
0.198604
0.196671
0.194791
0.238838
0.237493
0.236014
0.234425
0.232754
0.23104
0.22937
0.228025
0.227658
0.228778
0.232003
0.234997
0.236153
0.237507
0.237901
0.237742
0.237691
0.237524
0.237168
0.236625
0.235831
0.234784
0.233502
0.232017
0.230379
0.22864
0.226849
0.225074
0.22334
0.221834
0.238838
0.237493
0.236014
0.234429
0.232762
0.231067
0.229473
0.228473
0.228902
0.232188
0.234018
0.242863
0.246633
0.271134
0.434025
0.449395
0.464433
0.47744
0.487026
0.492512
0.493625
0.490715
0.484659
0.476672
0.467811
0.458803
0.450117
0.442245
0.435288
0.429894
0.238838
0.237493
0.236014
0.23443
0.232771
0.231093
0.22959
0.229023
0.230331
0.237582
0.246349
0.280755
0.324791
1.19275
3.02392
2.58416
2.33197
2.17235
2.06799
1.98454
1.89578
1.80476
1.71224
1.62195
1.53707
1.45961
1.39067
1.3304
1.27868
1.23533
0.238838
0.237493
0.236014
0.234431
0.232774
0.231106
0.229671
0.229319
0.231564
0.242708
0.265969
0.820358
5.13657
6.04629
3.11405
2.65318
2.34253
2.09119
1.89079
1.72854
1.59258
1.47644
1.37649
1.29007
1.21536
1.15106
1.09577
1.04755
1.00701
0.969551
0.238838
0.237493
0.236015
0.234431
0.232774
0.231108
0.229675
0.229328
0.231587
0.242771
0.267963
2.14277
2.98451
2.61847
2.3887
2.19662
2.0416
1.91566
1.80832
1.71392
1.62921
1.55132
1.47704
1.40333
1.32906
1.2536
1.17995
1.1042
0.238838
0.237493
0.236012
0.234431
0.232772
0.231096
0.229599
0.229047
0.230395
0.237752
0.254909
0.601743
5.61569
4.0092
1.45146
1.43297
1.39473
1.3504
1.31149
1.28234
1.26382
1.25643
1.25975
1.27299
1.29505
1.3245
1.35889
1.391
1.41563
1.42884
0.238837
0.237493
0.236012
0.23443
0.232764
0.231071
0.229484
0.228511
0.228988
0.232399
0.237539
0.259076
0.272936
0.285381
0.284269
0.290884
0.299855
0.311489
0.326446
0.345109
0.367695
0.394549
0.425402
0.459684
0.4962
0.53324
0.568741
0.600943
0.629277
0.653234
0.238837
0.237493
0.236014
0.234426
0.232756
0.231045
0.229384
0.228063
0.227743
0.228975
0.232471
0.236064
0.238111
0.238875
0.239185
0.239171
0.238689
0.23773
0.236745
0.235955
0.235439
0.235198
0.235199
0.235405
0.235894
0.236815
0.238372
0.240761
0.243768
0.247764
0.238838
0.237493
0.236012
0.234423
0.232752
0.231029
0.229313
0.227767
0.226752
0.226771
0.227947
0.228743
0.229363
0.229172
0.228557
0.227137
0.225295
0.223275
0.221197
0.219073
0.216892
0.214638
0.212364
0.210091
0.207844
0.205662
0.203547
0.201511
0.199567
0.197662
0.238838
0.237492
0.23601
0.234422
0.23275
0.231019
0.229269
0.227597
0.226185
0.225383
0.225255
0.225157
0.224744
0.223733
0.222477
0.220945
0.21919
0.217326
0.215406
0.213438
0.211426
0.209382
0.207323
0.205256
0.203172
0.201058
0.198927
0.196788
0.194654
0.192532
0.238838
0.237491
0.23601
0.234422
0.232749
0.231013
0.229244
0.227505
0.225889
0.224564
0.223617
0.222675
0.221475
0.220005
0.218449
0.216806
0.215058
0.213233
0.211364
0.209464
0.207544
0.205615
0.203677
0.201734
0.199782
0.197829
0.195879
0.193935
0.192003
0.190091
0.238838
0.237491
0.23601
0.234422
0.232749
0.231011
0.229232
0.227459
0.225745
0.224173
0.222775
0.221345
0.219748
0.218027
0.21631
0.21459
0.212826
0.211016
0.209185
0.207341
0.205486
0.203628
0.201769
0.199915
0.198067
0.196226
0.19439
0.192561
0.190745
0.188948
0.238837
0.237491
0.23601
0.234423
0.232749
0.23101
0.229228
0.227437
0.225678
0.224
0.222405
0.220765
0.218979
0.217132
0.215335
0.213571
0.211795
0.209985
0.208164
0.206336
0.204501
0.202667
0.200837
0.199013
0.1972
0.195401
0.193611
0.191831
0.190064
0.188319
0.238837
0.237491
0.236011
0.234424
0.23275
0.23101
0.229228
0.22743
0.225653
0.223935
0.222268
0.220551
0.218691
0.216793
0.214962
0.213178
0.211391
0.209575
0.207752
0.205925
0.204094
0.202265
0.200445
0.198634
0.196831
0.195046
0.193273
0.191512
0.189767
0.188046
0.239047
0.238075
0.23709
0.23609
0.235076
0.234052
0.23303
0.232029
0.231099
0.230279
0.229553
0.228778
0.227794
0.226664
0.22551
0.22437
0.223226
0.222054
0.220882
0.219707
0.218529
0.217351
0.216173
0.214996
0.213817
0.212639
0.211468
0.210297
0.209128
0.207968
0.239047
0.238075
0.23709
0.23609
0.235077
0.234055
0.233038
0.23205
0.231153
0.230398
0.229783
0.229127
0.228234
0.22716
0.226032
0.224903
0.223764
0.222591
0.221418
0.22024
0.219059
0.217877
0.216695
0.215512
0.214329
0.21315
0.211976
0.210804
0.209633
0.20847
0.239048
0.238075
0.23709
0.236091
0.23508
0.234062
0.233056
0.232102
0.231285
0.2307
0.230372
0.230013
0.229341
0.228401
0.227332
0.226223
0.225081
0.22391
0.22273
0.221544
0.220355
0.219167
0.217977
0.216789
0.215602
0.214424
0.213249
0.212077
0.210907
0.209745
0.239048
0.238075
0.23709
0.236092
0.235084
0.234073
0.23309
0.2322
0.231544
0.231316
0.231418
0.231534
0.231291
0.230622
0.229688
0.228623
0.227478
0.226299
0.225103
0.223899
0.222691
0.221482
0.220267
0.219056
0.217847
0.216644
0.215444
0.214245
0.213047
0.211856
0.239049
0.238076
0.237091
0.236094
0.23509
0.234092
0.233146
0.23237
0.23202
0.232235
0.233015
0.233788
0.234153
0.23405
0.233497
0.232588
0.231472
0.230282
0.229066
0.227844
0.226622
0.225401
0.224183
0.222975
0.221773
0.220573
0.219374
0.218172
0.216968
0.215765
0.239049
0.238077
0.237093
0.236097
0.235098
0.234118
0.233233
0.232655
0.232728
0.23366
0.235768
0.237511
0.238735
0.239275
0.239307
0.238856
0.237982
0.236858
0.235599
0.23427
0.232904
0.231524
0.230138
0.228766
0.227403
0.226051
0.224709
0.223376
0.222051
0.220738
0.239049
0.238078
0.237095
0.236102
0.235108
0.234153
0.233358
0.233107
0.233705
0.235891
0.2404
0.245137
0.247758
0.24974
0.250819
0.251074
0.250935
0.250525
0.24997
0.249306
0.248494
0.247521
0.246371
0.245079
0.243669
0.242169
0.240618
0.239046
0.237499
0.236009
0.239049
0.23808
0.237098
0.236106
0.235121
0.234196
0.233516
0.233606
0.234989
0.239452
0.242771
0.255613
0.263764
0.270461
0.307007
0.31554
0.320932
0.324284
0.32592
0.326206
0.32523
0.323039
0.319853
0.315884
0.311402
0.306659
0.301894
0.297318
0.293162
0.289687
0.239049
0.23808
0.2371
0.236111
0.235135
0.234236
0.233687
0.234074
0.236406
0.244845
0.254383
0.296577
0.402476
0.438256
1.49451
1.2718
1.11699
0.993201
0.886453
0.797615
0.72492
0.664725
0.614019
0.571304
0.535517
0.505837
0.481611
0.462357
0.447651
0.437638
0.239049
0.23808
0.237101
0.236115
0.235144
0.234261
0.233803
0.234399
0.237713
0.250258
0.27174
0.754406
11.9296
3.92918
2.55756
1.95875
1.60466
1.36289
1.18312
1.04642
0.938375
0.850795
0.778278
0.717227
0.665225
0.620623
0.582279
0.549357
0.521397
0.49774
0.23905
0.23808
0.237101
0.236113
0.235141
0.234261
0.233803
0.234403
0.237728
0.250297
0.2733
4.32165
2.8135
2.1905
1.82068
1.56971
1.38577
1.24691
1.1379
1.05077
0.978574
0.91697
0.862774
0.813677
0.768115
0.724987
0.684147
0.644391
0.239049
0.238079
0.237097
0.236109
0.235133
0.234236
0.233693
0.23409
0.236453
0.244983
0.259664
0.650749
12.0784
4.41942
1.55564
1.31674
1.15306
1.04246
0.96919
0.924818
0.901928
0.894557
0.897511
0.906538
0.916801
0.92212
0.917676
0.900654
0.871274
0.829617
0.239048
0.238079
0.237094
0.236107
0.235122
0.234199
0.233525
0.23363
0.235051
0.23962
0.246182
0.27435
0.29435
0.304477
0.299436
0.304141
0.305436
0.304743
0.304046
0.304602
0.307161
0.312145
0.319654
0.329538
0.341429
0.35461
0.368381
0.382
0.395149
0.407197
0.239048
0.238078
0.237095
0.236102
0.235109
0.234156
0.233369
0.233142
0.233773
0.236044
0.240753
0.245991
0.249282
0.251659
0.253469
0.254199
0.254084
0.253006
0.251564
0.250171
0.249015
0.24819
0.247721
0.247601
0.247774
0.248124
0.248572
0.249033
0.249503
0.249845
0.239049
0.238077
0.237093
0.236098
0.235099
0.234123
0.233245
0.232688
0.232789
0.233776
0.236013
0.238048
0.239674
0.240634
0.241139
0.241187
0.240766
0.239825
0.238615
0.237212
0.235677
0.234074
0.232437
0.23082
0.22923
0.227674
0.226144
0.224657
0.223224
0.221841
0.239049
0.238076
0.237091
0.236095
0.235092
0.234098
0.233159
0.232402
0.232087
0.232339
0.233187
0.234098
0.234717
0.234904
0.234837
0.234394
0.233504
0.232356
0.231072
0.229704
0.22829
0.226858
0.225427
0.224013
0.222615
0.221231
0.219847
0.218456
0.217067
0.215682
0.239048
0.238075
0.237091
0.236094
0.235086
0.23408
0.233105
0.232231
0.231605
0.23142
0.231558
0.231737
0.231621
0.231173
0.230521
0.229697
0.228684
0.22754
0.226313
0.225031
0.223717
0.222388
0.22105
0.219715
0.218377
0.217041
0.215711
0.214381
0.213057
0.211745
0.239048
0.238075
0.237091
0.236092
0.235083
0.234069
0.233072
0.232134
0.231343
0.230791
0.23049
0.230144
0.229492
0.228625
0.227703
0.226742
0.225694
0.224564
0.223383
0.222167
0.220927
0.219673
0.218411
0.217146
0.215878
0.214615
0.213351
0.212089
0.210831
0.209582
0.239047
0.238075
0.23709
0.236092
0.235081
0.234063
0.233054
0.232082
0.231209
0.230482
0.229882
0.229212
0.22829
0.227234
0.226199
0.225178
0.224114
0.222992
0.221833
0.220646
0.219437
0.218214
0.216984
0.215748
0.21451
0.213273
0.212037
0.210802
0.209569
0.208346
0.239048
0.238076
0.237091
0.236093
0.235081
0.234061
0.233048
0.232063
0.231155
0.23036
0.229644
0.228843
0.227811
0.226676
0.225591
0.224541
0.223463
0.222339
0.221182
0.22
0.218799
0.217586
0.216367
0.215145
0.213918
0.21269
0.211466
0.210242
0.20902
0.20781
0.239056
0.238108
0.237165
0.236228
0.235298
0.234378
0.233478
0.232623
0.23185
0.231191
0.230625
0.230025
0.229263
0.228383
0.22749
0.226609
0.225725
0.224824
0.223919
0.22301
0.222097
0.221182
0.220265
0.219347
0.218428
0.217505
0.216583
0.215661
0.214738
0.213821
0.239056
0.238108
0.237165
0.236228
0.235299
0.234381
0.233487
0.232645
0.231902
0.231303
0.230839
0.230352
0.229678
0.228853
0.227992
0.22713
0.226256
0.225361
0.224461
0.223556
0.222647
0.221734
0.220819
0.219903
0.218983
0.218062
0.21714
0.216219
0.215297
0.214381
0.239056
0.238108
0.237165
0.236229
0.235301
0.234388
0.233507
0.232695
0.232027
0.231583
0.231379
0.231168
0.230709
0.230014
0.229223
0.228396
0.227538
0.226653
0.225761
0.224862
0.223957
0.223049
0.222137
0.221224
0.220306
0.219388
0.21847
0.217551
0.21663
0.215714
0.239056
0.238108
0.237166
0.23623
0.235305
0.2344
0.233541
0.232788
0.232267
0.232139
0.232352
0.232584
0.232522
0.232077
0.231427
0.230661
0.229823
0.228953
0.22807
0.227176
0.226275
0.225368
0.224455
0.223537
0.222614
0.221687
0.220762
0.219833
0.218902
0.217975
0.239057
0.238108
0.237166
0.236232
0.235311
0.234418
0.233594
0.232944
0.232694
0.232985
0.233762
0.234555
0.235036
0.235081
0.234741
0.234126
0.23335
0.232531
0.231685
0.230827
0.229962
0.22909
0.228209
0.227319
0.22642
0.225511
0.224593
0.223665
0.222728
0.221788
0.239057
0.238108
0.237167
0.236235
0.235319
0.234443
0.233674
0.233199
0.23335
0.234224
0.236029
0.237793
0.238966
0.239578
0.239744
0.239475
0.238908
0.238221
0.237451
0.236624
0.235753
0.234848
0.233915
0.232969
0.232008
0.23104
0.230064
0.229079
0.228085
0.22709
0.239058
0.23811
0.237168
0.236238
0.235328
0.234474
0.233786
0.233587
0.234181
0.236044
0.239736
0.24365
0.246141
0.247793
0.248726
0.249087
0.2491
0.248794
0.248331
0.247768
0.2471
0.246315
0.245407
0.244394
0.243284
0.242102
0.240866
0.239596
0.238319
0.237042
0.239058
0.238111
0.237171
0.236241
0.235338
0.23451
0.233921
0.234058
0.235251
0.238899
0.242017
0.252685
0.26032
0.264226
0.275953
0.276958
0.277437
0.277078
0.276242
0.275058
0.273589
0.271852
0.269889
0.267732
0.265449
0.263084
0.260696
0.258328
0.256034
0.253867
0.239059
0.238112
0.237173
0.236245
0.235352
0.234542
0.234059
0.234444
0.236381
0.242806
0.250202
0.278499
0.338262
0.355953
0.461409
0.429799
0.404441
0.383061
0.364787
0.349352
0.336047
0.324565
0.314564
0.305809
0.298027
0.291054
0.284777
0.279111
0.274035
0.269502
0.239059
0.238114
0.237175
0.236251
0.235363
0.23457
0.234162
0.234711
0.237349
0.246862
0.260754
0.736555
13.4907
6.04945
1.6716
1.32982
1.10535
0.947143
0.829316
0.74025
0.6696
0.612066
0.564517
0.524168
0.48939
0.459049
0.432349
0.408692
0.387669
0.368805
0.239058
0.238113
0.237175
0.236249
0.235358
0.234569
0.234162
0.234714
0.237361
0.246893
0.262173
0.73547
10.8675
5.45931
2.08712
1.63986
1.34948
1.14292
0.988392
0.868965
0.774106
0.697669
0.634894
0.582524
0.538692
0.501445
0.469491
0.441838
0.417736
0.396636
0.239057
0.23811
0.237171
0.236243
0.235347
0.234543
0.234064
0.234457
0.236418
0.24292
0.252795
0.53699
19.9168
13.7427
0.680341
0.610266
0.555087
0.510957
0.474949
0.445503
0.42172
0.403504
0.389832
0.378467
0.367884
0.356884
0.345144
0.333062
0.3216
0.31098
0.239056
0.23811
0.237169
0.236241
0.235339
0.234512
0.233929
0.234078
0.2353
0.239029
0.244412
0.264567
0.279486
0.285059
0.278032
0.279719
0.279732
0.278008
0.275754
0.273506
0.271577
0.270249
0.26974
0.270004
0.270981
0.272536
0.274493
0.276584
0.278696
0.280267
0.239057
0.23811
0.237168
0.236238
0.235329
0.234477
0.233795
0.233616
0.234235
0.236157
0.239984
0.244218
0.24714
0.248986
0.250374
0.251076
0.25115
0.250423
0.249285
0.247973
0.246623
0.245334
0.24418
0.243194
0.242383
0.241732
0.241224
0.240818
0.240491
0.240173
0.239058
0.238109
0.237167
0.236235
0.23532
0.234447
0.233684
0.233227
0.233401
0.234315
0.236204
0.238133
0.239564
0.240473
0.241008
0.241162
0.240836
0.240093
0.239143
0.238069
0.236923
0.235751
0.23458
0.233433
0.232312
0.231225
0.230164
0.22913
0.228123
0.227146
0.239057
0.238108
0.237167
0.236233
0.235313
0.234423
0.233605
0.232972
0.232751
0.233069
0.233893
0.234773
0.235427
0.235705
0.235738
0.235414
0.234729
0.233862
0.232889
0.231859
0.2308
0.229735
0.228676
0.227633
0.226609
0.225604
0.224613
0.223628
0.222648
0.221678
0.239056
0.238108
0.237166
0.236231
0.235308
0.234406
0.233554
0.232815
0.23232
0.232229
0.232467
0.23274
0.232786
0.232516
0.232061
0.231452
0.230678
0.229799
0.22886
0.227879
0.226873
0.225857
0.224839
0.223825
0.222815
0.22181
0.220816
0.219825
0.218839
0.217866
0.239056
0.238108
0.237166
0.23623
0.235304
0.234395
0.233521
0.232723
0.232078
0.231663
0.231484
0.231285
0.230842
0.230203
0.229515
0.228785
0.227977
0.227103
0.226191
0.22525
0.224291
0.223322
0.222349
0.221377
0.220403
0.219433
0.218466
0.217502
0.216542
0.215591
0.239056
0.238108
0.237166
0.23623
0.235302
0.234388
0.233501
0.232673
0.231952
0.231378
0.23093
0.230434
0.229738
0.228924
0.228125
0.227333
0.226505
0.22563
0.224728
0.223803
0.222863
0.221912
0.220957
0.219999
0.21904
0.218082
0.217123
0.216168
0.215215
0.214271
0.239057
0.238109
0.237166
0.23623
0.235302
0.234387
0.233494
0.232653
0.2319
0.231263
0.230708
0.23009
0.229289
0.228401
0.227551
0.226729
0.225885
0.225006
0.224102
0.223179
0.222242
0.221296
0.220346
0.219395
0.218443
0.217488
0.216535
0.215583
0.214633
0.213693
0.239057
0.23811
0.23717
0.236238
0.235317
0.234409
0.23352
0.232677
0.231903
0.23122
0.230609
0.229979
0.229238
0.228421
0.227599
0.226788
0.225978
0.225159
0.224339
0.223519
0.222698
0.221876
0.221056
0.220237
0.219418
0.218601
0.217783
0.216965
0.216149
0.215342
0.239057
0.23811
0.23717
0.236239
0.235317
0.234411
0.233527
0.232695
0.231945
0.231309
0.230776
0.230234
0.229563
0.22879
0.227997
0.227204
0.226406
0.225595
0.224784
0.22397
0.223155
0.222339
0.221523
0.220708
0.219893
0.219079
0.218264
0.21745
0.216637
0.215833
0.239057
0.23811
0.23717
0.236239
0.23532
0.234417
0.233543
0.232737
0.232046
0.231529
0.231194
0.230872
0.23037
0.229705
0.228975
0.228219
0.227443
0.226647
0.22585
0.225048
0.224243
0.223437
0.22263
0.221822
0.221015
0.220206
0.219397
0.218588
0.21778
0.216979
0.239057
0.23811
0.237171
0.236241
0.235323
0.234427
0.233573
0.232812
0.232235
0.23196
0.232033
0.232125
0.231921
0.231443
0.230817
0.230115
0.229365
0.228586
0.227803
0.227012
0.226215
0.225416
0.224614
0.223811
0.223006
0.222199
0.221392
0.220585
0.219777
0.218975
0.239057
0.23811
0.237171
0.236242
0.235328
0.234442
0.233617
0.232936
0.232568
0.232702
0.233199
0.233753
0.234018
0.233937
0.233531
0.232945
0.232257
0.231536
0.230796
0.230042
0.229279
0.228509
0.227732
0.22695
0.226161
0.225366
0.224565
0.223761
0.222952
0.222145
0.239057
0.23811
0.237172
0.236244
0.235334
0.234462
0.233681
0.233133
0.233121
0.233685
0.234926
0.236244
0.237072
0.237474
0.237549
0.23726
0.236754
0.23617
0.23552
0.234825
0.234102
0.233357
0.2326
0.231832
0.231052
0.230264
0.229465
0.228656
0.227834
0.227003
0.239057
0.23811
0.237172
0.236246
0.235342
0.234488
0.233767
0.233426
0.233777
0.235058
0.237669
0.240065
0.241793
0.242866
0.24341
0.243643
0.243702
0.243537
0.243179
0.242676
0.242054
0.241335
0.240539
0.239685
0.238784
0.237847
0.236892
0.235915
0.234923
0.233922
0.239057
0.238111
0.237175
0.236249
0.23535
0.234516
0.233873
0.233812
0.234607
0.237013
0.242067
0.248017
0.251497
0.253615
0.25468
0.25506
0.255211
0.255149
0.254939
0.254636
0.254226
0.253703
0.253048
0.252254
0.251331
0.250286
0.24914
0.247905
0.246605
0.245239
0.239058
0.238112
0.237177
0.236253
0.23536
0.234542
0.233971
0.234148
0.235438
0.239467
0.243891
0.259139
0.271242
0.275448
0.280053
0.280104
0.278876
0.276858
0.274595
0.272216
0.269801
0.267433
0.265076
0.262757
0.260485
0.258263
0.256079
0.253933
0.251827
0.249751
0.239059
0.238113
0.237179
0.236258
0.235369
0.234561
0.23404
0.234338
0.23607
0.241722
0.249424
0.292019
0.36001
0.359139
0.356024
0.347674
0.338035
0.328418
0.319276
0.310821
0.303023
0.295832
0.289078
0.282782
0.276916
0.271409
0.266235
0.261366
0.256788
0.252492
0.239058
0.238112
0.237178
0.236257
0.235367
0.234562
0.234041
0.234342
0.23608
0.241752
0.249851
0.309994
0.49688
0.514638
0.371217
0.362899
0.353205
0.343005
0.33299
0.323574
0.314746
0.306538
0.298804
0.291612
0.284902
0.27867
0.272855
0.267418
0.26234
0.257552
0.239057
0.238111
0.237174
0.236251
0.235357
0.234542
0.233975
0.234159
0.235465
0.239549
0.245725
0.272624
0.299955
0.30176
0.28449
0.285466
0.28379
0.281095
0.278082
0.275007
0.27198
0.269071
0.266314
0.263707
0.261232
0.258872
0.25659
0.254369
0.25221
0.250057
0.239057
0.238111
0.237173
0.236249
0.235351
0.234518
0.233879
0.233833
0.234649
0.23711
0.242303
0.248617
0.252447
0.254645
0.255975
0.256552
0.256454
0.255611
0.254475
0.25322
0.251947
0.250741
0.249673
0.248792
0.248136
0.24767
0.247348
0.247112
0.246925
0.246669
0.239057
0.23811
0.237173
0.236247
0.235343
0.23449
0.233775
0.233448
0.233818
0.235139
0.237854
0.24044
0.242442
0.24373
0.24453
0.244936
0.24497
0.244516
0.243724
0.242737
0.241652
0.240549
0.239483
0.238484
0.237565
0.236724
0.235956
0.235244
0.234579
0.233941
0.239057
0.23811
0.237172
0.236245
0.235336
0.234466
0.23369
0.233155
0.233173
0.233761
0.235058
0.236483
0.237501
0.238123
0.238423
0.238405
0.237919
0.237211
0.236386
0.235496
0.234567
0.233622
0.232681
0.231757
0.230853
0.229976
0.229118
0.22828
0.227459
0.226658
0.239057
0.23811
0.237171
0.236243
0.23533
0.234446
0.233627
0.232959
0.232615
0.232771
0.233302
0.233917
0.234301
0.234446
0.234301
0.233875
0.23322
0.232447
0.231608
0.230723
0.229813
0.228893
0.227981
0.227083
0.226203
0.225343
0.224501
0.223672
0.222854
0.222051
0.239057
0.23811
0.237171
0.236241
0.235325
0.234432
0.233584
0.232835
0.23228
0.232034
0.232132
0.232256
0.232142
0.231785
0.231284
0.23067
0.229949
0.229149
0.228315
0.227454
0.226577
0.225695
0.224815
0.223942
0.223077
0.222218
0.221371
0.22053
0.219698
0.218879
0.239057
0.23811
0.237171
0.23624
0.235322
0.234423
0.233556
0.232761
0.23209
0.231598
0.231288
0.230982
0.230498
0.229878
0.229212
0.228511
0.227757
0.226956
0.226134
0.225294
0.224444
0.223589
0.222735
0.221884
0.221038
0.220196
0.21936
0.218528
0.217705
0.216891
0.239057
0.23811
0.237171
0.23624
0.23532
0.234417
0.23354
0.23272
0.231989
0.231376
0.230861
0.230322
0.229644
0.228883
0.228125
0.22737
0.226592
0.225782
0.224959
0.224123
0.22328
0.222432
0.221585
0.220739
0.219897
0.219059
0.218222
0.21739
0.216563
0.215748
0.239057
0.23811
0.237171
0.236241
0.235321
0.234416
0.233534
0.232703
0.231947
0.231285
0.230689
0.230054
0.229294
0.228472
0.227672
0.226892
0.2261
0.225284
0.224456
0.223618
0.222775
0.221928
0.221082
0.220238
0.219396
0.218558
0.217722
0.21689
0.216061
0.215246
0.239057
0.23811
0.23717
0.236239
0.235318
0.23441
0.233519
0.232667
0.231869
0.231138
0.230459
0.229767
0.229006
0.228197
0.227387
0.226586
0.225787
0.224983
0.224182
0.223381
0.222581
0.221783
0.220988
0.220195
0.219405
0.218617
0.217832
0.217049
0.216268
0.215498
0.239057
0.23811
0.23717
0.236239
0.235318
0.234412
0.233524
0.232681
0.231902
0.231205
0.230579
0.229949
0.229239
0.228464
0.227676
0.226889
0.2261
0.225303
0.224509
0.223714
0.22292
0.222127
0.221337
0.220548
0.219762
0.218979
0.218198
0.217418
0.216642
0.215875
0.239057
0.23811
0.237171
0.23624
0.23532
0.234417
0.233537
0.232713
0.231977
0.231364
0.230873
0.2304
0.229813
0.22912
0.228382
0.227625
0.226856
0.226073
0.225292
0.224508
0.223725
0.222942
0.222161
0.221381
0.220603
0.219828
0.219054
0.21828
0.217509
0.216748
0.239057
0.23811
0.237171
0.236241
0.235323
0.234425
0.233559
0.23277
0.232115
0.231668
0.231455
0.231287
0.230932
0.230384
0.229728
0.229017
0.228275
0.22751
0.226745
0.225975
0.225202
0.224429
0.223657
0.222886
0.222116
0.221347
0.220579
0.219812
0.219046
0.21829
0.239057
0.23811
0.237171
0.236242
0.235327
0.234436
0.233594
0.232861
0.23235
0.232208
0.232418
0.232672
0.232711
0.232406
0.231878
0.231236
0.230529
0.229791
0.229046
0.228293
0.227536
0.226778
0.226019
0.22526
0.2245
0.22374
0.222977
0.222216
0.221454
0.2207
0.239057
0.23811
0.237172
0.236244
0.235332
0.234452
0.233642
0.233
0.232732
0.232986
0.233683
0.23447
0.234925
0.235059
0.234805
0.234327
0.233713
0.233069
0.232383
0.231677
0.230959
0.230234
0.229505
0.228773
0.228037
0.227297
0.226554
0.225805
0.225054
0.224302
0.239057
0.23811
0.237172
0.236246
0.235338
0.234471
0.233703
0.233199
0.233294
0.233997
0.235514
0.237121
0.238164
0.238734
0.238935
0.238887
0.238554
0.238089
0.237513
0.236869
0.236174
0.235446
0.234695
0.233927
0.233147
0.232356
0.231557
0.230749
0.229934
0.229115
0.239057
0.238112
0.237175
0.236248
0.235344
0.234491
0.233776
0.233454
0.233845
0.235232
0.238142
0.240852
0.242768
0.243797
0.244373
0.244695
0.24483
0.244774
0.244484
0.244042
0.243487
0.242841
0.24213
0.241367
0.240552
0.239695
0.238797
0.237866
0.236903
0.235911
0.239058
0.238113
0.237178
0.236251
0.235349
0.234509
0.233845
0.233711
0.234423
0.236655
0.241354
0.246843
0.250076
0.251599
0.252522
0.253039
0.253196
0.252903
0.252278
0.251485
0.250598
0.249674
0.248729
0.247769
0.246768
0.245726
0.244641
0.243512
0.24234
0.241119
0.239059
0.238113
0.23718
0.236256
0.235356
0.234522
0.23389
0.233899
0.234831
0.237895
0.24471
0.253341
0.258865
0.260797
0.261843
0.262085
0.261363
0.260146
0.258698
0.257125
0.255501
0.253875
0.252227
0.250586
0.248926
0.247264
0.245602
0.243939
0.242281