/*--------------------------------*- C++ -*----------------------------------*\
| =========                 |                                                 |
| \\      /  F ield         | OpenFOAM: The Open Source CFD Toolbox           |
|  \\    /   O peration     | Version:  2512                                  |
|   \\  /    A nd           | Website:  www.openfoam.com                      |
|    \\/     M anipulation  |                                                 |
\*---------------------------------------------------------------------------*/
FoamFile
{
    version     2.0;
    format      ascii;
    arch        "LSB;label=32;scalar=64";
    class       volScalarField;
    location    "180";
    object      k;
}
// * * * * * * * * * * * * * * * * * * * * * * * * * * * * * * * * * * * * * //

dimensions      [0 2 -2 0 0 0 0];

internalField   nonuniform List<scalar> 
90398
(
0.231943
0.224244
0.217021
0.210234
0.203878
0.197934
0.192369
0.187199
0.182423
0.178033
0.174066
0.170525
0.167366
0.164577
0.162142
0.160635
0.176545
0.405919
1.6067
5.21436
11.9471
19.6875
26.6609
32.3934
37.0059
40.7759
43.9492
46.7797
49.3596
52.2645
0.231945
0.224249
0.217032
0.210251
0.2039
0.197959
0.1924
0.187234
0.182462
0.17808
0.174121
0.170592
0.167452
0.164675
0.162329
0.163071
0.224519
0.763515
2.68896
6.92899
13.4865
20.5755
26.9511
32.2678
36.6201
40.2309
43.3139
46.0908
48.656
51.5169
0.231947
0.224256
0.21705
0.210278
0.203936
0.198002
0.192444
0.187289
0.182531
0.178166
0.174232
0.170731
0.167628
0.164882
0.162803
0.169665
0.319702
1.24556
3.89912
8.71821
14.894
21.163
26.7912
31.5775
35.5906
38.9969
41.9661
44.6835
47.226
50.0445
0.231949
0.224264
0.217068
0.210307
0.203973
0.198049
0.192496
0.187352
0.182617
0.178287
0.174404
0.170954
0.167897
0.165208
0.16378
0.183251
0.458592
1.79362
5.01882
9.88873
15.4648
20.957
25.9221
30.2369
33.9453
37.171
40.0443
42.7169
45.2434
48.0148
0.231951
0.22427
0.217081
0.210333
0.204007
0.198092
0.192547
0.187422
0.18272
0.178398
0.174529
0.171164
0.16822
0.165647
0.16565
0.205149
0.612538
2.22817
5.53732
10.0029
14.942
19.8044
24.2754
28.2519
31.7548
34.8706
37.698
40.3597
42.8914
45.6062
0.231957
0.224275
0.217091
0.210356
0.204037
0.198125
0.192604
0.187494
0.182792
0.178508
0.1747
0.17144
0.16864
0.1663
0.1692
0.233418
0.705318
2.26318
5.11047
8.94091
13.2742
17.6725
21.8466
25.6662
29.1117
32.2312
35.0941
37.7971
40.3628
43.0224
0.231962
0.224287
0.217099
0.210371
0.20406
0.198151
0.192644
0.187547
0.182827
0.178699
0.175154
0.171971
0.169623
0.167859
0.18081
0.27847
0.675472
1.75464
3.81277
6.84706
10.5931
14.673
18.7528
22.6219
26.1885
29.4489
32.4413
35.239
37.8599
40.4537
0.231963
0.224298
0.217118
0.2104
0.204082
0.198171
0.192666
0.187532
0.182838
0.178329
0.170881
0.165003
0.16033
0.157014
0.316769
0.594709
1.01922
1.72298
2.97128
5.0525
8.05804
11.7698
15.8018
19.807
23.5747
27.0259
30.1626
33.0356
35.669
38.1354
0.231964
0.224299
0.217133
0.210425
0.204113
0.198179
0.192664
0.187483
0.182359
0.174484
0.183469
0.200587
0.27808
0.454336
2.73201
2.93482
3.13211
3.43685
4.064
5.36543
7.65173
10.8974
14.7251
18.6811
22.4492
25.8863
28.9666
31.7274
34.215
36.3869
0.231964
0.224299
0.217126
0.210412
0.204108
0.198167
0.192641
0.187449
0.182449
0.175157
0.925396
2.07376
4.05287
3.89349
5.30361
4.49849
4.06528
4.11675
4.84348
6.4703
9.09314
12.5024
16.2757
20.0109
23.4608
26.5321
29.2276
31.6232
33.7462
35.5255
0.231963
0.224297
0.217121
0.210402
0.204088
0.198132
0.192577
0.187357
0.182338
0.175646
9.23239
6.93912
4.43632
3.6332
3.22244
3.33098
4.1984
6.03949
8.86144
12.3902
16.1735
19.8201
23.1065
25.9593
28.3958
30.4737
32.2904
33.8761
35.1336
0.231962
0.224293
0.217118
0.210395
0.204056
0.198078
0.192483
0.187223
0.181959
0.174272
0.234662
2.67392
3.7033
2.43986
1.01488
1.42617
2.57805
4.91801
8.38798
12.4569
16.5507
20.297
23.5413
26.254
28.4854
30.3085
31.7999
33.0693
34.1274
34.8651
0.231961
0.224288
0.217096
0.210354
0.203994
0.198013
0.192381
0.187095
0.182011
0.176923
0.171476
0.198182
0.193541
0.182455
0.291089
0.94787
3.04014
6.68536
11.1442
15.6567
19.7764
23.308
26.2265
28.5622
30.3907
31.7968
32.8561
33.6877
34.2961
34.5696
0.23196
0.224276
0.21707
0.210311
0.203946
0.197953
0.192293
0.186935
0.18191
0.177107
0.17278
0.1688
0.165729
0.164642
0.229274
0.892266
3.52627
7.8145
12.7262
17.4655
21.6523
25.1541
27.9701
30.1462
31.7603
32.8973
33.639
34.1186
34.3467
34.2135
0.231954
0.224263
0.217059
0.210289
0.20391
0.197906
0.192219
0.186832
0.181743
0.176958
0.172408
0.168358
0.165224
0.163658
0.197271
0.695067
3.37502
8.00321
13.2476
18.2379
22.5981
26.2112
29.0715
31.2221
32.7367
33.6993
34.2
34.3868
34.2903
33.8024
0.231948
0.224258
0.217049
0.210264
0.203877
0.19786
0.192147
0.186751
0.181621
0.176736
0.172254
0.168331
0.165129
0.163089
0.182194
0.5484
2.94447
7.70652
13.1745
18.4
22.9775
26.7714
29.7557
31.9549
33.43
34.273
34.5875
34.5281
34.153
33.3588
0.231947
0.224253
0.217037
0.210241
0.203847
0.19782
0.192103
0.1867
0.181572
0.176678
0.172256
0.168438
0.165147
0.162802
0.174326
0.439586
2.45193
7.1501
12.7123
18.1214
22.9206
26.9342
30.0939
32.395
33.8799
34.6452
34.8156
34.5636
33.9596
32.9104
0.231946
0.224248
0.217024
0.210218
0.203818
0.197787
0.192069
0.18668
0.181581
0.176759
0.172363
0.168499
0.165155
0.162565
0.168992
0.353434
1.96189
6.4343
11.9679
17.4988
22.5064
26.7569
30.1287
32.5694
34.1053
34.8361
34.9039
34.515
33.7376
32.4903
0.231944
0.224243
0.217011
0.2102
0.203794
0.197761
0.192051
0.186669
0.181591
0.176808
0.172418
0.168516
0.165106
0.162324
0.165338
0.288911
1.53089
5.64474
11.0458
16.633
21.8194
26.3011
29.897
32.5005
34.1169
34.8524
34.8664
34.4045
33.5163
32.1355
0.231944
0.224242
0.217006
0.21019
0.203781
0.197748
0.192038
0.186661
0.181592
0.176819
0.172419
0.168482
0.165012
0.162109
0.163011
0.245005
1.2074
4.97339
10.1701
15.7365
21.0473
25.7171
29.5
32.2507
33.9526
34.7202
34.7541
34.2757
33.3448
31.8985
0.238838
0.237498
0.23603
0.234469
0.232853
0.231227
0.229633
0.228149
0.226852
0.225788
0.224904
0.224092
0.223305
0.22269
0.223146
0.242958
0.572056
2.60759
9.2967
23.7934
44.4153
63.137
77.6145
89.0816
98.4906
106.423
113.411
119.739
125.63
130.633
0.238838
0.237498
0.23603
0.23447
0.232853
0.231227
0.229633
0.228158
0.226886
0.225869
0.225037
0.224233
0.223401
0.222797
0.22538
0.295092
1.07894
4.5068
13.1704
28.4549
47.7374
64.5116
77.9788
88.9226
98.0144
105.801
112.728
119.056
124.981
130.039
0.238839
0.237499
0.236032
0.234472
0.232855
0.231229
0.229636
0.228185
0.226979
0.226082
0.225379
0.224598
0.223684
0.223191
0.231693
0.407312
1.8247
6.88645
17.7064
33.5774
50.2418
64.7742
77.0091
87.2558
95.9653
103.59
110.468
116.828
122.823
127.983
0.23884
0.2375
0.236035
0.234474
0.232857
0.231231
0.229646
0.228241
0.227171
0.226533
0.22609
0.225376
0.224346
0.224303
0.246175
0.589333
2.7474
9.38139
21.6163
36.4286
50.6719
63.4692
74.6375
84.2309
92.6207
100.113
106.981
113.414
119.513
124.804
0.238841
0.237502
0.236036
0.234476
0.232862
0.231239
0.229672
0.228357
0.227563
0.227361
0.227306
0.226815
0.225724
0.22702
0.275157
0.833683
3.68854
11.3332
23.4456
36.3999
48.9847
60.5754
70.9222
80.0765
88.2653
95.714
102.639
109.194
115.421
120.846
0.238841
0.237503
0.236037
0.234478
0.232864
0.231261
0.229735
0.228582
0.22831
0.228722
0.229347
0.229273
0.22848
0.232575
0.326346
1.11115
4.37822
12.0441
22.4964
33.9648
45.4222
56.2328
66.1209
75.1048
83.2852
90.8254
97.8911
104.605
110.96
116.485
0.238843
0.237503
0.23604
0.234481
0.232862
0.231271
0.229843
0.229033
0.22941
0.230956
0.233117
0.23449
0.234977
0.245141
0.437276
1.42039
4.45918
10.6172
19.3933
29.6583
40.3919
50.8685
60.7385
69.8603
78.2484
86.0084
93.2675
100.128
106.555
112.083
0.238844
0.237507
0.236042
0.234488
0.232854
0.231254
0.229936
0.229617
0.231083
0.231796
0.235085
0.239002
0.239946
0.242645
1.17288
2.62503
5.06564
9.38976
16.1173
25.0145
35.1854
45.6939
55.853
65.3211
74.0152
81.9985
89.3828
96.2659
102.605
107.969
0.238844
0.237509
0.236045
0.234486
0.232851
0.231227
0.230001
0.230069
0.230256
0.236371
0.249758
0.260566
0.283766
0.39682
7.73315
8.53629
9.47981
11.5638
15.9117
23.1015
32.5684
43.0205
53.3567
62.9989
71.7739
79.7223
86.9564
93.5728
99.5295
104.479
0.238844
0.237508
0.236048
0.234489
0.23287
0.231231
0.23009
0.23047
0.23164
0.238738
0.425476
3.78732
11.3821
20.9476
9.57578
8.42685
9.05239
11.7218
17.045
25.0169
34.7944
45.1622
55.1829
64.3812
72.6305
79.9917
86.592
92.5302
97.7491
101.923
0.238844
0.237508
0.236046
0.234485
0.232858
0.231193
0.229971
0.230202
0.23166
0.241747
5.19203
8.27662
8.28655
10.2902
14.9721
22.4732
31.9294
42.0819
51.9359
60.9783
69.0433
76.1493
82.4025
87.9471
92.8399
97.0106
100.155
0.238843
0.237507
0.23604
0.234474
0.232822
0.231135
0.229706
0.229373
0.229789
0.23805
0.262271
0.981452
4.85466
7.76455
4.56176
6.87773
11.8685
20.0653
30.099
40.5192
50.4045
59.4819
67.4461
74.3769
80.3462
85.4727
89.9118
93.6688
96.7042
98.7354
0.238843
0.237504
0.236035
0.23447
0.232808
0.231121
0.229535
0.228542
0.229315
0.230719
0.234918
0.242065
0.245993
0.255844
1.6727
5.58634
13.8279
24.645
35.9599
46.7696
56.5354
65.2058
72.5967
78.8661
84.0721
88.3113
91.7985
94.5106
96.4591
97.3957
0.238841
0.2375
0.236032
0.234461
0.232807
0.231111
0.229404
0.227843
0.227358
0.228131
0.229917
0.231938
0.234217
0.269172
1.0806
5.14814
15.0944
27.2488
39.3203
50.5269
60.5357
69.1698
76.4133
82.3537
87.0469
90.6487
93.3639
95.1554
96.1105
96.0187
0.23884
0.237499
0.236029
0.234455
0.232803
0.23109
0.229308
0.227546
0.226138
0.225685
0.225956
0.226746
0.228017
0.247923
0.753681
4.32562
14.6018
27.963
40.7637
52.4611
62.8593
71.7845
79.1405
84.9765
89.3597
92.474
94.5502
95.555
95.6155
94.585
0.23884
0.237499
0.236028
0.234452
0.232798
0.231075
0.22928
0.227473
0.225754
0.224432
0.223855
0.223904
0.224631
0.237196
0.577413
3.55698
13.3976
27.4858
40.8694
53.1051
63.9792
73.3296
80.9806
86.8734
91.1135
93.8598
95.3908
95.7226
95.0019
93.137
0.238839
0.237498
0.236027
0.23445
0.232788
0.231067
0.229279
0.227472
0.225686
0.224056
0.222838
0.222376
0.22277
0.231237
0.465304
2.86501
11.8464
26.1942
39.9821
52.7271
64.1569
74.0092
82.0812
88.1575
92.3525
94.8542
95.9612
95.7098
94.325
91.7476
0.238839
0.237498
0.236026
0.234448
0.232786
0.231065
0.229289
0.227484
0.225683
0.223973
0.222556
0.221758
0.221925
0.227523
0.382848
2.2439
10.1388
24.3136
38.3345
51.5394
63.5489
73.9893
82.5232
88.9066
93.1472
95.4983
96.3082
95.5904
93.6658
90.5143
0.238839
0.237497
0.236024
0.234446
0.232784
0.231064
0.229294
0.227493
0.225699
0.223983
0.22251
0.221584
0.221617
0.225287
0.324416
1.71709
8.48543
22.0062
36.1911
49.811
62.3877
73.4176
82.4398
89.1628
93.543
95.8355
96.4658
95.4209
93.1194
89.5493
0.23884
0.237499
0.236026
0.234447
0.232787
0.231067
0.229301
0.227506
0.22572
0.224015
0.222539
0.221582
0.221576
0.224077
0.286727
1.32456
7.17853
19.9851
34.0866
47.9844
61.0478
72.5757
82.0056
89.0047
93.5545
95.8744
96.4434
95.2477
92.7734
88.9712
0.239047
0.238077
0.237104
0.236133
0.235184
0.234291
0.233506
0.232915
0.23262
0.232605
0.232734
0.232922
0.233151
0.233728
0.242157
0.416238
1.89691
7.46405
21.6744
46.1843
73.3995
94.6025
111.252
125.14
137.069
147.623
157.123
165.852
173.85
180.016
0.239047
0.238078
0.237104
0.236133
0.235182
0.234289
0.233509
0.232932
0.232673
0.232693
0.232856
0.233051
0.233272
0.234573
0.263913
0.724026
3.40068
11.3684
27.8727
51.69
76.2218
95.8069
111.743
125.218
136.937
147.347
156.822
165.594
173.666
179.93
0.239048
0.238079
0.237105
0.236135
0.235182
0.234291
0.233521
0.232983
0.232814
0.232917
0.233164
0.233386
0.233616
0.237079
0.316156
1.22388
5.3875
16.1638
34.8171
57.0892
78.0536
95.664
110.654
123.603
135.049
145.308
154.786
163.645
171.843
178.265
0.239048
0.23808
0.237107
0.236136
0.235182
0.234294
0.233545
0.233078
0.233045
0.233308
0.233728
0.234025
0.23436
0.243437
0.41433
1.9009
7.67182
20.9091
40.1013
59.9151
77.9776
94.0019
108.076
120.528
131.671
141.844
151.361
160.347
168.706
175.324
0.239049
0.238082
0.237109
0.236138
0.235188
0.2343
0.233586
0.233245
0.233396
0.233982
0.234756
0.235208
0.236047
0.257713
0.576499
2.74103
9.98471
24.5077
42.4973
59.8433
76.1209
90.9367
104.29
116.301
127.222
137.372
146.967
156.105
164.628
171.433
0.23905
0.238084
0.237112
0.236139
0.235191
0.23431
0.233654
0.233534
0.234006
0.235214
0.236715
0.237554
0.23946
0.284719
0.833539
3.71945
11.9774
26.2393
42.0761
57.8405
72.8853
86.8533
99.7025
111.399
122.238
132.422
142.117
151.39
160.03
166.956
0.239051
0.238084
0.237114
0.236141
0.235193
0.234329
0.233758
0.233867
0.234966
0.237205
0.240154
0.242418
0.246633
0.349817
1.37876
4.95064
13.2841
25.7396
40.0187
54.6663
68.9307
82.419
94.9498
106.55
117.395
127.634
137.393
146.711
155.346
162.258
0.239052
0.238085
0.237113
0.236137
0.235195
0.234345
0.233876
0.234311
0.236222
0.240705
0.242677
0.249005
0.252729
0.344692
4.30246
8.01329
14.7146
25.0101
37.7723
51.5735
65.4422
78.7104
91.1248
102.709
113.54
123.74
133.41
142.576
150.984
157.673
0.239053
0.238086
0.237114
0.236134
0.235186
0.234349
0.234001
0.234712
0.235762
0.241911
0.253298
0.283473
0.313453
1.55039
17.5721
17.1705
19.809
26.7296
37.626
50.6301
64.2355
77.3463
89.6303
101.027
111.607
121.487
130.761
139.452
147.316
153.505
0.239053
0.238087
0.237116
0.236138
0.235184
0.234346
0.234071
0.235019
0.236718
0.243515
0.284272
5.02593
13.6901
28.2296
19.4909
18.0781
21.079
28.7004
40.1784
53.4788
66.973
79.7349
91.5
102.28
112.177
121.314
129.789
137.615
144.575
149.946
0.239053
0.238086
0.237114
0.236133
0.23517
0.234301
0.233925
0.234761
0.236567
0.244481
1.55183
16.6897
18.8221
18.3107
23.2978
33.3813
46.4846
60.1912
73.3023
85.2772
96.1334
105.941
114.808
122.864
130.221
136.862
142.625
146.923
0.239052
0.238084
0.237109
0.23612
0.235148
0.234232
0.233631
0.234021
0.235211
0.242934
0.258834
2.11004
3.39012
12.9576
13.4127
16.91
26.3112
39.4632
53.6225
67.306
79.9677
91.3629
101.493
110.444
118.283
125.2
131.328
136.65
141.071
144.162
0.23905
0.238081
0.237104
0.236116
0.235136
0.234174
0.233373
0.233341
0.234652
0.238589
0.242226
0.254195
0.26034
0.712892
5.61502
14.2308
27.9991
43.3617
58.457
72.5514
85.3
96.5851
106.305
114.645
121.666
127.592
132.535
136.539
139.599
141.448
0.239049
0.23808
0.237104
0.236114
0.23512
0.234124
0.233195
0.232577
0.23293
0.234446
0.237282
0.24054
0.247317
0.507901
3.39944
12.7878
28.9421
45.5402
61.39
76.0441
89.1958
100.664
110.31
118.233
124.598
129.65
133.521
136.297
138.045
138.686
0.239048
0.23808
0.237101
0.236108
0.235107
0.234089
0.233092
0.232198
0.231758
0.232201
0.233406
0.235052
0.239606
0.386468
2.46985
11.3102
28.3741
46.2422
62.8043
78.084
91.7496
103.551
113.38
121.124
127.01
131.281
134.199
135.835
136.376
135.89
0.239048
0.238078
0.237097
0.236104
0.235098
0.234074
0.233048
0.232046
0.231208
0.230947
0.231315
0.232291
0.235635
0.334015
1.91776
9.87522
26.8451
45.6827
62.8963
78.8435
93.1376
105.435
115.525
123.284
128.836
132.497
134.581
135.192
134.649
133.147
0.239048
0.238077
0.237096
0.236101
0.235089
0.234069
0.233034
0.232001
0.231034
0.23035
0.230302
0.230853
0.233327
0.299948
1.49626
8.40251
24.6294
44.0503
61.826
78.4473
93.4586
106.392
116.872
124.77
130.141
133.319
134.706
134.456
132.976
130.6
0.239047
0.238076
0.237094
0.236099
0.235087
0.234066
0.233031
0.231993
0.230998
0.230191
0.229884
0.230232
0.232067
0.274938
1.14201
6.92168
21.9582
41.4877
59.7672
77.0586
92.8463
106.519
117.535
125.65
130.977
133.819
134.663
133.725
131.502
128.426
0.239047
0.238076
0.237094
0.236098
0.235088
0.234068
0.233037
0.232005
0.231016
0.230189
0.229785
0.230029
0.231445
0.257749
0.857058
5.55672
19.1349
38.2581
57.0623
75.0048
91.5605
105.963
117.575
126.006
131.363
134.059
134.536
133.123
130.38
126.809
0.239048
0.238077
0.237095
0.236099
0.23509
0.234071
0.233041
0.232015
0.231033
0.230209
0.229786
0.229992
0.231161
0.24708
0.653984
4.50113
16.8467
35.2862
54.1838
72.6733
89.9903
105.045
117.115
125.866
131.325
134.034
134.355
132.725
129.737
125.91
0.239055
0.238109
0.237178
0.236271
0.235406
0.234615
0.233955
0.233507
0.233376
0.233521
0.233824
0.234225
0.234739
0.237104
0.29146
1.02274
4.75789
15.6694
38.3421
69.5724
98.2104
119.729
137.711
153.286
167.048
179.469
190.924
201.485
211.011
217.953
0.239055
0.238109
0.237178
0.23627
0.235403
0.234613
0.233955
0.233519
0.233417
0.233587
0.233917
0.234322
0.234955
0.242237
0.405946
1.90869
7.66099
21.4963
45.3677
74.2432
100.334
120.936
138.401
153.652
167.241
179.605
191.077
201.706
211.341
218.405
0.239056
0.23811
0.237179
0.236271
0.235403
0.234614
0.233964
0.233559
0.23353
0.233764
0.234158
0.234586
0.23558
0.255752
0.620624
3.13481
11.3472
28.5394
53.0936
78.6862
101.479
120.744
137.515
152.345
165.722
178.048
189.54
200.304
210.109
217.365
0.239057
0.238112
0.237181
0.236272
0.235403
0.234616
0.233983
0.233636
0.233714
0.234066
0.234591
0.235092
0.237015
0.284701
0.94579
4.64606
15.4146
35.1065
58.6622
80.9763
101.199
119.215
135.235
149.633
162.808
175.088
186.637
197.57
207.573
215.052
0.239058
0.238113
0.237182
0.236272
0.235403
0.23462
0.234014
0.233763
0.233976
0.234558
0.235341
0.235992
0.240344
0.338458
1.40025
6.42079
19.4021
39.8466
61.1271
81.0972
99.6741
116.584
131.918
145.933
158.929
171.142
182.772
193.864
204.042
211.72
0.239058
0.238115
0.237185
0.236273
0.235404
0.234627
0.234063
0.233974
0.234408
0.235429
0.23671
0.237754
0.246296
0.432159
2.05348
8.45716
22.8938
42.4064
61.6241
80.0641
97.3723
113.362
128.105
141.779
154.611
166.761
178.436
189.618
199.878
207.665
0.239059
0.238116
0.237187
0.236273
0.235405
0.234635
0.234134
0.234249
0.235073
0.236855
0.239249
0.241328
0.257009
0.636125
3.2289
10.9149
25.7423
43.5256
61.4383
78.7191
95.0481
110.309
124.555
137.907
150.52
162.56
174.165
185.284
195.456
203.19
0.239059
0.238117
0.237187
0.236271
0.235403
0.234642
0.234217
0.234524
0.235966
0.239149
0.241099
0.246364
0.253147
0.72369
6.83181
14.8174
28.3821
44.7379
61.6404
78.071
93.6918
108.372
122.157
135.108
147.383
159.151
170.475
181.286
191.113
198.569
0.23906
0.238118
0.237188
0.236274
0.235397
0.234641
0.234273
0.234805
0.236966
0.242561
0.247126
0.261581
0.295151
6.04771
16.3723
21.3846
32.33
47.1908
63.3505
79.1831
94.2698
108.432
121.643
134.042
145.802
157.034
167.777
177.957
187.122
194.03
0.239062
0.23812
0.237189
0.236275
0.235395
0.234632
0.234274
0.234961
0.237751
0.24166
0.257167
0.986095
3.97831
45.1384
21.0136
25.2463
35.8953
50.817
66.9137
82.5466
97.1931
110.765
123.312
135.016
146.014
156.412
166.248
175.449
183.62
189.701
0.239061
0.238119
0.237187
0.236271
0.235382
0.234594
0.234156
0.234755
0.237423
0.241779
0.260042
2.83156
4.12047
23.7345
21.0885
26.6512
39.2457
55.3088
71.7478
87.3111
101.657
114.745
126.669
137.627
147.693
157.034
165.702
173.64
180.541
185.559
0.239059
0.238116
0.237183
0.23626
0.235361
0.234536
0.233957
0.234231
0.236025
0.24133
0.248476
0.425134
0.64487
35.3938
16.478
26.1207
41.7677
59.1785
76.1305
91.9163
106.288
119.212
130.704
140.975
150.126
158.347
165.697
172.201
177.659
181.467
0.239058
0.238114
0.237179
0.236251
0.235347
0.234485
0.233772
0.233603
0.234532
0.237189
0.24013
0.24943
0.259476
2.31448
10.3942
24.3551
42.8535
61.5923
79.4027
95.784
110.501
123.486
134.748
144.41
152.699
159.797
165.817
170.835
174.779
177.311
0.239058
0.238112
0.237177
0.236247
0.235334
0.234444
0.233629
0.233074
0.233301
0.234578
0.236999
0.240053
0.264958
1.11404
7.26383
22.5762
43.217
62.9492
81.5922
98.6869
113.929
127.164
138.363
147.59
155.078
161.083
165.804
169.348
171.803
173.073
0.239057
0.238111
0.237174
0.236243
0.235323
0.234418
0.233546
0.232785
0.232424
0.232852
0.234014
0.235935
0.254
0.82067
5.84015
20.862
42.6886
63.3293
82.6953
100.531
116.405
130.03
141.288
150.242
157.074
162.082
165.563
167.707
168.749
168.82
0.239056
0.238109
0.23717
0.236239
0.235315
0.234403
0.233506
0.232659
0.232001
0.231937
0.2325
0.233838
0.247506
0.666227
4.85979
18.9806
41.0753
62.5891
82.631
101.226
117.827
132.004
143.49
152.265
158.56
162.731
165.097
165.975
165.724
164.707
0.239056
0.238108
0.237169
0.236236
0.235311
0.234395
0.23349
0.232615
0.231853
0.231452
0.231695
0.23268
0.242249
0.542857
3.95782
16.7837
38.4526
60.6826
81.3539
100.724
118.153
133.041
144.926
153.686
159.569
163.059
164.473
164.26
162.901
160.948
0.239056
0.238108
0.237168
0.236235
0.235309
0.234393
0.233488
0.23261
0.231823
0.231309
0.231399
0.23216
0.238676
0.440816
3.09674
14.3638
35.0575
57.6074
78.9116
99.0684
117.432
133.2
145.628
154.553
160.182
163.135
163.815
162.725
160.482
157.784
0.239055
0.238107
0.237167
0.236234
0.235308
0.234393
0.23349
0.232617
0.231832
0.231292
0.231318
0.23195
0.236208
0.363149
2.33751
12.0039
31.2952
53.8059
75.7344
96.6717
115.915
132.499
145.667
154.88
160.438
163.037
163.233
161.54
158.681
155.461
0.239056
0.238109
0.237169
0.236236
0.235312
0.234397
0.233498
0.232631
0.231854
0.231316
0.231322
0.231906
0.23477
0.311408
1.76171
10.1191
28.0662
50.1583
72.555
94.2667
114.254
131.423
145.059
154.667
160.307
162.792
162.776
160.816
157.661
154.179
0.239056
0.238111
0.237183
0.23628
0.235421
0.23464
0.233985
0.233535
0.233388
0.233531
0.233843
0.234283
0.235052
0.244716
0.457275
2.29869
9.30376
26.5886
56.5604
91.0757
119.657
141.803
161.015
177.991
193.254
207.225
220.214
232.27
243.037
250.562
0.239056
0.238111
0.237183
0.236279
0.23542
0.234637
0.233983
0.23354
0.233412
0.233573
0.233903
0.23436
0.235764
0.267624
0.798713
4.03113
13.846
34.0315
63.6851
95.1684
121.756
143.193
161.967
178.68
193.814
207.762
220.813
233.006
243.892
251.557
0.239056
0.238112
0.237184
0.23628
0.235419
0.234636
0.233987
0.233565
0.233488
0.233694
0.234069
0.234575
0.237678
0.318379
1.33302
6.29266
19.4741
42.7974
71.4004
98.8483
122.688
143.232
161.446
177.82
192.795
206.737
219.896
232.267
243.348
251.228
0.239057
0.238113
0.237185
0.23628
0.235418
0.234636
0.233997
0.233614
0.233628
0.233912
0.234371
0.23499
0.241893
0.407603
2.04675
8.96695
25.4162
50.5359
76.7945
100.731
122.539
142.092
159.675
175.677
190.487
204.431
217.73
230.28
241.585
249.704
0.239058
0.238115
0.237186
0.236281
0.235417
0.234637
0.234014
0.233691
0.233813
0.234238
0.234864
0.235731
0.249932
0.544606
2.95347
11.9559
30.9684
55.8431
79.2924
101.205
121.538
140.099
157.041
172.664
187.308
201.247
214.636
227.337
238.82
247.138
0.239058
0.238116
0.237188
0.236281
0.235416
0.234638
0.234039
0.233813
0.234075
0.234761
0.235719
0.237054
0.263459
0.746002
4.10386
15.1553
35.6555
58.9241
80.5818
101.067
120.166
137.806
154.12
169.35
183.79
197.676
211.038
223.789
235.322
243.728
0.23906
0.238116
0.237188
0.236281
0.235414
0.234639
0.234073
0.233995
0.234477
0.235665
0.237249
0.239318
0.285053
1.09247
5.69724
18.6355
39.5045
61.1941
81.7198
101.052
119.107
135.902
151.59
166.388
180.536
194.209
207.386
219.992
231.367
239.679
0.239061
0.238119
0.237187
0.236279
0.235411
0.234637
0.23411
0.234203
0.235037
0.236952
0.239969
0.243542
0.322246
1.93621
8.40344
22.7577
43.12
63.7382
83.4197
101.86
119.092
135.069
150.114
164.397
178.095
191.308
204.07
216.254
227.193
235.179
0.239061
0.238122
0.23719
0.23628
0.235406
0.23463
0.234128
0.234332
0.235573
0.238616
0.24115
0.248488
0.282684
2.86797
13.4112
27.5727
46.9661
66.9806
86.1376
103.992
120.506
135.757
150.138
163.772
176.784
189.3
201.354
212.789
222.976
230.376
0.239061
0.238122
0.237193
0.236281
0.235404
0.234612
0.2341
0.234372
0.235897
0.239864
0.244399
0.259842
0.33476
5.91702
16.687
31.4395
50.8012
70.7877
89.8145
107.332
123.317
137.967
151.692
164.534
176.681
188.274
199.321
209.681
218.801
225.359
0.239061
0.238121
0.237191
0.236277
0.235392
0.23458
0.234011
0.23421
0.235644
0.239565
0.244885
0.262889
0.345216
6.75768
18.2701
34.1061
54.1637
74.5096
93.657
111.09
126.887
141.178
154.286
166.347
177.587
188.065
197.855
206.863
214.651
220.152
0.23906
0.23812
0.237185
0.236268
0.235374
0.23454
0.23388
0.233814
0.234793
0.237642
0.241167
0.251898
0.301982
6.09899
17.4549
35.0393
56.3412
77.3424
96.8955
114.651
130.585
144.794
157.462
168.803
179.047
188.305
196.696
204.158
210.427
214.723
0.239059
0.238116
0.23718
0.23626
0.235361
0.234503
0.233752
0.233356
0.233808
0.235469
0.238814
0.243521
0.36039
3.16153
14.2781
34.2391
57.2883
79.1855
99.4928
117.869
134.193
148.478
160.847
171.514
180.711
188.685
195.567
201.387
206.057
209.075
0.239058
0.238112
0.237179
0.236257
0.23535
0.234473
0.233656
0.233033
0.233021
0.233859
0.235592
0.238789
0.324984
2.21066
12.2817
33.0985
57.4983
80.1979
101.329
120.454
137.32
151.825
164.012
174.077
182.299
188.984
194.321
198.486
201.537
203.277
0.239057
0.238112
0.237177
0.236253
0.235342
0.234452
0.233599
0.232846
0.232429
0.232716
0.233739
0.236282
0.302835
1.78943
10.857
31.6073
56.9405
80.36
102.263
122.185
139.708
154.575
166.713
176.269
183.583
189.046
192.908
195.471
196.96
197.486
0.239057
0.238111
0.237175
0.236249
0.235336
0.23444
0.23357
0.232761
0.232155
0.232136
0.232747
0.234766
0.285428
1.46811
9.49632
29.4923
55.2207
79.4503
102.069
122.819
141.117
156.523
168.788
177.981
184.494
188.827
191.35
192.439
192.508
191.926
0.239056
0.23811
0.237174
0.236247
0.235332
0.234434
0.233558
0.232732
0.232054
0.231805
0.232196
0.233794
0.269643
1.16394
8.02329
26.7453
52.3474
77.2608
100.557
122.159
141.366
157.521
170.145
179.172
185.041
188.391
189.753
189.572
188.413
186.881
0.239056
0.238109
0.237172
0.236245
0.23533
0.234432
0.233556
0.232728
0.232032
0.231692
0.231967
0.233227
0.256516
0.888535
6.50253
23.5532
48.5206
73.9078
97.9997
120.583
140.786
157.687
170.742
179.848
185.273
187.86
188.273
187.086
184.945
182.662
0.239056
0.238109
0.237172
0.236245
0.235331
0.234434
0.233562
0.23274
0.232049
0.231689
0.231916
0.23295
0.246969
0.662767
5.08226
20.2985
44.2248
69.9473
94.8493
118.482
139.656
157.289
170.773
180.016
185.237
187.318
187.085
185.197
182.384
179.575
0.239056
0.23811
0.237173
0.236247
0.235333
0.234437
0.233567
0.23275
0.232065
0.231704
0.231912
0.232813
0.240984
0.502851
3.96196
17.595
40.4051
66.2083
91.9632
116.47
138.303
156.433
170.272
179.692
184.922
186.801
186.288
184.061
180.933
177.861
0.239056
0.238111
0.237183
0.236279
0.235421
0.234635
0.23397
0.233496
0.233306
0.233422
0.233716
0.234176
0.235691
0.27022
0.845229
4.37438
15.467
38.9269
73.8717
109.85
138.709
161.974
182.391
200.627
217.199
232.513
246.838
260.142
271.909
279.925
0.239056
0.238111
0.237183
0.236278
0.235419
0.234632
0.233966
0.233495
0.233315
0.233441
0.233747
0.234263
0.238161
0.340988
1.56221
7.15162
21.6077
47.4086
80.914
113.804
141.036
163.617
183.643
201.661
218.147
233.479
247.901
261.363
273.296
281.462
0.239056
0.238112
0.237184
0.236278
0.235418
0.23463
0.233965
0.233506
0.233357
0.233513
0.233848
0.234509
0.244254
0.474168
2.5669
10.6839
29.093
57.2449
88.4224
117.226
142.22
164.034
183.565
201.301
217.684
233.058
247.629
261.317
273.495
281.882
0.239057
0.238113
0.237185
0.236279
0.235416
0.234627
0.233968
0.23353
0.233437
0.233643
0.234032
0.234989
0.25611
0.675446
3.81882
14.6974
36.6078
65.5595
93.6707
119.171
142.452
163.403
182.38
199.805
216.073
231.492
246.229
260.164
272.585
281.217
0.239057
0.238115
0.237186
0.236279
0.235414
0.234624
0.233972
0.233567
0.233562
0.233848
0.234334
0.235792
0.274957
0.944478
5.31179
18.9467
43.26
71.1256
96.4432
120.126
142.041
162.084
180.475
197.561
213.685
229.112
243.967
258.097
270.68
279.508
0.239058
0.238115
0.237187
0.236279
0.235412
0.234621
0.233978
0.233623
0.233728
0.234149
0.234821
0.236979
0.29995
1.27742
7.02228
23.2002
48.657
74.6423
98.4069
120.723
141.454
160.611
178.389
195.084
210.99
226.332
241.186
255.341
267.936
276.831
0.23906
0.238116
0.237187
0.236278
0.235409
0.234617
0.233986
0.233704
0.233924
0.234591
0.235616
0.23856
0.33009
1.6999
8.96908
27.4113
53.08
77.6429
100.369
121.574
141.274
159.576
176.702
192.914
208.47
223.557
238.213
252.137
264.517
273.281
0.239061
0.238119
0.237186
0.236277
0.235405
0.23461
0.233992
0.233795
0.23418
0.235289
0.236935
0.240843
0.373072
2.33317
11.4529
31.6485
57.1731
80.8274
102.821
123.161
142.005
159.54
175.933
191.504
206.529
221.128
235.282
248.682
260.553
268.947
0.239062
0.238122
0.23719
0.236275
0.235399
0.234598
0.233983
0.233857
0.234449
0.236056
0.238779
0.244346
0.444738
3.49193
14.7861
36.0937
61.0745
84.4153
105.947
125.695
143.893
160.663
176.281
191.095
205.398
219.235
232.543
245.097
256.138
263.906
0.239062
0.238122
0.237193
0.236277
0.235395
0.23458
0.233948
0.233831
0.234563
0.236572
0.240356
0.247685
0.528819
4.59694
17.6269
39.8693
64.811
88.1785
109.577
129.04
146.717
162.792
177.681
191.688
205.079
217.866
230.04
241.419
251.322
258.224
0.239061
0.238121
0.237191
0.236273
0.235386
0.234554
0.233881
0.233666
0.234339
0.23633
0.240256
0.248129
0.570018
5.26305
19.5181
42.6528
67.9576
91.6152
113.16
132.576
149.952
165.638
179.888
193.02
205.327
216.883
227.698
237.624
246.128
251.965
0.239061
0.23812
0.237186
0.236264
0.235371
0.234525
0.233794
0.233412
0.233814
0.235345
0.23836
0.245322
0.538235
5.05266
19.9842
44.1073
70.1083
94.2958
116.278
135.924
153.352
168.819
182.541
194.805
205.935
216.104
225.356
233.635
240.559
245.191
0.23906
0.238116
0.237179
0.23626
0.235361
0.234498
0.233713
0.233162
0.233264
0.234232
0.236217
0.242292
0.505578
4.31408
19.1105
44.2186
71.288
96.1922
118.872
139.069
156.779
172.135
185.401
196.814
206.721
215.374
222.919
229.409
234.648
238.013
0.239058
0.238112
0.237178
0.236256
0.235352
0.234476
0.233653
0.232975
0.232743
0.23322
0.234555
0.240026
0.464264
3.835
18.1209
43.7313
71.5994
97.2936
120.787
141.695
159.855
175.274
188.14
198.707
207.4
214.512
220.319
224.979
228.507
230.603
0.239056
0.238111
0.237177
0.236252
0.235346
0.234461
0.233616
0.232867
0.232412
0.232604
0.233517
0.238299
0.423946
3.37115
16.9018
42.4926
71.02
97.4687
121.794
143.515
162.285
177.93
190.5
200.29
207.797
213.421
217.537
220.439
222.322
223.206
0.239056
0.238111
0.237176
0.23625
0.235341
0.234453
0.233597
0.232817
0.232255
0.232275
0.232931
0.236885
0.381527
2.84946
15.2876
40.2985
69.1952
96.4514
121.567
144.168
163.718
179.835
192.351
201.498
207.898
212.129
214.683
215.959
216.347
216.133
0.239056
0.23811
0.237174
0.236247
0.235338
0.234448
0.23359
0.2328