/*--------------------------------*- C++ -*----------------------------------*\
| =========                 |                                                 |
| \\      /  F ield         | OpenFOAM: The Open Source CFD Toolbox           |
|  \\    /   O peration     | Version:  2512                                  |
|   \\  /    A nd           | Website:  www.openfoam.com                      |
|    \\/     M anipulation  |                                                 |
\*---------------------------------------------------------------------------*/
FoamFile
{
    version     2.0;
    format      ascii;
    arch        "LSB;label=32;scalar=64";
    class       volScalarField;
    location    "180";
    object      nut;
}
// * * * * * * * * * * * * * * * * * * * * * * * * * * * * * * * * * * * * * //

dimensions      [0 2 -1 0 0 0 0];

internalField   nonuniform List<scalar> 
84826
(
0.0144195
0.0141771
0.0139457
0.0137244
0.0135124
0.0133094
0.013115
0.0129288
0.0127515
0.0125816
0.0124204
0.0122632
0.0121176
0.0119828
0.0118475
0.0117154
0.0115849
0.0114578
0.0113345
0.0112147
0.0110982
0.0109849
0.0108749
0.010768
0.0106639
0.0105626
0.010464
0.0103678
0.0102741
0.0101827
0.0144195
0.0141771
0.0139457
0.0137246
0.0135128
0.01331
0.0131161
0.0129305
0.0127537
0.0125845
0.012424
0.0122675
0.0121226
0.0119883
0.0118532
0.0117211
0.0115903
0.0114629
0.0113393
0.0112193
0.0111025
0.0109891
0.0108789
0.0107717
0.0106675
0.010566
0.0104672
0.0103709
0.0102769
0.0101853
0.0144195
0.0141771
0.0139458
0.0137247
0.0135132
0.0133107
0.0131168
0.012932
0.0127566
0.0125887
0.0124299
0.0122746
0.0121314
0.0119986
0.011864
0.0117318
0.0116003
0.0114723
0.0113487
0.0112284
0.0111113
0.0109977
0.0108873
0.01078
0.0106756
0.010574
0.0104751
0.0103788
0.0102849
0.0101931
0.0144195
0.0141771
0.0139459
0.0137249
0.0135135
0.0133113
0.0131179
0.012934
0.01276
0.012594
0.012438
0.0122865
0.012146
0.0120142
0.0118805
0.0117484
0.0116162
0.0114876
0.0113634
0.0112426
0.0111251
0.0110111
0.0109002
0.0107925
0.0106877
0.0105857
0.0104864
0.0103896
0.0102952
0.0102031
0.0144195
0.0141772
0.0139459
0.013725
0.0135138
0.0133118
0.0131189
0.0129361
0.0127639
0.0126007
0.0124462
0.012321
0.0121858
0.0120333
0.0119013
0.0117693
0.0116363
0.0115068
0.0113822
0.0112612
0.0111438
0.01103
0.0109197
0.0108127
0.0107086
0.0106073
0.0105085
0.0104122
0.0103182
0.0102264
0.0144195
0.0141772
0.013946
0.013725
0.013514
0.0133123
0.0131199
0.0129383
0.0127684
0.0126053
0.0124535
0.0123137
0.0121816
0.0120546
0.0119255
0.0117942
0.0116612
0.0115376
0.0114238
0.0113185
0.0112207
0.0111281
0.0110378
0.0109476
0.0108562
0.0107629
0.0106678
0.0105712
0.010474
0.010377
0.0144195
0.0141771
0.0139459
0.0137251
0.0135142
0.0133127
0.0131211
0.0129407
0.0127711
0.0126102
0.0110112
0.0109602
0.0122226
0.0121945
0.0120927
0.0119983
0.0121159
0.0123381
0.0125975
0.0128636
0.0131068
0.0133012
0.0134336
0.0135027
0.0131837
0.0126998
0.0123458
0.0120028
0.0118248
0.0114592
0.0144195
0.0141771
0.0139459
0.0137252
0.0135143
0.0133132
0.0131222
0.0129426
0.0127718
0.012047
0.00480407
0.00366205
0.0047543
0.00501492
0.01173
0.0104801
0.0103071
0.0106272
0.0108889
0.0111249
0.0113878
0.0116266
0.0118488
0.0120326
0.012165
0.012242
0.0122607
0.0122396
0.0121418
0.0121179
0.0144195
0.0141771
0.0139458
0.0137252
0.0135144
0.0133135
0.0131231
0.012945
0.0127748
0.00822757
0.00313383
0.00228606
0.00307839
0.00752094
0.017246
0.0167963
0.0164961
0.0162409
0.0158399
0.0155162
0.0153742
0.0153665
0.0154627
0.0155982
0.0157293
0.0158247
0.0158638
0.0158436
0.0157437
0.0157453
0.0144195
0.014177
0.0139457
0.0137249
0.013514
0.0133132
0.0131232
0.0129443
0.0127737
0.00618569
0.00211257
0.000864891
0.00163889
0.0046779
0.0122955
0.013213
0.0151372
0.0168858
0.0181101
0.0189135
0.019521
0.0199952
0.0203377
0.0205648
0.0206926
0.0207286
0.0206592
0.0205333
0.0202323
0.0203303
0.0144195
0.0141769
0.0139455
0.0137247
0.0135137
0.013313
0.0131233
0.0129444
0.0127739
0.00616798
0.00199035
0.00127163
0.00289714
0.0132522
0.0124823
0.0140959
0.0155742
0.0165508
0.0171947
0.017714
0.0181697
0.0185733
0.0189505
0.0193265
0.0197023
0.020042
0.0203912
0.0204129
0.021533
0.0144195
0.014177
0.0139458
0.0137251
0.0135142
0.0133135
0.0131235
0.0129454
0.0127754
0.00814369
0.00253819
0.000901001
0.00116832
0.0028715
0.0105257
0.0112372
0.0123775
0.0135578
0.0143934
0.014931
0.0151371
0.0150599
0.0147524
0.0143236
0.0138841
0.0135204
0.0132759
0.0132376
0.0131582
0.0138943
0.0144195
0.0141771
0.0139461
0.0137255
0.0135146
0.0133136
0.0131227
0.0129434
0.0127729
0.0118147
0.00397825
0.00299423
0.0029446
0.00418552
0.00960395
0.0103636
0.011851
0.0127684
0.0126427
0.0125332
0.0123318
0.012164
0.0120121
0.0119035
0.0118006
0.0116942
0.0115787
0.0115814
0.0114162
0.0115452
0.0144195
0.0141772
0.0139461
0.0137254
0.0135146
0.0133132
0.0131218
0.0129417
0.0127723
0.0126122
0.0105817
0.00984221
0.0101451
0.011633
0.0120247
0.011893
0.0117708
0.0116549
0.0115418
0.0114263
0.011305
0.0111759
0.0110447
0.0109764
0.0109942
0.0111076
0.0113113
0.0115917
0.0119228
0.0114977
0.0144195
0.0141772
0.0139461
0.0137253
0.0135144
0.0133128
0.0131207
0.0129395
0.0127701
0.0126075
0.0124571
0.0123195
0.0121913
0.0120656
0.0119419
0.0118223
0.011701
0.0115814
0.0114632
0.0113432
0.0112198
0.0110979
0.010978
0.0108606
0.0107484
0.0106445
0.010552
0.0104745
0.0104146
0.0103717
0.0144195
0.0141772
0.013946
0.0137253
0.0135141
0.0133124
0.0131197
0.0129373
0.0127657
0.0126034
0.0124499
0.0123261
0.0121936
0.0120456
0.0119185
0.0117951
0.0116702
0.0115478
0.0114284
0.0113099
0.011192
0.0110751
0.0109594
0.0108447
0.0107314
0.0106219
0.0105159
0.0104135
0.0103147
0.0102195
0.0144195
0.0141772
0.013946
0.0137251
0.0135138
0.0133118
0.0131187
0.0129352
0.0127619
0.0125969
0.0124423
0.0122929
0.0121551
0.0120263
0.0118961
0.0117693
0.0116419
0.0115174
0.0113958
0.011276
0.0111573
0.0110403
0.0109246
0.0108112
0.010701
0.0105939
0.0104898
0.0103886
0.0102902
0.0101945
0.0144195
0.0141772
0.0139459
0.0137249
0.0135135
0.0133112
0.0131176
0.0129333
0.0127587
0.0125918
0.0124344
0.0122811
0.0121402
0.0120096
0.0118776
0.011749
0.0116205
0.011495
0.0113728
0.0112528
0.0111347
0.011019
0.0109054
0.0107943
0.0106854
0.0105791
0.0104759
0.0103757
0.0102782
0.0101834
0.0144195
0.0141771
0.0139458
0.0137247
0.013513
0.0133105
0.0131169
0.0129319
0.012756
0.012588
0.0124291
0.0122744
0.0121316
0.0119992
0.0118662
0.0117367
0.011608
0.0114822
0.0113595
0.0112394
0.0111217
0.0110065
0.0108939
0.0107837
0.0106759
0.0105703
0.0104677
0.0103679
0.0102709
0.0101766
0.0144195
0.0141771
0.0139458
0.0137245
0.0135127
0.0133099
0.013116
0.0129305
0.0127542
0.0125857
0.0124261
0.0122707
0.0121271
0.011994
0.0118605
0.0117306
0.0116016
0.0114756
0.0113527
0.0112326
0.0111148
0.0109997
0.0108872
0.0107772
0.0106696
0.0105645
0.0104623
0.010363
0.0102664
0.0101726
0.12312
0.114076
0.106854
0.100899
0.0958586
0.091499
0.0876704
0.084247
0.0810899
0.0782113
0.0756035
0.0732752
0.071201
0.0694138
0.067886
0.0665617
0.0653499
0.0642536
0.0632461
0.0623126
0.0614429
0.0606319
0.0598728
0.0591587
0.0584832
0.057844
0.057237
0.0566559
0.0560984
0.0555613
0.123119
0.114072
0.106847
0.100888
0.0958399
0.0914669
0.0876152
0.0841686
0.0809685
0.0780346
0.0753654
0.0729737
0.070853
0.0690322
0.067494
0.0661704
0.0649547
0.0638559
0.0628434
0.061906
0.0610338
0.0602212
0.0594624
0.0587505
0.0580803
0.057449
0.0568512
0.0562813
0.0557362
0.0552121
0.123122
0.114066
0.106837
0.100869
0.0958043
0.0914024
0.0874956
0.0840005
0.0807072
0.0776537
0.0748502
0.0723264
0.0701044
0.0682129
0.0666531
0.0653346
0.0641109
0.0630116
0.0619946
0.0610577
0.0601924
0.059394
0.0586566
0.057976
0.0573452
0.0567601
0.0562143
0.055701
0.0552151
0.0547528
0.123127
0.114061
0.106822
0.100841
0.0957545
0.0913135
0.0873392
0.0837515
0.0803097
0.0770598
0.0739882
0.0712544
0.0688249
0.0668003
0.0651958
0.0638758
0.062639
0.0615219
0.0604881
0.0595372
0.0586581
0.0578485
0.0571038
0.0564199
0.0557883
0.0552016
0.0546526
0.0541336
0.0536383
0.0531617
0.123125
0.114062
0.106806
0.100808
0.0956934
0.0912014
0.0871404
0.083418
0.0797623
0.0761695
0.0610442
0.0605061
0.0670251
0.0647109
0.0630131
0.0616424
0.0603161
0.0591067
0.0580105
0.0570284
0.0561427
0.0553551
0.0546648
0.0540654
0.053544
0.0530884
0.052686
0.052323
0.0519878
0.0516642
0.123122
0.114061
0.106796
0.100772
0.0956252
0.0910753
0.0869088
0.0830059
0.0790344
0.0580774
0.0392749
0.0452
0.0482197
0.0564997
0.0589677
0.0574748
0.0559691
0.0545455
0.0532389
0.0520514
0.0509682
0.0499908
0.0491243
0.0483597
0.047687
0.0470954
0.0465713
0.0461014
0.0456725
0.0452745
0.123121
0.114054
0.106787
0.100746
0.0955577
0.0909474
0.0866631
0.082514
0.0689769
0.0378778
0.0240783
0.024086
0.0322547
0.0314444
0.0388092
0.0456767
0.0438766
0.0422899
0.0409202
0.0397358
0.038717
0.0378588
0.0371503
0.0365768
0.0361191
0.0357586
0.0354756
0.0352507
0.0350628
0.034893
0.123119
0.114047
0.106773
0.100725
0.0955063
0.0908395
0.0864345
0.0819929
0.0482539
0.0235851
0.017055
0.0128856
0.0160341
0.0117363
0.0156226
0.0152852
0.0155972
0.0163555
0.0171577
0.0180153
0.0188869
0.0197549
0.0203781
0.0207685
0.0209967
0.0211077
0.0211756
0.0211327
0.0212277
0.0208688
0.123118
0.114041
0.106762
0.100701
0.095468
0.0907549
0.0862561
0.0801495
0.0361113
0.0142991
0.00803527
0.00466735
0.00695373
0.0134398
0.0265456
0.0281261
0.0298308
0.0314515
0.0329475
0.0328444
0.0318656
0.0311283
0.0305888
0.0301719
0.029844
0.0295962
0.0294074
0.0293681
0.0292122
0.0298683
0.123111
0.114029
0.106743
0.100674
0.0954285
0.0906898
0.0861425
0.0708228
0.0281483
0.0104877
0.0038946
0.00151094
0.00368546
0.0117266
0.022857
0.0249915
0.026371
0.027188
0.0277467
0.0281673
0.028485
0.0287266
0.0289226
0.0290957
0.0292699
0.0294669
0.0296908
0.029933
0.0302199
0.0304943
0.123105
0.114019
0.106731
0.100663
0.0954183
0.0907018
0.0861593
0.0706913
0.0280926
0.0104614
0.00362077
0.0027215
0.0246321
0.0274481
0.0296504
0.0312725
0.0325887
0.033696
0.0345992
0.0353025
0.0358137
0.0361363
0.0362592
0.036173
0.0359034
0.0354799
0.0349696
0.0343532
0.123105
0.114034
0.106746
0.100697
0.0954651
0.0907769
0.086287
0.0796834
0.0358215
0.0141689
0.00499872
0.0017866
0.00587564
0.00854125
0.0163294
0.0193917
0.0220515
0.0243953
0.0265161
0.0284962
0.0303915
0.0322804
0.0341935
0.0361529
0.0381449
0.0401223
0.0420074
0.0436292
0.0441904
0.0448347
0.123103
0.114049
0.106772
0.100736
0.0955213
0.0908623
0.0864695
0.0820505
0.0476236
0.0231995
0.0113757
0.00845585
0.00820032
0.00853836
0.0178897
0.0213663
0.0216922
0.0216434
0.0218198
0.0221776
0.0226731
0.0221624
0.0211913
0.0206585
0.0205181
0.0207286
0.021306
0.022163
0.0228196
0.02381
0.123111
0.114055
0.106794
0.100757
0.0955755
0.0909761
0.0867097
0.0825909
0.067912
0.0370307
0.0231585
0.0219166
0.0257004
0.0312495
0.037761
0.0468574
0.0530083
0.0524873
0.0517409
0.0507809
0.0496088
0.0481912
0.0464561
0.0443911
0.0421
0.0397663
0.0375343
0.0355315
0.0337777
0.0281109
0.123122
0.114064
0.106804
0.100785
0.0956471
0.0911107
0.0869652
0.0830963
0.0791764
0.0568423
0.0379377
0.0403592
0.0411552
0.0515985
0.0624112
0.0619228
0.0613933
0.0607665
0.0600521
0.0592311
0.0582624
0.0570729
0.0557426
0.0543087
0.0527952
0.051228
0.0496346
0.0480635
0.0465336
0.0450831
0.123125
0.114065
0.106814
0.100823
0.0957187
0.0912418
0.0872036
0.0835171
0.0799172
0.076408
0.0593954
0.0567871
0.0639693
0.0664595
0.0655727
0.0647977
0.0640106
0.0632074
0.062395
0.0615681
0.0607187
0.0598436
0.058938
0.0579929
0.056995
0.0559124
0.0547804
0.0536261
0.0524697
0.0513258
0.123127
0.114065
0.106831
0.100858
0.0957823
0.0913575
0.0874073
0.0838563
0.0804695
0.0773026
0.0743553
0.0718127
0.0696931
0.068182
0.0671037
0.0661205
0.0651751
0.0642443
0.0633343
0.0624378
0.0615488
0.0606633
0.0597708
0.0588536
0.0579064
0.0569459
0.0559843
0.0550355
0.0541068
0.0532058
0.123123
0.11407
0.106846
0.100886
0.095834
0.091449
0.0875669
0.0841086
0.0808688
0.0778934
0.0752037
0.0728434
0.0708678
0.0693269
0.0680998
0.066981
0.0659315
0.0649098
0.0639333
0.0629902
0.0620746
0.0611833
0.0603126
0.0594606
0.0586201
0.0577888
0.0569585
0.0561377
0.055333
0.0545495
0.12312
0.114076
0.106857
0.100907
0.0958708
0.0915152
0.0876887
0.0842787
0.0811309
0.0782712
0.0757053
0.0734551
0.071531
0.069971
0.0686661
0.0674774
0.0663782
0.0653029
0.0642893
0.0633206
0.0623888
0.0614904
0.060623
0.0597833
0.0589682
0.0581756
0.057394
0.0566243
0.0558721
0.0551421
0.123121
0.11408
0.106864
0.100918
0.0958901
0.0915482
0.0877449
0.084358
0.0812525
0.0784458
0.0759358
0.0737374
0.0718348
0.0702661
0.0689266
0.0677076
0.0665798
0.0654801
0.0644479
0.0634647
0.0625221
0.0616166
0.0607458
0.0599068
0.0590954
0.0583125
0.0575458
0.0567974
0.0560713
0.0553717
0.134469
0.133881
0.133114
0.132199
0.13116
0.130019
0.128812
0.127451
0.126047
0.124609
0.123153
0.121696
0.120201
0.118772
0.117441
0.116213
0.115072
0.113874
0.112759
0.111691
0.110659
0.109662
0.108698
0.107766
0.106858
0.105976
0.105126
0.104296
0.103484
0.10269
0.134469
0.133881
0.133113
0.132197
0.131156
0.130011
0.128794
0.127418
0.126003
0.124544
0.123065
0.121597
0.120042
0.11858
0.117227
0.115976
0.114822
0.11361
0.112479
0.111397
0.110353
0.109346
0.108376
0.107437
0.106527
0.105651
0.104807
0.103986
0.103186
0.102405
0.134469
0.13388
0.133112
0.132194
0.131149
0.129993
0.128746
0.127369
0.125925
0.124421
0.122892
0.121376
0.119735
0.118204
0.116802
0.115514
0.114306
0.113088
0.111933
0.110828
0.109769
0.108755
0.107783
0.106853
0.105961
0.105114
0.104301
0.103515
0.102751
0.102007
0.134469
0.13388
0.13311
0.13219
0.131139
0.129971
0.128694
0.127295
0.125802
0.12424
0.0994103
0.0977784
0.11922
0.117533
0.116037
0.114683
0.113391
0.112115
0.110899
0.109742
0.108638
0.107588
0.106582
0.105632
0.104728
0.103869
0.103044
0.102247
0.101469
0.100707
0.134469
0.13388
0.133108
0.132185
0.131128
0.129945
0.128638
0.127202
0.125652
0.0945566
0.0674602
0.0667452
0.0824378
0.107302
0.114183
0.112736
0.111308
0.109901
0.108568
0.107321
0.106156
0.10507
0.104067
0.103156
0.10232
0.101547
0.10082
0.100123
0.0994421
0.0987645
0.13447
0.13388
0.133107
0.132179
0.131115
0.129917
0.12858
0.1271
0.106729
0.0640376
0.0427271
0.0482762
0.0548079
0.0667224
0.0883822
0.107073
0.105373
0.10365
0.101992
0.100414
0.0989078
0.0974954
0.0961853
0.0949926
0.0939003
0.0928976
0.0919686
0.0910971
0.0902633
0.0894505
0.134469
0.13388
0.133107
0.132176
0.131102
0.129889
0.128524
0.127006
0.0756526
0.0411914
0.0256769
0.0259141
0.0349582
0.0372365
0.0515335
0.0779486
0.0839238
0.0809943
0.0784436
0.076225
0.0743073
0.0726678
0.0712854
0.0701282
0.0691567
0.0683397
0.0676433
0.067033
0.0664671
0.0658987
0.134469
0.133879
0.133106
0.132174
0.131094
0.12987
0.128478
0.107107
0.0527003
0.0252327
0.0180183
0.0129143
0.0219859
0.0180516
0.0203963
0.0278296
0.0268043
0.0259683
0.0254388
0.0250996
0.0248954
0.024795
0.0247716
0.0248045
0.0248785
0.0249829
0.0251109
0.0252579
0.0254098
0.0255628
0.134469
0.133879
0.133105
0.132171
0.131091
0.129858
0.128456
0.0868479
0.0387364
0.0151362
0.00773417
0.00412036
0.0100139
0.0086788
0.0168928
0.0172676
0.0176465
0.0179008
0.0180153
0.0180836
0.018183
0.018306
0.0184545
0.0186345
0.0188523
0.0191146
0.0194284
0.0198024
0.020246
0.0207708
0.134469
0.133878
0.133103
0.132169
0.131086
0.129848
0.12845
0.076423
0.0300783
0.0107123
0.00361822
0.00138268
0.019335
0.0128668
0.0169666
0.0175855
0.0179723
0.0181955
0.0183357
0.0184379
0.0185228
0.0186003
0.0186757
0.0187528
0.0188361
0.0189314
0.0190461
0.019188
0.0193698
0.0195932
0.134469
0.133878
0.133104
0.132167
0.131083
0.129846
0.12845
0.0762949
0.030018
0.0106974
0.00337089
0.0150427
0.0203719
0.0212176
0.0217494
0.0221076
0.0223943
0.022661
0.0229237
0.0231872
0.0234457
0.023688
0.0238973
0.0240564
0.0241522
0.0241743
0.0241318
0.0240022
0.134469
0.133878
0.133103
0.132171
0.131089
0.129857
0.128461
0.0863528
0.0384523
0.0150236
0.00477338
0.00177834
0.021143
0.0161742
0.0194907
0.019861
0.0201965
0.0206089
0.0211738
0.0219441
0.0229298
0.0241261
0.0254765
0.026914
0.0283219
0.029557
0.0304982
0.0310731
0.031287
0.0311346
0.134468
0.133879
0.133105
0.132176
0.131096
0.129875
0.12849
0.106065
0.0520566
0.0248537
0.0114141
0.00798109
0.0114873
0.0119712
0.0192284
0.0258027
0.0308886
0.0297633
0.0287442
0.027768
0.0268878
0.0261689
0.0256611
0.0253599
0.0252471
0.0252911
0.0254605
0.0257268
0.0260666
0.0264781
0.134469
0.13388
0.133109
0.132178
0.131106
0.129898
0.128542
0.127044
0.0745081
0.0403733
0.0249299
0.02408
0.0298633
0.0350923
0.0392275
0.0531382
0.078298
0.0905339
0.088318
0.0859207
0.0833265
0.0804873
0.0773798
0.0739207
0.0702219
0.0665011
0.0629371
0.059653
0.0566984
0.0540842
0.13447
0.13388
0.133109
0.132182
0.13112
0.129928
0.128601
0.127143
0.104919
0.062781
0.0414407
0.0445879
0.0477927
0.0582069
0.0671756
0.0820473
0.107195
0.109353
0.108213
0.10694
0.105516
0.103902
0.102044
0.100013
0.097836
0.0955644
0.0932303
0.0908997
0.0885993
0.0863951
0.13447
0.13388
0.133109
0.132188
0.131134
0.129958
0.128661
0.127247
0.125735
0.092655
0.0657719
0.0631928
0.0728414
0.0882555
0.0995879
0.115622
0.114616
0.113541
0.112429
0.111287
0.110115
0.108913
0.107682
0.106419
0.105114
0.103767
0.10235
0.100878
0.0993846
0.0978874
0.134469
0.13388
0.133111
0.132193
0.131146
0.129984
0.128719
0.127341
0.125885
0.124383
0.0972541
0.094364
0.112224
0.118683
0.117641
0.116603
0.115548
0.114456
0.113356
0.112248
0.111131
0.110009
0.108872
0.10772
0.106523
0.105301
0.104069
0.102828
0.101592
0.100373
0.134469
0.133881
0.133113
0.132198
0.131157
0.130007
0.128773
0.127416
0.126006
0.124556
0.123109
0.121715
0.12027
0.119026
0.117917
0.116835
0.115767
0.114668
0.113577
0.112489
0.111402
0.110318
0.109236
0.108156
0.107074
0.105988
0.104897
0.103807
0.10273
0.101663
0.134469
0.133881
0.133114
0.132201
0.131164
0.130026
0.128821
0.127466
0.126084
0.124674
0.123266
0.121896
0.120485
0.119227
0.118083
0.116975
0.115887
0.114789
0.113697
0.112615
0.111539
0.110471
0.109413
0.108361
0.107317
0.106277
0.10524
0.104207
0.103186
0.102183
0.134469
0.133881
0.133115
0.132203
0.131168
0.130034
0.128839
0.127499
0.126127
0.124737
0.123345
0.121975
0.120599
0.119337
0.118177
0.117056
0.115959
0.114855
0.113759
0.112675
0.1116
0.110535
0.109482
0.108441
0.107405
0.106374
0.105355
0.104347
0.103353
0.102385
0.134739
0.134632
0.13451
0.13437
0.134209
0.134025
0.133819
0.133584
0.133339
0.133084
0.132816
0.13251
0.132143
0.131741
0.131334
0.130932
0.130537
0.130114
0.129684
0.129253
0.128817
0.128377
0.127932
0.127484
0.127034
0.12658
0.126124
0.125666
0.125205
0.124745
0.134739
0.134632
0.13451
0.13437
0.134208
0.134025
0.133819
0.133585
0.133343
0.133096
0.132843
0.132564
0.13219
0.131788
0.13138
0.130974
0.130574
0.130144
0.129706
0.129267
0.128823
0.128374
0.127923
0.12747
0.127015
0.126557
0.126099
0.125641
0.125181
0.124724
0.134739
0.134632
0.13451
0.13437
0.134208
0.134025
0.133822
0.133588
0.133355
0.133131
0.132915
0.132689
0.13231
0.131912
0.131499
0.131084
0.130677
0.130219
0.129767
0.129313
0.128854
0.128394
0.127933
0.127472
0.127012
0.126552
0.126096
0.12564
0.125185
0.124731
0.134739
0.134632
0.13451
0.13437
0.134208
0.134025
0.133822
0.133598
0.133387
0.13321
0.11383
0.11195
0.132448
0.132051
0.131625
0.131188
0.130742
0.130254
0.129765
0.129274
0.12878
0.128285
0.127792
0.127303
0.126815
0.126331
0.125852
0.125374
0.124895
0.124416
0.134739
0.134632
0.13451
0.13437
0.134208
0.134026
0.133825
0.133619
0.133451
0.107607
0.0785829
0.0767188
0.0954097
0.126299
0.131083
0.130617
0.130111
0.129562
0.129003
0.128442
0.127882
0.12733
0.126788
0.126259
0.125741
0.125238
0.124744
0.124253
0.123763
0.123268
0.134739
0.134632
0.13451
0.13437
0.134209
0.134028
0.133835
0.133658
0.120686
0.0743196
0.0512929
0.0533666
0.0632845
0.0820579
0.11027
0.127506
0.126822
0.126052
0.125247
0.124423
0.123587
0.122752
0.121929
0.12113
0.120358
0.119618
0.118901
0.118199
0.117505
0.116813
0.134739
0.134632
0.13451
0.13437
0.13421
0.134032
0.133852
0.133726
0.0869237
0.0495462
0.0314244
0.0317978
0.0401589
0.050338
0.0672224
0.0944142
0.112768
0.110641
0.108597
0.106683
0.104915
0.103311
0.101893
0.100667
0.0996291
0.0987484
0.0979647
0.0972177
0.0964808
0.0957228
0.134739
0.134632
0.13451
0.13437
0.134211
0.134037
0.133876
0.121602
0.0628489
0.031042
0.0207702
0.0147501
0.0236031
0.0297669
0.031921
0.0455482
0.0571735
0.0546291
0.0525213
0.050799
0.0494105
0.0483483
0.047582
0.0470871
0.0468101
0.0466914
0.0466495
0.046623
0.0465775
0.0464561
0.134739
0.134632
0.134511
0.134371
0.134213
0.134042
0.133902
0.0997503
0.046988
0.0199093
0.00966145
0.0050854
0.0104709
0.015695
0.01443
0.0149445
0.0154253
0.0159084
0.0164162
0.0169455
0.0174991
0.0180724
0.0186616
0.019254
0.0198464
0.0204301
0.0210007
0.0215603
0.0221057
0.0226142
0.134739
0.134632
0.134511
0.134372
0.134215
0.134048
0.133923
0.0888227
0.0381147
0.0143951
0.00490219
0.00262699
0.0212545
0.0132554
0.0174429
0.0173327
0.017245
0.0171608
0.0170999
0.0170671
0.0170593
0.0170748
0.0171116
0.0171688
0.0172456
0.0173413
0.0174557
0.017588
0.0177405
0.0179071
0.134739
0.134632
0.134511
0.134371
0.134214
0.134048
0.133924
0.0886392
0.0380177
0.0143665
0.00446593
0.00168366
0.0334591
0.0192828
0.02058
0.0202622
0.0199761
0.0196779
0.0193984
0.0191512
0.0189418
0.0187744
0.0186509
0.018571
0.018532
0.0185296
0.0185586
0.0186132
0.0186926
0.0187828
0.134739
0.134632
0.13451
0.13437
0.134212
0.134043
0.133904
0.099096
0.0466394
0.0197249
0.00656513
0.00238312
0.0199437
0.0285233
0.0173882
0.0176324
0.0177643
0.0178307
0.0178645
0.0178872
0.0179274
0.0180273
0.0182065
0.0184461
0.018715
0.0189921
0.0192603
0.0195293
0.0198293
0.0201482
0.134739
0.134632
0.13451
0.13437
0.134212
0.134039
0.133879
0.120424
0.0620441
0.0305568
0.0139531
0.00934984
0.0150044
0.0180601
0.0283643
0.0397325
0.0550441
0.0528882
0.0510948
0.0494887
0.0479246
0.0462465
0.0444504
0.0426778
0.0410469
0.0395985
0.0383594
0.0373331
0.0365037
0.0358868
0.134739
0.134632
0.13451
0.13437
0.134211
0.134034
0.133857
0.133738
0.0855286
0.0486124
0.0305445
0.0298546
0.0357448
0.0453865
0.0506703
0.066239
0.095179
0.113181
0.111366
0.109453
0.107449
0.105344
0.103154
0.10086
0.0984856
0.096049
0.0935853
0.0911131
0.0886874
0.0863412
0.134739
0.134632
0.13451
0.13437
0.13421
0.13403
0.13384
0.133671
0.118534
0.0728335
0.0498328
0.0503627
0.0562193
0.0687263
0.0795567
0.0988626
0.128257
0.127771
0.127174
0.12648
0.125697
0.124827
0.123857
0.122776
0.121597
0.120337
0.119004
0.117618
0.116197
0.114775
0.134739
0.134632
0.13451
0.13437
0.13421
0.134028
0.133831
0.133631
0.133477
0.1053
0.0765616
0.07298
0.0846133
0.10214
0.119146
0.131498
0.13114
0.130704
0.130222
0.1297
0.129145
0.128559
0.127941
0.127294
0.126613
0.125894
0.125131
0.12433
0.123496
0.122642
0.134739
0.134632
0.13451
0.13437
0.134209
0.134027
0.133828
0.13361
0.133412
0.133255
0.111015
0.107758
0.127322
0.132414
0.13214
0.131819
0.131445
0.131027
0.130577
0.130101
0.129603
0.129084
0.128546
0.127987
0.127399
0.126781
0.12614
0.125479
0.124801
0.124116
0.134739
0.134632
0.13451
0.13437
0.13421
0.134028
0.133828
0.133601
0.133379
0.133172
0.13298
0.132786
0.132464
0.132154
0.131839
0.131501
0.131131
0.130733
0.130307
0.129861
0.129396
0.128915
0.128418
0.127907
0.127376
0.126827
0.126261
0.125681
0.12509
0.124493
0.134739
0.134632
0.13451
0.13437
0.13421
0.134028
0.133826
0.133598
0.133367
0.133135
0.132901
0.132644
0.132305
0.131962
0.131624
0.131276
0.130907
0.130513
0.130097
0.129663
0.129212
0.128746
0.128267
0.127775
0.12727
0.126749
0.126212
0.125664
0.125107
0.124547
0.134739
0.134632
0.13451
0.134371
0.13421
0.134029
0.133826
0.133598
0.133362
0.133122
0.132871
0.132583
0.132241
0.131883
0.131534
0.13118
0.130808
0.130416
0.130001
0.12957
0.129123
0.128663
0.128189
0.127704
0.127207
0.126694
0.126167
0.125631
0.125088
0.124546
0.134745
0.134655
0.134566
0.134475
0.134384
0.134293
0.134203
0.134119
0.134045
0.133988
0.133941
0.133881
0.133787
0.133667
0.133542
0.133417
0.133287
0.133153
0.133009
0.132861
0.132708
0.13255
0.132387
0.132219
0.132047
0.131869
0.131687
0.1315
0.131307
0.131113
0.134745
0.134655
0.134566
0.134475
0.134384
0.134294
0.134205
0.134123
0.134055
0.134009
0.133981
0.133943
0.133864
0.133755
0.133636
0.133514
0.133387
0.133254
0.13311
0.132962
0.132809
0.13265
0.132487
0.132318
0.132145
0.131967
0.131785
0.131597
0.131405
0.131212
0.134745
0.134655
0.134566
0.134475
0.134385
0.134295
0.134209
0.134133
0.13408
0.134062
0.134082
0.134095
0.134054
0.133968
0.133862
0.133746
0.133621
0.133487
0.133343
0.133194
0.133038
0.132878
0.132712
0.132541
0.132366
0.132187
0.132003
0.131814
0.131621
0.131426
0.134745
0.134655
0.134566
0.134476
0.134386
0.134298
0.134216
0.134151
0.134126
0.134166
0.134275
0.133242
0.134375
0.134318
0.134223
0.134107
0.133977
0.133831
0.133677
0.133516
0.133349
0.133176
0.132998
0.132816
0.132629
0.132438
0.132242
0.132042
0.131837
0.131629
0.134745
0.134655
0.134566
0.134476
0.134387
0.134301
0.134226
0.134181
0.134207
0.127614
0.0957823
0.0930389
0.114324
0.134346
0.134279
0.134168
0.134031
0.133867
0.133694
0.133512
0.133322
0.133125
0.132924
0.132718
0.132507
0.132293
0.132074
0.131849
0.131617
0.131379
0.134745
0.134655
0.134566
0.134477
0.134389
0.134306
0.134242
0.13423
0.134337
0.0913445
0.0645075
0.0632146
0.0776241
0.0992907
0.128147
0.132958
0.132796
0.132581
0.132338
0.132072
0.131785
0.131484
0.131172
0.130853
0.130526
0.130193
0.129855
0.129508
0.129151
0.128783
0.134745
0.134656
0.134566
0.134477
0.13439
0.134312
0.134263
0.134302
0.105763
0.0625696
0.0411229
0.046779
0.0525584
0.0670347
0.0865405
0.108289
0.127478
0.126958
0.126357
0.125696
0.124994
0.124276
0.123558
0.122849
0.122153
0.121465
0.120781
0.120097
0.11941
0.118715
0.134745
0.134656
0.134566
0.134478
0.134392
0.134319
0.134289
0.134394
0.0783796
0.0421908
0.025018
0.0232639
0.0320374
0.0419992
0.0591679
0.0832745
0.104282
0.104228
0.102294
0.100344
0.0984438
0.0966832
0.0951079
0.0937527
0.0926094
0.0916737
0.0908713
0.0901025
0.0893258
0.0885102
0.134745
0.134656
0.134567
0.134478
0.134394
0.134326
0.134314
0.120653
0.0610449
0.0292876
0.0165224
0.012058
0.0165336
0.0238635
0.03435
0.047992
0.0523858
0.0513893
0.0506342
0.050081
0.0496619
0.0493373
0.0491283
0.049014
0.0489844
0.0490334
0.0491456
0.0492456
0.0493306
0.0493773
0.134745
0.134656
0.134567
0.134479
0.134396
0.13433
0.134331
0.109093
0.051224
0.0228593
0.00993471
0.00664674
0.0108936
0.0185401
0.0224622
0.0227059
0.0229464
0.0231699
0.0234013
0.0236332
0.0238526
0.0240671
0.0242983
0.024539
0.0247846
0.0250382
0.0252951
0.0255668
0.0258648
0.0261861
0.134745
0.134656
0.134567
0.134479
0.134396
0.13433
0.134331
0.108901
0.0510986
0.0227769
0.0093259
0.00624197
0.0124125
0.015553
0.0210582
0.0211531
0.0212868
0.0214303
0.0216126
0.0218231
0.0220657
0.0223372
0.0226467
0.0229841
0.023348
0.0237267
0.024114
0.0244985
0.0248771
0.0252485
0.134745
0.134656
0.134566
0.134478
0.134394
0.134326
0.134315
0.11998
0.0605848
0.0289772
0.0123602
0.0077606
0.0133269
0.0218554
0.0326088
0.0465298
0.0464747
0.0452252
0.0442514
0.0434692
0.0428303
0.0423177
0.0419415
0.041707
0.0416233
0.0416729
0.0418474
0.0421216
0.0424899
0.042926
0.134745
0.134656
0.134566
0.134478
0.134393
0.13432
0.134291
0.1344
0.077395
0.0414957
0.0244355
0.0221549
0.0291378
0.0387751
0.0509682
0.0703708
0.0966282
0.102703
0.100409
0.0981573
0.0959303
0.0937031
0.0914269
0.0890232
0.0863744
0.0836417
0.0809819
0.0785066
0.0762806
0.0744066
0.134745
0.134656
0.134566
0.134477
0.134391
0.134313
0.134265
0.134308
0.104226
0.0614513
0.0399267
0.0441055
0.047247
0.0580901
0.069569
0.0853112
0.111203
0.12719
0.126635
0.125945
0.125143
0.124249
0.123272
0.122219
0.121085
0.119873
0.118592
0.117253
0.115874
0.1145
0.134745
0.134655
0.134566
0.134477
0.134389
0.134307
0.134244
0.134236
0.134351
0.0896475
0.0627759
0.0600548
0.0693039
0.0828236
0.0983032
0.12456
0.133077
0.132929
0.132727
0.132477
0.132183
0.131849
0.13148
0.131071
0.130618
0.130121
0.129586
0.129015
0.128413
0.127793
0.134745
0.134655
0.134566
0.134476
0.134387
0.134302
0.134229
0.134188
0.13422
0.124768
0.0933377
0.0888144
0.102179
0.120726
0.134482
0.134447
0.134347
0.134205
0.134035
0.133842
0.133629
0.133401
0.133161
0.132908
0.132643
0.132364
0.132068
0.131756
0.131426
0.131085
0.134745
0.134655
0.134566
0.134476
0.134386
0.134299
0.134219
0.134157
0.134138
0.134187
0.131623
0.127845
0.134445
0.134439
0.134395
0.134317
0.134205
0.134068
0.133913
0.133743
0.133561
0.133368
0.133167
0.132958
0.13274
0.13251
0.132268
0.132015
0.131752
0.131483
0.134745
0.134655
0.134566
0.134476
0.134386
0.134297
0.134212
0.13414
0.134092
0.134082
0.13411
0.134132
0.134104
0.134042
0.133965
0.133874
0.133763
0.133634
0.133491
0.133337
0.133173
0.133
0.132819
0.132631
0.132435
0.132231
0.132017
0.131794
0.131563
0.131327
0.134745
0.134655
0.134566
0.134476
0.134385
0.134296
0.134208
0.13413
0.134068
0.134028
0.134007
0.133973
0.133899
0.133802
0.133703
0.133599
0.133483
0.133353
0.133213
0.133062
0.132903
0.132736
0.132561
0.13238
0.132191
0.131995
0.131791
0.131578
0.131358
0.131135
0.134745
0.134656
0.134566
0.134476
0.134385
0.134295
0.134207
0.134126
0.134057
0.134007
0.133965
0.133908
0.133814
0.133701
0.133591
0.13348
0.133361
0.13323
0.133088
0.132938
0.132779
0.132613
0.13244
0.13226
0.132074
0.131879
0.131677
0.131467
0.131251
0.131033
0.134745
0.134656
0.134568
0.13448
0.134393
0.134308
0.134226
0.134153
0.134091
0.134045
0.13401
0.13397
0.133909
0.133835
0.133758
0.133682
0.133605
0.133526
0.133444
0.13336
0.133274
0.133187
0.133098
0.133007
0.132914
0.13282
0.132724
0.132626
0.132525
0.132425
0.134745
0.134656
0.134568
0.13448
0.134393
0.134308
0.134228
0.134156
0.1341
0.134062
0.134041
0.134017
0.133971
0.133906
0.133835
0.133764
0.13369
0.133613
0.133533
0.133452
0.133368
0.133282
0.133195
0.133105
0.133014
0.132921
0.132826
0.132729
0.13263
0.132532
0.134745
0.134656
0.134568
0.13448
0.134393
0.13431
0.134231
0.134165
0.134119
0.134104
0.134118
0.134135
0.134121
0.134077
0.134021
0.133958
0.13389
0.133817
0.133742
0.133663
0.133583
0.1335
0.133415
0.133328
0.133238