/*--------------------------------*- C++ -*----------------------------------*\
| =========                 |                                                 |
| \\      /  F ield         | OpenFOAM: The Open Source CFD Toolbox           |
|  \\    /   O peration     | Version:  2512                                  |
|   \\  /    A nd           | Website:  www.openfoam.com                      |
|    \\/     M anipulation  |                                                 |
\*---------------------------------------------------------------------------*/
FoamFile
{
    version     2.0;
    format      ascii;
    arch        "LSB;label=32;scalar=64";
    class       volScalarField;
    location    "180";
    object      nut;
}
// * * * * * * * * * * * * * * * * * * * * * * * * * * * * * * * * * * * * * //

dimensions      [0 2 -1 0 0 0 0];

internalField   nonuniform List<scalar> 
90398
(
0.0144199
0.0141785
0.0139492
0.0137294
0.0135204
0.0133203
0.0131245
0.0129559
0.0127864
0.0126319
0.0124897
0.0123565
0.0122407
0.0108754
0.00908183
0.00763216
0.00713178
0.014124
0.0329621
0.0614019
0.0966123
0.127313
0.150319
0.167036
0.179369
0.188812
0.196358
0.202799
0.208449
0.214573
0.0144199
0.0141786
0.0139492
0.0137296
0.0135206
0.0133209
0.0131265
0.0129575
0.0127885
0.0126354
0.0124917
0.0123588
0.0122439
0.0108791
0.00911947
0.00775355
0.00904026
0.0226591
0.0438086
0.0726039
0.104045
0.13094
0.151555
0.166942
0.178565
0.187631
0.194993
0.201346
0.206997
0.213068
0.01442
0.0141787
0.0139496
0.0137301
0.0135218
0.013323
0.0131315
0.0129592
0.0127904
0.0126382
0.0124957
0.0123635
0.01225
0.0108641
0.00917555
0.0080581
0.012768
0.0292297
0.0536684
0.0825955
0.11039
0.133469
0.151502
0.165387
0.176193
0.184842
0.192023
0.198319
0.203994
0.210061
0.0144201
0.0141789
0.0139497
0.0137311
0.0135236
0.0133258
0.0131338
0.0129575
0.0127936
0.0126431
0.012502
0.0123727
0.0122608
0.0108895
0.0093166
0.00872324
0.0174397
0.035473
0.0616482
0.0890164
0.113271
0.133329
0.149349
0.162053
0.172228
0.180586
0.187682
0.194004
0.199756
0.205837
0.0144201
0.0141791
0.0139498
0.0137322
0.0135258
0.0133303
0.0131381
0.01296
0.0127985
0.0126483
0.0125068
0.0124047
0.0121766
0.0110095
0.00963427
0.00985221
0.020146
0.039925
0.0655168
0.0901332
0.111767
0.129903
0.144735
0.156805
0.166718
0.175037
0.182222
0.188693
0.194609
0.200714
0.0144204
0.0141792
0.0139501
0.0137325
0.0135262
0.0133353
0.013156
0.0129669
0.0128031
0.012672
0.0125254
0.0121111
0.011558
0.0112931
0.0103241
0.011432
0.0218282
0.0406592
0.063141
0.0853014
0.105397
0.122766
0.137377
0.149554
0.159744
0.168411
0.17595
0.182737
0.188915
0.195073
0.0144207
0.0141799
0.0139509
0.0137338
0.0135268
0.0133366
0.0131604
0.0129736
0.0128082
0.01265
0.0106075
0.0102418
0.0106079
0.0115262
0.0116099
0.0136225
0.0216148
0.0356254
0.0540864
0.0741838
0.0938184
0.111689
0.127244
0.140468
0.151632
0.161126
0.169325
0.176599
0.183111
0.189299
0.0144207
0.0141807
0.0139547
0.0137422
0.0135327
0.0133345
0.0131597
0.0129819
0.0128063
0.00582332
0.00428692
0.00401208
0.00436231
0.00506673
0.011467
0.0193256
0.0273571
0.0356975
0.0475708
0.0633393
0.0815479
0.0999675
0.116916
0.131648
0.144111
0.154596
0.163492
0.171188
0.177913
0.183957
0.0144208
0.0141809
0.0139562
0.0137478
0.0135423
0.0133379
0.0131537
0.0129732
0.00638901
0.00350569
0.00300604
0.00343602
0.00548808
0.00537002
0.0427457
0.0479044
0.0497596
0.0524015
0.0573386
0.0665197
0.0803884
0.0969297
0.113471
0.128347
0.141024
0.151618
0.160476
0.167955
0.174404
0.179839
0.0144208
0.0141805
0.0139534
0.0137426
0.0135414
0.0133379
0.013147
0.0129672
0.00639322
0.00138765
0.0036926
0.00566211
0.0108935
0.0105581
0.0464924
0.0534149
0.0592122
0.0592105
0.0640275
0.0742369
0.0885856
0.104516
0.11977
0.133159
0.144396
0.153673
0.161341
0.167803
0.173324
0.177809
0.0144208
0.0141804
0.0139533
0.0137423
0.0135407
0.0133368
0.0131449
0.012964
0.006391
0.00108324
0.00975389
0.0140242
0.0112749
0.0383166
0.0479114
0.0527427
0.0586327
0.0706476
0.0864983
0.103297
0.118847
0.132153
0.143073
0.151883
0.158985
0.164766
0.169608
0.173719
0.176903
0.0144207
0.0141807
0.0139558
0.0137468
0.0135404
0.0133345
0.0131476
0.0129644
0.00638307
0.00302068
0.00141537
0.00730039
0.00958652
0.00921984
0.0246796
0.0327564
0.0438627
0.0619893
0.0828878
0.102691
0.119604
0.133295
0.144106
0.152537
0.159114
0.164264
0.168336
0.171678
0.174415
0.176295
0.0144207
0.0141805
0.013954
0.0137407
0.0135298
0.0133293
0.0131501
0.0129673
0.0127781
0.006296
0.00485989
0.00456086
0.00430141
0.0037129
0.0143964
0.0251865
0.0474327
0.073065
0.0964565
0.115819
0.13118
0.143091
0.152234
0.159169
0.164383
0.168271
0.171135
0.173314
0.174899
0.175616
0.0144206
0.0141795
0.0139499
0.0137318
0.0135231
0.01333
0.0131485
0.0129529
0.0127769
0.0125944
0.0124268
0.0122805
0.0110977
0.0100002
0.0130606
0.0242862
0.0514537
0.0794863
0.103475
0.122593
0.137418
0.14873
0.157251
0.163542
0.168057
0.171173
0.173187
0.174456
0.175083
0.174782
0.0144203
0.0141788
0.0139491
0.0137303
0.013522
0.013328
0.0131431
0.0129445
0.0127672
0.0126184
0.0124447
0.0122831
0.012165
0.0120785
0.0124921
0.0214377
0.0499422
0.0803425
0.105586
0.125304
0.140402
0.151823
0.160309
0.166424
0.170619
0.173259
0.174652
0.175183
0.174998
0.173803
0.01442
0.0141787
0.0139487
0.0137299
0.0135215
0.0133226
0.0131246
0.0129372
0.0127608
0.0125905
0.0124256
0.0123013
0.0121809
0.0120663
0.0122382
0.0190748
0.0458096
0.0785213
0.10515
0.125777
0.141514
0.153386
0.162143
0.168336
0.172403
0.17473
0.17566
0.175585
0.174706
0.172734
0.01442
0.0141786
0.0139488
0.013729
0.0135194
0.0133182
0.0131206
0.0129353
0.0127573
0.0125861
0.0124243
0.0122797
0.012157
0.0120603
0.0121197
0.0171653
0.0413245
0.0754146
0.103143
0.124708
0.141244
0.153771
0.162998
0.169448
0.173537
0.175677
0.17626
0.175714
0.174267
0.171641
0.01442
0.0141784
0.0139488
0.0137282
0.0135179
0.0133158
0.0131189
0.0129384
0.0127573
0.0125882
0.012428
0.0122809
0.0121567
0.0120555
0.0120469
0.015557
0.0366433
0.0713535
0.0999204
0.122408
0.139839
0.153159
0.163009
0.169846
0.174083
0.176154
0.1765
0.175624
0.173745
0.170604
0.0144199
0.0141784
0.0139486
0.013728
0.0135171
0.0133143
0.0131148
0.0129382
0.0127583
0.0125904
0.0124301
0.0122821
0.0121558
0.0120498
0.012001
0.0142858
0.0321326
0.0665291
0.0957556
0.119152
0.137531
0.151719
0.162281
0.169597
0.174072
0.17618
0.176391
0.175355
0.173205
0.169713
0.01442
0.0141784
0.0139487
0.013728
0.0135172
0.0133142
0.0131134
0.0129376
0.0127576
0.0125891
0.0124304
0.0122812
0.0121525
0.0120438
0.0119733
0.0133856
0.0283267
0.0621957
0.0916648
0.11571
0.134916
0.149898
0.161103
0.168876
0.17361
0.175823
0.176082
0.175024
0.172773
0.169107
0.123162
0.114184
0.107045
0.101194
0.0962979
0.0921493
0.0885028
0.0853948
0.0827039
0.0804066
0.0783827
0.0766059
0.0750117
0.0736434
0.0726844
0.069253
0.13718
0.441592
0.856503
1.27127
1.68549
1.79946
1.81277
1.8042
1.79495
1.78959
1.79046
1.79697
1.80828
1.82207
0.123162
0.114184
0.107043
0.101192
0.0963017
0.0921372
0.0884515
0.0853166
0.0825937
0.0802723
0.078257
0.0764997
0.0749088
0.0735733
0.073291
0.0822074
0.24319
0.713081
1.12525
1.45275
1.69147
1.77026
1.783
1.77949
1.77439
1.77289
1.77658
1.7853
1.79839
1.81318
0.123162
0.11418
0.107037
0.10118
0.0962958
0.0921009
0.0883501
0.0851565
0.0823685
0.0799674
0.0779491
0.0762164
0.0746516
0.0734232
0.074992
0.109162
0.37043
0.888683
1.26735
1.54128
1.68027
1.72531
1.73733
1.73916
1.73967
1.74334
1.75102
1.76293
1.7785
1.79482
0.123161
0.114175
0.107028
0.101161
0.0962702
0.0920434
0.0882063
0.0849121
0.0820013
0.0794232
0.0773284
0.0756818
0.0741784
0.07322
0.0788441
0.148707
0.489961
1.01547
1.36615
1.55823
1.63511
1.66748
1.68219
1.68943
1.69639
1.7054
1.71758
1.73323
1.75162
1.76963
0.123161
0.11417
0.107014
0.101134
0.0962464
0.0920203
0.0880568
0.0845927
0.0814226
0.0703161
0.0659102
0.0750268
0.0736337
0.0731976
0.086209
0.191141
0.574018
1.06709
1.36774
1.49636
1.55968
1.59492
1.61634
1.63198
1.64634
1.66157
1.67889
1.69867
1.72003
1.73957
0.123158
0.114164
0.107002
0.101107
0.0961994
0.0921172
0.0880303
0.0841713
0.0726072
0.0521375
0.0506514
0.0686082
0.0723885
0.0727165
0.0951719
0.219189
0.597729
0.988095
1.22064
1.35361
1.43703
1.49285
1.53217
1.56295
1.58889
1.61292
1.63678
1.66124
1.68552
1.70615
0.123166
0.114167
0.107036
0.101139
0.0960999
0.0920189
0.088089
0.0836207
0.0521961
0.0342721
0.0326941
0.0403642
0.0657259
0.069779
0.0929934
0.190494
0.392555
0.649471
0.883925
1.07336
1.22014
1.33039
1.41268
1.4742
1.52138
1.55954
1.59245
1.62232
1.64925
1.6702
0.123177
0.114208
0.107116
0.101328
0.0959539
0.0915783
0.0877189
0.0712903
0.034216
0.0224846
0.0201007
0.0215324
0.0394666
0.0332404
0.0672697
0.107742
0.178107
0.294775
0.465682
0.677021
0.896399
1.09282
1.24878
1.36326
1.44463
1.50322
1.54747
1.5828
1.61128
1.63141
0.12318
0.114221
0.10713
0.101322
0.0959825
0.0911419
0.0869334
0.0575924
0.0284596
0.0104152
0.0136283
0.00742708
0.0212096
0.0170917
0.0901267
0.10892
0.13213
0.176515
0.267155
0.426215
0.648639
0.892491
1.10775
1.26965
1.38094
1.45571
1.50737
1.54433
1.57022
1.58786
0.12318
0.114197
0.107132
0.101332
0.0962519
0.0911872
0.0866535
0.0495434
0.0195897
0.00542864
0.00467442
0.00542681
0.0323805
0.0615691
0.0583884
0.0695443
0.0936394
0.145875
0.250517
0.425365
0.659496
0.906235
1.11591
1.26827
1.36999
1.43661
1.48154
1.51131
1.52939
1.53686
0.123181
0.1142
0.107134
0.101333
0.0962492
0.0911836
0.086644
0.0521773
0.0178509
0.00351435
0.00708644
0.0537152
0.0746416
0.120174
0.218882
0.395386
0.637137
0.889034
1.09709
1.24455
1.34094
1.40246
1.44248
1.47013
1.48685
1.49343
1.48864
0.123182
0.114231
0.107137
0.101325
0.096011
0.0911951
0.0869772
0.067706
0.0257809
0.00724004
0.00622619
0.0026558
0.015243
0.0414191
0.0902075
0.156504
0.308932
0.562838
0.840772
1.06698
1.22217
1.3226
1.3834
1.42029
1.44265
1.45654
1.46616
1.46778
1.4617
1.4441
0.123181
0.114223
0.107126
0.101332
0.0960057
0.0916678
0.0878171
0.0827106
0.0404275
0.0172792
0.0147615
0.0108654
0.0178038
0.0164042
0.17177
0.449662
0.81852
1.09802
1.26887
1.36846
1.42385
1.45455
1.46833
1.47324
1.47254
1.46831
1.46361
1.45183
1.43366
1.40351
0.123171
0.114189
0.107082
0.101217
0.0962186
0.0921172
0.0882281
0.0837649
0.0729074
0.0399152
0.0304055
0.0280619
0.0313787
0.041477
0.213439
0.5839
1.15972
1.36959
1.46198
1.50392
1.52092
1.52321
1.51739
1.50661
1.49222
1.47609
1.46034
1.43722
1.40806
1.36614
0.123165
0.11419
0.107059
0.101204
0.0963585
0.0922395
0.0882352
0.0844289
0.0808429
0.0730364
0.0527659
0.0449138
0.0427749
0.0505181
0.153802
0.490998
1.14086
1.47296
1.54407
1.56735
1.57111
1.56363
1.54854
1.52877
1.50539
1.48043
1.45579
1.42327
1.38411
1.33148
0.123169
0.114201
0.10708
0.101252
0.0964245
0.0922755
0.0884102
0.0850591
0.0820584
0.0794221
0.0775192
0.0635353
0.0534883
0.0520047
0.109519
0.394954
1.01833
1.51227
1.58052
1.59967
1.59957
1.58898
1.56993
1.54452
1.51485
1.48247
1.4501
1.40961
1.36166
1.29952
0.123171
0.11421
0.107104
0.101294
0.0964352
0.0923041
0.0886009
0.0854804
0.0827734
0.0804302
0.0784684
0.0769486
0.0626343
0.0536417
0.0865366
0.318763
0.889968
1.52084
1.59409
1.61514
1.61615
1.60524
1.58519
1.55607
1.52128
1.4831
1.44442
1.39643
1.34083
1.27059
0.123172
0.114219
0.107119
0.101319
0.0964551
0.0923316
0.0887487
0.0856552
0.0829523
0.0806213
0.0786821
0.0771327
0.0698325
0.0546748
0.0702231
0.253355
0.763192
1.50745
1.59226
1.61937
1.62422
1.61547
1.59523
1.56453
1.52569
1.48278
1.43932
1.38453
1.32227
1.24545
0.123173
0.114225
0.107128
0.101323
0.096463
0.092342
0.0887884
0.0856991
0.0830112
0.0807002
0.0787746
0.0772425
0.0738308
0.054843
0.0591471
0.197598
0.643099
1.46695
1.57739
1.61518
1.62603
1.62057
1.60135
1.5699
1.52864
1.48216
1.4351
1.3744
1.30716
1.22529
0.123175
0.114228
0.107132
0.101324
0.0964668
0.0923482
0.0887987
0.0857161
0.08304
0.0807444
0.0788315
0.0773037
0.0745167
0.0543485
0.0521078
0.149621
0.528994
1.42782
1.55717
1.60563
1.62376
1.62212
1.60423
1.57236
1.53012
1.48165
1.43141
1.36703
1.29742
1.21206
0.13447
0.133889
0.133137
0.132254
0.131271
0.130224
0.129143
0.128069
0.127051
0.11927
0.104618
0.0991315
0.0966936
0.0903131
0.0794319
0.112392
0.382518
0.819432
1.2905
2.10487
3.56998
4.78098
4.6275
4.49524
4.39278
4.32212
4.27527
4.25007
4.2396
4.23379
0.13447
0.133889
0.133137
0.132255
0.131267
0.130218
0.12913
0.128048
0.127021
0.115856
0.102208
0.0990579
0.0993885
0.0931382
0.0862041
0.185791
0.617005
1.20016
1.83739
2.75057
4.10447
4.65239
4.53085
4.41994
4.33437
4.27401
4.23603
4.21765
4.2124
4.20996
0.134471
0.133889
0.133137
0.132255
0.13126
0.130204
0.129104
0.128006
0.126962
0.108028
0.0962651
0.0976938
0.104855
0.0994291
0.103051
0.28794
0.808146
1.49275
2.4245
3.67716
4.53582
4.4768
4.38606
4.30261
4.23873
4.19303
4.16778
4.15911
4.16123
4.16356
0.134471
0.133889
0.133136
0.132253
0.131251
0.130184
0.129066
0.127942
0.122275
0.0956591
0.0860367
0.094254
0.11462
0.112576
0.133522
0.39511
0.953393
1.77464
3.06441
4.26101
4.30343
4.26727
4.20897
4.15651
4.11506
4.08868
4.0785
4.0816
4.09248
4.10035
0.134471
0.133888
0.133135
0.13225
0.131276
0.130151
0.129009
0.127848
0.105217
0.0788246
0.0717592
0.0864139
0.122941
0.130016
0.171698
0.487749
1.07767
2.05864
3.63086
3.91937
3.9944
4.00602
3.99511
3.97938
3.96716
3.96475
3.97271
3.98954
4.01015
4.02375
0.134471
0.133889
0.133136
0.132247
0.131276
0.130107
0.12894
0.127729
0.0846849
0.0585888
0.054142
0.0730776
0.113782
0.129271
0.205431
0.55061
1.1678
2.27216
3.06512
3.37335
3.5516
3.65722
3.72233
3.76224
3.79347
3.82272
3.85341
3.88617
3.91703
3.93603
0.134471
0.133889
0.133144
0.132257
0.131264
0.130126
0.128882
0.109153
0.0611348
0.0421339
0.0351791
0.0432049
0.0702593
0.0937139
0.193489
0.454278
0.982746
1.59657
2.14387
2.58791
2.93266
3.18854
3.37147
3.50039
3.59423
3.666
3.72463
3.77482
3.81542
3.83858
0.134472
0.133892
0.133143
0.132255
0.131279
0.13011
0.128779
0.086192
0.0440205
0.0253935
0.0254958
0.0220541
0.0427849
0.0451584
0.166499
0.271625
0.484959
0.825014
1.26678
1.75844
2.24026
2.65741
2.98315
3.22191
3.39046
3.50941
3.59593
3.66094
3.70767
3.732
0.134472
0.133894
0.133151
0.13223
0.131248
0.130068
0.128728
0.0726342
0.0385886
0.0159428
0.0133843
0.00522608
0.0273235
0.0537478
0.208028
0.233769
0.310928
0.488446
0.804635
1.25025
1.77366
2.28236
2.70711
3.02224
3.23964
3.38568
3.48471
3.5526
3.59612
3.61577
0.134473
0.133892
0.13315
0.132263
0.131254
0.130059
0.12875
0.0637322
0.0281371
0.00887308
0.00583474
0.00557974
0.0274442
0.0800969
0.107045
0.143321
0.22712
0.40451
0.730644
1.2068
1.7637
2.28977
2.70854
3.00426
3.19921
3.32468
3.40605
3.45657
3.48376
3.48867
0.134473
0.133892
0.13315
0.132263
0.131255
0.130057
0.12873
0.0670759
0.0269249
0.00608372
0.00547229
0.0356789
0.11287
0.165952
0.301973
0.596224
1.07977
1.66766
2.22408
2.6538
2.9481
3.13433
3.24746
3.31529
3.35626
3.37564
3.3778
3.36214
0.134472
0.133894
0.13315
0.132231
0.131248
0.130057
0.128671
0.0862466
0.0354409
0.0123753
0.0102475
0.00407888
0.0108237
0.0662326
0.249604
0.405085
0.802241
1.41153
2.04703
2.55736
2.90608
3.11715
3.23553
3.29473
3.31844
3.32404
3.32016
3.30452
3.2785
3.24009
0.134472
0.133893
0.133144
0.132258
0.131276
0.130097
0.128712
0.117877
0.053003
0.0265735
0.017422
0.0107435
0.021709
0.0551867
0.39005
1.00221
1.88028
2.60085
3.05286
3.29763
3.41267
3.44855
3.44111
3.41142
3.37042
3.32843
3.2861
3.23821
3.18494
3.12402
0.134471
0.13389
0.133147
0.132264
0.131273
0.130125
0.128831
0.127398
0.0872424
0.0497512
0.0333779
0.0294928
0.033299
0.0785304
0.5198
1.14087
2.51207
3.45874
3.66516
3.71924
3.69842
3.64122
3.56513
3.482
3.39953
3.32251
3.24948
3.17438
3.0962
3.01423
0.134471
0.133891
0.133141
0.132257
0.131277
0.130104
0.128903
0.127585
0.126181
0.0813885
0.0559063
0.0466907
0.0439793
0.0733632
0.362685
0.943245
2.27551
3.87674
3.96296
3.93271
3.8512
3.74781
3.6369
3.52191
3.41158
3.30812
3.21115
3.11229
3.01232
2.91139
0.134471
0.13389
0.133141
0.132263
0.131282
0.130162
0.129006
0.127787
0.126549
0.125483
0.0874101
0.0636301
0.0530735
0.0677593
0.275677
0.804842
2.01413
4.03031
4.09066
4.03506
3.93269
3.8094
3.67809
3.54444
3.41283
3.2889
3.17266
3.05336
2.93435
2.81671
0.134471
0.133891
0.133143
0.132266
0.131272
0.130213
0.129093
0.127941
0.126789
0.125716
0.12333
0.0812968
0.0611839
0.0640805
0.217668
0.690558
1.77447
4.03966
4.12951
4.07828
3.97339
3.84469
3.70227
3.55638
3.40953
3.26858
3.13558
2.99959
2.86422
2.73238
0.134471
0.133892
0.133145
0.132267
0.131282
0.130228
0.129118
0.127974
0.126829
0.125746
0.124823
0.095225
0.0672989
0.0605284
0.168647
0.58023
1.54527
3.66806
4.11511
4.08557
3.98917
3.86227
3.71688
3.56153
3.40431
3.25056
3.10337
2.95319
2.80469
2.66153
0.134471
0.133892
0.133146
0.132268
0.131287
0.130233
0.129126
0.127988
0.126851
0.125773
0.124841
0.103443
0.0706885
0.0575686
0.128478
0.47354
1.33329
3.29941
4.06773
4.07084
3.98911
3.86786
3.72427
3.56458
3.39908
3.23771
3.07924
2.9181
2.75972
2.60821
0.134471
0.133893
0.133146
0.132268
0.131289
0.130235
0.12913
0.127996
0.126864
0.125793
0.124863
0.105316
0.0712569
0.0554917
0.0970279
0.369596
1.16662
3.07253
3.99686
4.03648
3.97969
3.86957
3.72777
3.56784
3.39777
3.23298
3.06686
2.89906
2.73531
2.57866
0.134739
0.134633
0.134515
0.134384
0.134245
0.134101
0.13397
0.133871
0.133833
0.122919
0.10704
0.0995553
0.0955398
0.0881398
0.0909175
0.252068
0.700096
1.15154
1.8651
3.34873
5.94555
7.4522
7.25781
7.08042
6.93546
6.825
6.75038
6.70197
6.67046
6.6411
0.134739
0.134633
0.134514
0.134384
0.134244
0.1341
0.133968
0.133871
0.133837
0.120339
0.105193
0.0997712
0.0976043
0.0911023
0.124376
0.431734
1.02987
1.65469
2.57163
4.06647
6.248
7.27743
7.11908
6.96772
6.84198
6.74851
6.68645
6.64767
6.62461
6.60096
0.134739
0.134633
0.134515
0.134384
0.134243
0.134099
0.133968
0.133874
0.133852
0.113914
0.100371
0.0989469
0.101442
0.0992382
0.18543
0.606262
1.25459
2.12166
3.52233
5.38341
7.06485
7.00855
6.89562
6.78109
6.68427
6.61604
6.57204
6.54903
6.53806
6.52264
0.134739
0.134633
0.134515
0.134384
0.134242
0.134098
0.133967
0.133882
0.131
0.103464
0.091899
0.0964991
0.108118
0.117724
0.267655
0.747162
1.45103
2.63849
4.61716
6.55069
6.68136
6.66893
6.60644
6.53571
6.4776
6.43946
6.41915
6.41609
6.42001
6.41457
0.134739
0.134633
0.134515
0.134384
0.134241
0.134096
0.133968
0.133897
0.116285
0.0887945
0.0794459
0.0904724
0.115947
0.14671
0.352129
0.863502
1.67035
3.20628
5.59237
6.02256
6.19007
6.24511
6.24904
6.23766
6.22777
6.22623
6.23618
6.25627
6.27696
6.28234
0.134739
0.134634
0.134516
0.134384
0.134243
0.134093
0.13397
0.133924
0.0981962
0.0699542
0.0636785
0.079753
0.115254
0.174097
0.432709
0.976039
1.90602
3.6931
4.84002
5.28319
5.55329
5.71767
5.81851
5.88771
5.94005
5.98493
6.03069
6.07637
6.11444
6.13034
0.134739
0.134634
0.134516
0.134384
0.134243
0.134092
0.133977
0.126117
0.0765247
0.0513886
0.0423388
0.0517936
0.0784781
0.177878
0.477505
1.10302
2.13292
3.09797
3.81662
4.36969
4.78987
5.10227
5.33317
5.50331
5.63071
5.73061
5.81428
5.88492
5.93823
5.96245
0.13474
0.134634
0.134517
0.134382
0.134242
0.13409
0.133984
0.106513
0.056905
0.0352591
0.0292463
0.025447
0.0434389
0.10779
0.384704
0.77227
1.40831
2.13364
2.84255
3.48775
4.04726
4.50891
4.8705
5.14163
5.34122
5.49073
5.60515
5.69319
5.75475
5.7822
0.13474
0.134635
0.134517
0.134384
0.134236
0.134086
0.133985
0.0902463
0.0434614
0.0220125
0.0157804
0.00762134
0.0290088
0.189226
0.391417
0.572894
0.974261
1.56612
2.25153
2.94012
3.58161
4.13367
4.57142
4.89793
5.13407
5.30325
5.42548
5.51328
5.56996
5.59216
0.13474
0.134635
0.134517
0.134386
0.134238
0.134092
0.133974
0.0814221
0.0361782
0.0171364
0.00808341
0.00284107
0.0192088
0.255085
0.328907
0.490797
0.867638
1.47087
2.19405
2.92499
3.58787
4.13537
4.54999
4.84678
5.05176
5.19211
5.28848
5.35213
5.38747
5.39362
0.13474
0.134634
0.134516
0.134385
0.134235
0.134083
0.133948
0.0856086
0.0373286
0.0159602
0.00737356
0.00446374
0.0103697
0.0998275
0.396539
0.640115
1.17816
1.93729
2.74502
3.47058
4.05146
4.4758
4.76444
4.95251
5.06955
5.14294
5.18752
5.20984
5.2122
5.19464
0.134739
0.134634
0.134516
0.134381
0.134228
0.134062
0.133911
0.107967
0.0482686
0.0226041
0.0109965
0.00201972
0.00967548
0.375531
0.668397
1.22451
2.11796
3.0463
3.80828
4.3587
4.71905
4.93635
5.05292
5.10646
5.12283
5.12014
5.10453
5.07914
5.04355
4.99892
0.134739
0.134634
0.134515
0.134378
0.134229
0.134054
0.13388
0.13377
0.0702361
0.0380344
0.0215923
0.0143601
0.0227994
0.167529
1.0341
2.18913
3.42519
4.30655
4.85056
5.14728
5.28119
5.3137
5.28937
5.23218
5.16437
5.09464
5.02459
4.95365
4.88032
4.80847
0.134739
0.134633
0.134514
0.134379
0.134228
0.134051
0.133862
0.133689
0.112067
0.0594921
0.0391788
0.0337095
0.0374061
0.158548
0.817428
1.87807
4.16796
5.21283
5.54911
5.66059
5.64478
5.55936
5.44164
5.31067
5.18057
5.05754
4.94181
4.83019
4.72256
4.62522
0.134739
0.134633
0.134513
0.134378
0.134226
0.134049
0.133855
0.133655
0.133511
0.0955591
0.0620781
0.0478808
0.0463489
0.13748
0.637175
1.59253
3.77548
5.6675
5.91419
5.93998
5.85002
5.70228
5.52707
5.34795
5.17355
5.01039
4.85659
4.71003
4.572
4.45166
0.134739
0.134633
0.134513
0.134378
0.134224
0.134051
0.133858
0.133654
0.133476
0.133433
0.0880589
0.0621906
0.0537582
0.119337
0.534179
1.40773
3.38787
5.80257
6.05821
6.06743
5.95208
5.77584
5.57107
5.3585
5.15136
4.95703
4.77237
4.59664
4.43199
4.29158
0.134739
0.134632
0.134513
0.134377
0.134223
0.134052
0.133863
0.133662
0.13347
0.133356
0.114387
0.0756473
0.0593269
0.101246
0.443108
1.23438
3.00319
5.74926
6.06963
6.10138
5.98902
5.80587
5.58773
5.35473
5.1229
4.90448
4.69384
4.49378
4.30718
4.14996
0.134739
0.134632
0.134513
0.134377
0.134224
0.134053
0.133865
0.133664
0.133468
0.133327
0.133193
0.0855971
0.0632103
0.0846046
0.356104
1.05668
2.6207
5.14704
5.99739
6.07361
5.98238
5.80834
5.58697
5.34434
5.09527
4.85801
4.62744
4.40745
4.20332
4.03278
0.134739
0.134632
0.134513
0.134377
0.134224
0.134054
0.133866
0.133667
0.133472
0.133327
0.133305
0.0915949
0.0652624
0.0709056
0.27505
0.882438
2.27629
4.47739
5.79019
6.01659
5.95137
5.78926
5.57855
5.33317
5.07526
4.82388
4.57937
4.34482
4.12782
3.94761
0.134739
0.134633
0.134513
0.134378
0.134225
0.134055
0.133868
0.13367
0.133478
0.133334
0.133309
0.0930981
0.0656603
0.0611875
0.201117
0.7202
2.04442
3.94714
5.0135
5.45782
5.73532
5.77596
5.56986
5.32979
5.06895
4.80957
4.55674
4.31446
4.09014
3.90429
0.134745
0.134656
0.134569
0.134486
0.134412
0.134353
0.134324
0.134344
0.134437
0.126825
0.109275
0.0997287
0.093544
0.0867019
0.136279
0.479855
0.971026
1.52394
2.64422
4.95768
8.50023
9.4325
9.31551
9.17578
9.04829
8.94677
8.87407
8.82632
8.7913
8.75014
0.134745
0.134656
0.134569
0.134486
0.134411
0.134353
0.134324
0.134345
0.134443
0.12499
0.10804
0.0999576
0.0947252
0.094749
0.228594
0.756853
1.40057
2.17296
3.47163
5.58194
8.39766
9.25892
9.16257
9.04344
8.93454
8.84943
8.79065
8.75587
8.73013
8.69625
0.134745
0.134656
0.134569
0.134486
0.134411
0.134353
0.134325
0.134351
0.134462
0.120094
0.10452
0.0994509
0.0969494
0.114433
0.355196
0.962019
1.71217
2.89688
4.81837
7.11753
8.92951
8.96134
8.90039
8.81486
8.73593
8.67647
8.64093
8.62463
8.61336
8.59017
0.134745
0.134656
0.134569
0.134486
0.134411
0.134352
0.134327
0.134363
0.134494
0.112049
0.0983783
0.0978357
0.101716
0.151522
0.487547
1.11891
2.02365
3.73638
6.38244
8.25262
8.5033
8.56656
8.55008
8.5086
8.46938
8.44397
8.43842
8.44511
8.45254
8.44228
0.134745
0.134657
0.13457
0.134486
0.134411
0.134353
0.134331
0.134381
0.129144
0.100439
0.0884566
0.0934509
0.108692
0.204272
0.603604
1.27096
2.39947
4.65781
7.20467
7.7126
7.96572
8.07842
8.1219
8.13762
8.14814
8.16624
8.19503
8.22855
8.2568
8.26054
0.134745
0.134657
0.13457
0.134486
0.13441
0.134353
0.134337
0.134411
0.11411
0.0849626
0.0741385
0.0840299
0.112904
0.258072
0.702957
1.4351
2.82895
5.46622
6.52001
7.0093
7.3149
7.50654
7.63091
7.7191
7.79019
7.85832
7.92416
7.98646
8.03509
8.0521
0.134746
0.134657
0.13457
0.134486
0.13441
0.134353
0.134345
0.134454
0.0966407
0.0655032
0.0575532
0.0690152
0.0958494
0.296018
0.821742
1.63198
3.2612
4.95023
5.67842
6.21105
6.60531
6.89819
7.11825
7.28761
7.42528
7.54281
7.64391
7.73159
7.79659
7.82371
0.134746
0.134658
0.13457
0.134486
0.134409
0.134353
0.134354
0.131336
0.0766648
0.0495176
0.0357747
0.0399893
0.0646427
0.346607
1.01988
1.95993
3.21096
4.14075
4.88392
5.48453
5.97201
6.35879
6.66506
6.90637
7.09746
7.25086
7.37635
7.47827
7.55052
7.58147
0.134746
0.134658
0.13457
0.134486
0.134408
0.134351
0.134358
0.118169
0.0624307
0.0364208
0.025713
0.020004
0.0360216
0.267588
0.875295
1.68877
2.69463
3.60883
4.39056
5.04861
5.59211
6.02814
6.37734
6.6481
6.85518
7.01534
7.14158
7.23894
7.30432
7.33001
0.134746
0.134658
0.134571
0.134486
0.134407
0.134346
0.13435
0.111099
0.0556828
0.0288809
0.0163612
0.0102212
0.0355514
0.330589
0.911747
1.67512
2.64082
3.57237
4.38335
5.05301
5.5868
6.00002
6.31809
6.55195
6.72335
6.85187
6.94876
7.01921
7.06169
7.07191
0.134746
0.134658
0.13457
0.134485
0.134404
0.134338
0.134328
0.118032
0.0575231
0.0289862
0.014476
0.00861088
0.0347919
0.422675
1.13023
2.05
3.12902
4.09985
4.88697
5.48463
5.92292
6.23098
6.44378
6.58519
6.68147
6.74659
6.79072
6.81766
6.82538
6.81249
0.134746
0.134657
0.134569
0.134483
0.1344
0.134328
0.134296
0.1344
0.0704405
0.03733
0.0191813
0.0129379
0.0280584
0.385294
1.56321
2.84865
4.09605
5.04209
5.70578
6.14377
6.41477
6.56848
6.64516
6.67427
6.6786
6.66872
6.65164
6.62736
6.59451
6.55475
0.134745
0.134657
0.134568
0.134481
0.134397
0.134319
0.134264
0.134292
0.0966247
0.0520986
0.0311645
0.0273276
0.0427545
0.359628
1.57405
3.20324
5.1334
5.98034
6.48457
6.75001
6.85869
6.87019
6.8262
6.75498
6.67433
6.59447
6.51735
6.442
6.36837
6.30105
0.134745
0.134656
0.134568
0.13448
0.134394
0.134312
0.134241
0.134214
0.134329
0.0748844
0.0496588
0.0405313
0.049978
0.296269
1.16925
2.74338
5.75731
6.61493
7.019
7.16984
7.16804
7.0799
6.94799
6.79968
6.65145
6.51234
6.3817
6.26022
6.14796
6.0545
0.134745
0.134656
0.134567
0.134479
0.134392
0.134307
0.134227
0.134169
0.134192
0.110255
0.0678874
0.050488
0.0549264
0.256804
0.990539
2.43145
5.31051
6.90459
7.29631
7.40371
7.34678
7.20097
7.01228
6.80912
6.60856
6.42182
6.24591
6.08377
5.93671
5.81982
0.134745
0.134656
0.134567
0.134479
0.134391
0.134304
0.134221
0.13415
0.134128
0.13425
0.0879211
0.0614182
0.059154
0.220539
0.861632
2.18814
4.833
6.93766
7.38058
7.49702
7.4259
7.25427
7.03316
6.793
6.5536
6.32747
6.11478
5.91758
5.7405
5.60308
0.134745
0.134656
0.134567
0.134478
0.13439
0.134303
0.134219
0.134144
0.134104
0.134172
0.105426
0.0707083
0.0610032
0.181521
0.73285
1.92618
4.29936
6.772
7.33422
7.49182
7.43318
7.2586
7.02461
6.76241
6.49551
6.23772
5.99469
5.76876
5.56653
5.41192
0.134745
0.134655
0.134566
0.134478
0.13439
0.134303
0.134218
0.134143
0.134099
0.134144
0.11727
0.0776246
0.0614628
0.143326
0.606339
1.65468
3.73707
5.94714
6.82797
7.0205
7.12242
7.23548
6.99771
6.72749
6.44233
6.16186
5.89405
5.64564
5.42343
5.25534
0.134745
0.134655
0.134566
0.134478
0.13439
0.134303
0.13422
0.134146
0.134103
0.134143
0.123246
0.0816315
0.0610203
0.109589
0.482456
1.39551
3.21042
5.07044
5.89262
6.19515
6.43279
6.68604
6.9278
6.69801
6.40376
6.1078
5.82268
5.55801
5.3217
5.14385
0.134745
0.134656
0.134567
0.134478
0.13439
0.134304
0.134221
0.134149
0.134107
0.134147
0.124414
0.0825909
0.0602026
0.0828689
0.360946
1.18027
2.83286
4.3342
5.09605
5.54635
5.921
6.26823
6.59391
6.68655
6.3898
6.08507
5.79104
5.51691
5.27303
5.0896
0.134745
0.134656
0.134571
0.13449
0.134419
0.134365
0.134341
0.134365
0.13446
0.130831
0.111468
0.0999545
0.091315
0.0917927
0.236745
0.725497
1.23689
1.97668
3.54813
6.57508
10.5584
10.8578
10.8489
10.7806
10.7022
10.636
10.59
10.5608
10.5354
10.4956
0.134745
0.134656
0.134571
0.13449
0.134419
0.134365
0.13434
0.134365
0.134462
0.129738
0.11083
0.100158
0.092173
0.114485
0.408255
1.08076
1.77253
2.75902
4.43697
7.03151
10.1549
10.6993
10.6966
10.6416
10.5784
10.5273
10.4953
10.4785
10.4639
10.4317
0.134745
0.134657
0.134571
0.13449
0.134419
0.134364
0.13434
0.134368
0.134474
0.126312
0.108588
0.0995704
0.0945689
0.15892
0.588327
1.30901
2.21915
3.78105
6.1246
8.60168
10.2734
10.4102
10.4259
10.3958
10.3583
10.3318
10.3221
10.3244
10.326
10.305
0.134745
0.134657
0.134571
0.13449
0.134418
0.134364
0.134341
0.134374
0.134494
0.120685
0.104633
0.0982901
0.100594
0.226
0.74283
1.49635
2.68933
4.98574
8.06083
9.52283
9.87366
10.0161
10.0596
10.0641
10.0615
10.0675
10.0862
10.1136
10.1344
10.1272
0.134745
0.134657
0.134572
0.13449
0.134418
0.134363
0.134342
0.134384
0.134525
0.112486
0.0980032
0.095619
0.109992
0.30337
0.870727
1.70599
3.25095
6.24774
8.48156
9.05945
9.37344
9.53511
9.61818
9.66728
9.70783
9.75246
9.80415
9.85933
9.9007
9.90835
0.134745
0.134658
0.134572
0.13449
0.134417
0.134363
0.134344
0.134399
0.131656
0.101094
0.0873057
0.0894117
0.117855
0.369898
0.978992
1.94429
3.8755
7.16703
7.97821
8.48079
8.79503
8.9951
9.13026
9.23254
9.32168
9.40762
9.49416
9.57573
9.63643
9.65786
0.134746
0.134658
0.134572
0.13449
0.134417
0.134362
0.134347
0.13442
0.117976
0.0860591
0.0723885
0.0771996
0.11282
0.410574
1.07887
2.21201
4.51481
6.68689
7.38059
7.85957
8.20089
8.45151
8.64382
8.80024
8.93608
9.05974
9.17594
9.27785
9.3532
9.38455
0.134746
0.134658
0.134572
0.13449
0.134416
0.13436
0.134349
0.134443
0.103401
0.0679301
0.0560351
0.0609959
0.0974576
0.452591
1.22083
2.53887
5.17321
6.17647
6.83098
7.3189
7.69398
7.99155
8.2276
8.42305
8.59058
8.73858
8.87015
8.98074
9.06123
9.09607
0.134746
0.134658
0.134572
0.134489
0.134414
0.134357
0.134347
0.134457
0.0891779
0.0548697
0.0387885
0.0403194
0.0837038
0.541737
1.49966
2.98322
4.94829
5.84092
6.49743
6.99719
7.39052
7.70244
7.94901
8.15049
8.32176
8.46804
8.59306
8.69579
8.76811
8.798
0.134746
0.134658
0.134572
0.134489
0.134413
0.134353
0.134338
0.13445
0.0812494
0.0478193
0.0303614
0.0310305
0.0798745
0.637899
1.83833
3.41989
4.96604
5.85174
6.50033
6.98501
7.35076
7.62713
7.83814
8.00502
8.14254
8.25612
8.35093
8.42712
8.47732
8.49342
0.134746
0.134658
0.134572
0.134488
0.13441
0.134346
0.134321
0.134409
0.0842752
0.0480704
0.0290905
0.0284732
0.0749784