/*--------------------------------*- C++ -*----------------------------------*\
| =========                 |                                                 |
| \\      /  F ield         | OpenFOAM: The Open Source CFD Toolbox           |
|  \\    /   O peration     | Version:  2512                                  |
|   \\  /    A nd           | Website:  www.openfoam.com                      |
|    \\/     M anipulation  |                                                 |
\*---------------------------------------------------------------------------*/
FoamFile
{
    version     2.0;
    format      ascii;
    arch        "LSB;label=32;scalar=64";
    class       volScalarField;
    location    "180";
    object      omega;
}
// * * * * * * * * * * * * * * * * * * * * * * * * * * * * * * * * * * * * * //

dimensions      [0 0 -1 0 0 0 0];

internalField   nonuniform List<scalar> 
90398
(
16.0849
15.8158
15.5579
15.3126
15.0793
14.8595
14.6572
14.4489
14.267
14.0939
13.9367
13.8004
13.6729
13.5543
13.4557
13.4255
14.6985
24.6894
48.7438
84.9218
123.66
154.638
177.361
193.93
206.312
215.961
223.822
230.67
236.795
243.574
16.085
15.8161
15.5587
15.3137
15.0807
14.8608
14.6573
14.4498
14.2676
14.0937
13.9389
13.8033
13.6764
13.5584
13.4672
13.6248
17.5186
33.6958
61.3798
95.4356
129.622
157.137
177.831
193.288
205.08
214.416
222.131
228.913
235.056
241.786
16.085
15.8164
15.5596
15.3151
15.082
14.8617
14.6552
14.4522
14.271
14.0974
13.9433
13.8092
13.6839
13.5672
13.4979
14.1258
21.6882
42.6127
72.6521
105.553
134.921
158.561
176.837
190.931
201.998
210.975
218.548
225.312
231.506
238.238
16.0851
15.8167
15.5607
15.3161
15.0828
14.862
14.6565
14.459
14.2741
14.1015
13.9501
13.817
13.6938
13.5811
13.565
15.0528
26.2958
50.5629
81.4106
111.089
136.529
157.183
173.567
186.586
197.095
205.835
213.363
220.185
226.494
233.267
16.0852
15.8169
15.5616
15.3168
15.0828
14.8603
14.6556
14.4616
14.2766
14.1046
13.9547
13.7983
13.6799
13.6009
13.6978
16.3599
30.405
55.8089
84.5176
110.979
133.688
152.455
167.723
180.172
190.471
199.218
206.879
213.891
220.397
227.22
16.0854
15.8172
15.562
15.3182
15.0846
14.8572
14.64
14.4594
14.2772
14.0868
13.9476
13.8315
13.7188
13.6319
13.9384
17.7895
32.3122
55.6624
80.9375
104.816
125.944
143.953
159.027
171.618
182.24
191.384
199.455
206.839
213.656
220.545
16.0854
15.8173
15.5617
15.3178
15.0856
14.8577
14.6382
14.456
14.2742
14.1264
13.9985
13.8729
13.7827
13.7104
14.6041
19.4506
31.2505
49.2526
70.4942
92.2985
112.911
131.373
147.377
161.047
172.711
182.769
191.592
199.543
206.759
213.703
16.0854
15.817
15.5588
15.3105
15.0806
14.8615
14.6406
14.4457
14.2772
28.213
27.618
27.141
26.8416
26.7089
20.3968
28.335
37.256
48.2662
62.4602
79.7689
98.8136
117.736
135.156
150.454
163.588
174.816
184.489
192.979
200.486
207.306
16.0854
15.817
15.5581
15.3061
15.0722
14.8584
14.6472
14.4516
28.5426
27.9063
28.2277
30.58
41.3333
53.7216
59.4731
61.2641
62.945
65.5868
70.8771
80.6591
95.1846
112.426
129.77
145.552
159.187
170.734
180.504
188.904
196.182
202.33
16.0854
15.8174
15.5607
15.3109
15.073
14.8574
14.6528
14.4557
28.5379
55.9862
111.795
205.813
289.556
275.45
78.3899
71.963
68.6561
69.5275
75.6468
87.1575
102.648
119.622
135.891
150.278
162.476
172.653
181.154
188.454
194.701
199.796
16.0854
15.8173
15.5606
15.3105
15.0722
14.856
14.6503
14.4521
28.5304
56.0257
433.493
385.49
281.333
63.989
60.9801
63.1553
71.605
85.4876
102.446
119.947
136.086
149.979
161.502
170.917
178.606
184.951
190.383
195.005
198.603
16.0854
15.8168
15.5576
15.3051
15.0701
14.8545
14.6401
14.4414
28.5065
27.8852
65.5482
223.244
256.578
200.605
35.2166
43.5387
58.7755
79.3364
101.197
121.305
138.379
152.272
163.361
172.115
179.025
184.51
188.908
192.624
195.668
197.766
16.0853
15.8167
15.558
15.3089
15.0773
14.8555
14.6296
14.4282
14.2439
28.1008
27.7157
29.9548
29.4393
28.5023
20.2195
37.634
64.0938
91.4989
115.536
135.183
150.757
162.889
172.277
179.446
184.877
188.962
191.989
194.374
196.091
196.847
16.0853
15.8169
15.5606
15.3156
15.0814
14.8502
14.6246
14.4319
14.2373
14.0623
13.9039
13.7454
13.6245
13.6099
17.5546
36.7396
68.5329
98.3125
122.987
142.467
157.565
169.127
177.869
184.333
188.986
192.188
194.236
195.571
196.174
195.75
16.0853
15.8168
15.5609
15.3157
15.0799
14.8489
14.6251
14.4333
14.2351
14.0238
13.8539
13.7064
13.582
13.5496
15.7917
32.4226
67.5785
99.6137
125.467
145.549
160.953
172.643
181.347
187.606
191.871
194.503
195.819
196.29
195.947
194.486
16.0852
15.8165
15.5605
15.3143
15.0779
14.8515
14.6402
14.4352
14.2327
14.0372
13.8628
13.6841
13.5564
13.516
14.8873
28.75
64.2763
98.1456
125.293
146.291
162.368
174.536
183.515
189.828
193.907
196.148
196.9
196.646
195.488
193.122
16.085
15.8163
15.5596
15.3137
15.0781
14.8534
14.6413
14.4334
14.2328
14.0375
13.8645
13.7168
13.5845
13.499
14.3836
25.609
59.3335
94.8105
123.249
145.311
162.277
175.158
184.627
191.18
195.231
197.21
197.525
196.704
194.871
191.74
16.085
15.8161
15.5586
15.3129
15.0776
14.8535
14.6407
14.4284
14.2335
14.0416
13.8689
13.7205
13.5855
13.4847
14.0279
22.7186
53.5402
90.175
119.775
142.955
160.946
174.7
184.828
191.758
195.915
197.76
197.757
196.528
194.179
190.443
16.085
15.8159
15.5579
15.3118
15.0768
14.8532
14.6438
14.4278
14.2332
14.0431
13.8709
13.7205
13.5826
13.4711
13.7771
20.2237
47.643
84.8462
115.354
139.595
158.651
173.354
184.23
191.633
195.993
197.823
197.666
196.199
193.507
189.352
16.0849
15.8157
15.5574
15.311
15.0756
14.8524
14.6444
14.4278
14.234
14.0454
13.8707
13.7187
13.5784
13.46
13.6146
18.3037
42.6241
79.9637
110.949
136
156.002
171.564
183.113
190.973
195.569
197.472
197.375
195.834
192.998
188.629
1.93922
2.07996
2.20496
2.31702
2.41804
2.50927
2.59464
2.6717
2.74295
2.80808
2.86931
2.92525
2.97694
3.0239
3.07007
3.12261
3.37654
4.84427
9.19298
16.9989
26.3515
35.0867
42.8153
49.3746
54.871
59.4677
63.3418
66.6335
69.4747
71.6949
1.93922
2.07996
2.205
2.31709
2.41796
2.50959
2.59614
2.67425
2.74701
2.81378
2.87562
2.93116
2.98231
3.02824
3.07514
3.16143
3.74272
6.24009
11.7044
19.5869
28.2224
36.4418
43.7347
49.9708
55.2382
59.6773
63.4525
66.6868
69.4963
71.7188
1.93923
2.08004
2.20515
2.31738
2.41813
2.5106
2.59916
2.67959
2.75565
2.82718
2.89136
2.94685
2.99637
3.03979
3.08957
3.25114
4.29935
7.74905
13.9712
21.7854
29.901
37.5435
44.3261
50.1712
55.1629
59.4204
63.0881
66.2693
69.0602
71.3068
1.93925
2.08015
2.20536
2.31784
2.41878
2.51219
2.60352
2.68797
2.77033
2.85222
2.92376
2.97795
3.02441
3.06341
3.1223
3.41601
5.00184
9.23851
15.8228
23.3782
30.9898
38.0629
44.3693
49.8577
54.5987
58.7032
62.2856
65.4354
68.2297
70.5254
1.93926
2.08025
2.20566
2.31846
2.41944
2.51291
2.60823
2.6995
2.79484
2.89
2.96712
3.02312
3.0655
3.10147
3.19174
3.7097
5.86596
10.6206
17.1419
24.3256
31.407
37.9803
43.8782
49.0672
53.613
57.6047
61.135
64.282
67.1038
69.469
1.93931
2.08037
2.20591
2.3191
2.42064
2.51051
2.60973
2.71567
2.8299
2.95454
3.0541
3.11035
3.15631
3.19838
3.42902
4.44406
7.24172
12.1892
18.43
25.0919
31.6084
37.6682
43.155
48.0533
52.4173
56.3112
59.807
62.968
65.8314
68.2736
1.9392
2.08031
2.20524
2.3184
2.42312
2.5133
2.60922
2.73895
2.88628
3.08367
3.2561
3.33074
3.40285
3.51311
4.70223
7.45633
11.3594
16.3475
21.94
27.6313
33.1042
38.2359
42.9951
47.3885
51.4327
55.1497
58.5684
61.7191
64.6079
67.1079
1.93903
2.0796
2.20361
2.31415
2.42672
2.5252
2.62128
2.77097
2.99097
3.32593
4.09226
4.5209
4.79343
5.144
17.4355
24.3641
28.4415
31.854
34.6101
36.9479
39.2519
41.813
44.726
47.9152
51.2348
54.5484
57.7607
60.8201
63.6788
66.1815
1.93899
2.07937
2.20335
2.31426
2.42598
2.537
2.64572
2.81268
3.10894
4.40785
8.28023
10.2074
13.3792
22.6972
85.8031
78.3722
71.7463
65.512
59.5598
54.2015
50.2104
48.2027
48.1668
49.6192
51.9747
54.7652
57.6874
60.5911
63.3856
65.7988
1.93898
2.07982
2.20333
2.31406
2.41938
2.53579
2.65529
2.83658
3.22475
5.54994
91.0222
532.322
351.511
340.229
164.001
121.172
96.6729
80.3553
68.0395
58.8129
52.7591
49.835
49.4512
50.7631
53.0153
55.6808
58.4471
61.2253
63.9138
66.319
1.93897
2.07976
2.20328
2.314
2.41932
2.53547
2.6542
2.8351
3.25117
6.90344
732.672
154.083
111.018
85.6275
68.4029
56.8388
50.1138
47.3344
47.3397
48.9962
51.4887
54.2969
57.1254
59.8226
62.4408
64.9581
67.2798
1.93894
2.07919
2.20316
2.31407
2.42495
2.53452
2.64099
2.81065
3.13277
5.19221
21.7289
161.455
318.485
187.463
50.5696
43.946
38.4179
35.6502
35.7992
37.9757
41.2418
44.9735
48.7539
52.3673
55.6935
58.6821
61.3246
63.8168
66.1586
68.3717
1.93895
2.0793
2.20333
2.31388
2.42494
2.52129
2.61379
2.76316
2.96955
3.44777
4.99463
6.53441
6.99873
6.88968
9.73804
12.4234
16.8939
22.4451
28.3401
34.1768
39.706
44.8288
49.4418
53.5325
57.0933
60.1447
62.7208
65.0975
67.2817
69.3945
1.9391
2.07989
2.20421
2.31642
2.41957
2.50888
2.60012
2.72003
2.86743
3.05767
3.28173
3.41593
3.46137
3.50429
4.36009
7.16648
13.0155
19.8957
26.8953
33.5967
39.8021
45.4104
50.3582
54.6617
58.334
61.4113
63.9328
66.2078
68.2573
70.2847
1.93918
2.07985
2.20467
2.31665
2.41601
2.50533
2.59883
2.69512
2.79725
2.91697
3.01548
3.06086
3.09652
3.12772
3.5109
5.62627
11.6981
18.9842
26.4002
33.4712
40.0095
45.9089
51.1065
55.5848
59.3597
62.4643
64.9478
67.1377
69.0811
71.0375
1.93912
2.07966
2.20421
2.31554
2.4143
2.50419
2.59336
2.67429
2.75114
2.82581
2.88774
2.93175
2.9662
2.99824
3.25637
4.90478
10.6217
18.1752
25.8583
33.1976
39.9978
46.1487
51.5823
56.2462
60.1468
63.3132
65.7824
67.907
69.7691
71.6701
1.93909
2.07948
2.20372
2.31455
2.41394
2.50332
2.58778
2.6611
2.72655
2.78572
2.83985
2.88992
2.92546
2.95569
3.15064
4.45386
9.56222
17.2235
25.0815
32.6455
39.6973
46.1047
51.7802
56.6538
60.7072
63.9566
66.4357
68.5388
70.3482
72.2089
1.93906
2.07933
2.20339
2.31396
2.41342
2.50256
2.58358
2.65581
2.72063
2.77809
2.82855
2.87502
2.91104
2.93803
3.08448
4.11852
8.51315
16.129
24.0756
31.8269
39.1258
45.8005
51.7313
56.8264
61.0526
64.4047
66.9124
69.0418
70.8369
72.6758
1.93905
2.07921
2.20319
2.31384
2.4132
2.50226
2.58248
2.65456
2.71889
2.7755
2.82464
2.86868
2.90485
2.92902
3.03787
3.85759
7.5441
15.0013
22.9436
30.8393
38.3681
45.3036
51.4814
56.7952
61.1936
64.6591
67.2191
69.4273
71.2379
73.0842
1.93903
2.07916
2.20313
2.31383
2.41313
2.50213
2.58226
2.65418
2.71821
2.77438
2.82296
2.86638
2.90176
2.92405
3.00601
3.65899
6.75058
13.9969
21.8901
29.8851
37.5965
44.7414
51.1185
56.6058
61.1419
64.7077
67.3763
69.6749
71.5062
73.4052
1.77769
1.77817
1.7809
1.78545
1.79159
1.79913
1.80812
1.81867
1.83092
1.84413
1.85794
1.87207
1.88633
1.90136
1.92412
2.05247
2.82813
3.8789
6.08295
10.0161
15.0121
19.7872
24.0415
27.8383
31.2032
34.1553
36.7515
39.0233
41.0063
42.519
1.77769
1.77818
1.7809
1.78544
1.79163
1.79921
1.80832
1.8191
1.83177
1.8454
1.85948
1.87353
1.88785
1.90315
1.94115
2.24113
3.18961
4.54303
7.24963
11.386
16.1379
20.593
24.6627
28.3302
31.5932
34.4751
37.0211
39.2623
41.2274
42.7391
1.77769
1.77819
1.78092
1.78545
1.79173
1.79942
1.80878
1.82009
1.83373
1.84837
1.86322
1.87742
1.8918
1.90831
1.97948
2.53606
3.52727
5.36784
8.62131
12.8436
17.2083
21.3689
25.2286
28.7274
31.8608
34.6546
37.1387
39.3461
41.2961
42.8155
1.7777
1.7782
1.78094
1.78549
1.79185
1.79971
1.8095
1.82175
1.83687
1.85371
1.87115
1.88636
1.90059
1.92211
2.06523
2.93379
4.11938
6.44921
10.0218
14.0612
18.1199
22.0286
25.6774
28.9974
31.9973
34.6919
37.1118
39.2853
41.2235
42.7582
1.7777
1.77821
1.78097
1.78554
1.79155
1.80021
1.81061
1.8244
1.84201
1.86345
1.88626
1.90299
1.92001
1.96308
2.34235
3.62502
5.14477
7.91731
11.4992
15.2686
19.0569
22.7
26.1045
29.2259
32.0688
34.6483
36.9942
39.1284
41.053
42.6052
1.77771
1.77822
1.78098
1.7856
1.79158
1.8009
1.81212
1.82835
1.85082
1.88485
1.92433
1.94711
1.97153
2.11688
3.28804
5.34576
7.44684
10.428
13.7274
17.1463
20.5218
23.7484
26.7849
29.6097
32.2232
34.6407
36.8809
38.9561
40.855
42.4174
1.77771
1.77822
1.78088
1.78547
1.79175
1.80079
1.81375
1.83292
1.86747
1.93437
2.02365
2.07765
2.1477
3.08654
7.12578
10.8978
13.5173
16.1218
18.6666
21.1237
23.5045
25.8485
28.1627
30.4394
32.662
34.8156
36.8876
38.8657
40.7152
42.2702
1.77771
1.77818
1.78089
1.78547
1.79157
1.80114
1.8161
1.83978
1.89983
2.07486
2.17032
2.4723
2.65012
4.50675
25.8407
29.5013
30.342
30.3148
29.8175
29.3291
29.212
29.6192
30.5466
31.8782
33.4882
35.2595
37.1001
38.945
40.722
42.249
1.77771
1.77816
1.78079
1.78577
1.79191
1.80174
1.81779
1.84821
1.90442
2.24197
3.27044
7.2868
10.6397
28.8456
84.4697
73.4506
63.7093
54.7237
46.7615
40.496
36.2164
33.8888
33.1093
33.4277
34.4504
35.8825
37.5242
39.2536
40.9652
42.4543
1.77771
1.7782
1.78081
1.78537
1.79182
1.80185
1.81802
1.85471
1.9394
2.49909
15.1464
900.745
498.835
352.443
182.081
126.137
92.8099
70.9511
54.9904
44.3146
37.973
34.8223
33.782
34.0451
35.064
36.4888
38.1055
39.8125
41.4995
42.9808
1.77771
1.77819
1.7808
1.78533
1.7917
1.80153
1.81718
1.85244
1.94862
2.77273
283.58
313.828
166.76
110.337
77.1521
55.9879
43.0505
36.0932
32.9585
32.134
32.6086
33.8001
35.3533
37.0599
38.7994
40.5441
42.2241
43.6993
1.7777
1.77815
1.78076
1.78567
1.79164
1.801
1.81572
1.84372
1.90667
2.42339
4.42571
443.93
313.214
195.637
53.736
41.7444
32.7971
27.9578
26.1952
26.3185
27.5174
29.3097
31.3682
33.5215
35.6441
37.6651
39.5547
41.3524
43.0293
44.4932
1.7777
1.77815
1.78081
1.78527
1.79116
1.8
1.81315
1.83475
1.88299
2.03827
2.27097
3.12153
3.36568
7.98745
14.3956
14.1995
14.8909
16.6721
19.1483
22.0011
24.9951
28.0075
30.8926
33.6062
36.0983
38.3339
40.3319
42.1649
43.831
45.2777
1.7777
1.77818
1.78077
1.78518
1.79107
1.79923
1.81008
1.82559
1.85199
1.90285
1.99672
2.08065
2.14917
2.93183
5.42617
7.0533
9.85597
13.1667
16.7496
20.4462
24.1173
27.6456
30.9413
33.9554
36.6516
39.0216
41.0901
42.9365
44.5854
46.0106
1.7777
1.77816
1.78083
1.78522
1.79092
1.79925
1.80828
1.81995
1.83671
1.86006
1.89222
1.92356
1.96277
2.22415
3.65873
5.14676
8.18461
11.9281
15.8478
19.855
23.8236
27.6299
31.1749
34.3916
37.229
39.6843
41.7917
43.6448
45.2728
46.6754
1.77769
1.77815
1.7808
1.78511
1.79078
1.79833
1.80649
1.81588
1.82702
1.84046
1.8556
1.87472
1.90298
2.0669
3.28319
4.6389
7.47526
11.3348
15.3756
19.5396
23.6829
27.6777
31.4089
34.7822
37.7506
40.2861
42.419
44.2765
45.887
47.2703
1.77769
1.77814
1.78075
1.78505
1.79085
1.79758
1.80516
1.81334
1.82219
1.8323
1.84476
1.85966
1.88172
2.00524
3.10665
4.47582
7.04895
10.8908
14.9717
19.2354
23.5211
27.6724
31.5677
35.0834
38.1697
40.788
42.9604
44.8248
46.4266
47.7972
1.77769
1.77813
1.78072
1.78501
1.7907
1.79735
1.8048
1.81281
1.82134
1.8306
1.84168
1.85428
1.87331
1.96526
2.93486
4.53119
6.73323
10.4489
14.5238
18.8612
23.2746
27.5793
31.622
35.2798
38.4737
41.168
43.3926
45.2815
46.8864
48.2528
1.77769
1.77812
1.78071
1.785
1.79064
1.7973
1.80472
1.81271
1.82116
1.83019
1.84063
1.85255
1.86975
1.93943
2.76453
4.54779
6.44006
9.96239
14.028
18.4249
22.9526
27.3957
31.5699
35.3496
38.6466
41.4055
43.6912
45.6198
47.244
48.619
1.77769
1.77812
1.78071
1.785
1.79063
1.79729
1.8047
1.81268
1.8211
1.83007
1.84031
1.85206
1.86832
1.92253
2.60467
4.46719
6.17421
9.5074
13.5566
18.0041
22.6124
27.1465
31.4169
35.2778
38.6503
41.4584
43.8087
45.7821
47.4304
48.8279
1.77422
1.76859
1.76321
1.75817
1.75355
1.74954
1.74633
1.74427
1.74379
1.74496
1.74763
1.7514
1.75601
1.76439
1.86952
2.65071
4.25903
5.78443
7.15408
9.66208
12.904
16.0663
18.9742
21.6493
24.086
26.2958
28.2835
30.0635
31.6337
32.8188
1.77422
1.76859
1.76322
1.75817
1.75355
1.74954
1.74635
1.74436
1.74404
1.74543
1.74832
1.75209
1.75665
1.77174
2.04642
3.18134
4.81206
5.95811
7.68819
10.4082
13.5909
16.6179
19.4409
22.052
24.4434
26.614
28.5767
30.3423
31.9024
33.0869
1.77422
1.76859
1.76322
1.75817
1.75356
1.74955
1.74643
1.74462
1.74469
1.74667
1.75021
1.75417
1.75884
1.79147
2.27704
3.67161
5.24927
6.4104
8.56312
11.3869
14.3639
17.2281
19.9424
22.4662
24.7928
26.9116
28.8404
30.5853
32.1363
33.3246
1.77422
1.7686
1.76323
1.75818
1.75357
1.74959
1.74657
1.74509
1.74583
1.74907
1.75416
1.75877
1.76424
1.84345
2.56884
4.16878
5.65808
7.20371
9.61949
12.3615
15.1465
17.8762
20.4702
22.8947
25.134
27.1899
29.0751
30.7929
32.3322
33.5255
1.77423
1.7686
1.76324
1.75818
1.75358
1.74964
1.74679
1.74584
1.74778
1.75377
1.76239
1.76836
1.77839
1.96314
2.97909
4.77945
6.26836
8.35688
10.8608
13.4656
16.1023
18.6681
21.1101
23.3956
25.5194
27.4873
29.3084
30.9872
32.5065
33.7008
1.77423
1.76861
1.76325
1.75819
1.75357
1.74973
1.74713
1.74706
1.7514
1.7641
1.78161
1.79294
1.81799
2.2496
3.85454
5.9203
7.92901
10.329
12.7322
15.1545
17.5342
19.8265
22.0168
24.0805
26.0286
27.8635
29.588
31.2058
32.6896
33.8751
1.77423
1.76862
1.76325
1.7582
1.75357
1.7498
1.74757
1.74875
1.75859
1.78767
1.83299
1.8664
1.9713
3.35875
6.76202
9.20807
11.8092
14.0497
16.0976
18.0148
19.8436
21.6197
23.3547
25.059
26.7319
28.367
29.9547
31.4846
32.9148
34.0782
1.77423
1.76862
1.76325
1.7582
1.75358
1.74988
1.7481
1.75119
1.77257
1.84491
1.89833
2.07287
2.23306
5.67176
17.7586
19.1869
20.1532
20.9679
21.6848
22.3843
23.1495
24.0352
25.0809
26.2772
27.5936
28.9854
30.414
31.8426
33.2096
34.3414
1.77424
1.76863
1.76326
1.7582
1.7536
1.74993
1.7485
1.75431
1.79284
1.97619
2.19725
3.58413
5.31174
31.9603
41.8282
37.3273
33.1842
30.1323
28.1367
26.9319
26.3205
26.2313
26.6094
27.367
28.3989
29.6109
30.924
32.2778
33.5949
34.6968
1.77425
1.76864
1.76327
1.75819
1.75356
1.74979
1.74865
1.75663
1.81473
1.97496
3.23343
163.137
207.109
176.954
63.8892
51.4393
41.3713
34.549
30.4978
28.2211
27.0894
26.7847
27.1015
27.8568
28.9035
30.1249
31.4359
32.7811
34.0828
35.1713
1.77425
1.76863
1.76326
1.75817
1.7535
1.74961
1.74812
1.75504
1.80935
2.0074
3.74707
634.346
397.355
237.755
53.1813
41.635
33.3109
28.5496
26.1374
25.1575
25.0914
25.6367
26.5863
27.7894
29.1333
30.5339
31.9424
33.3292
34.6382
35.7213
1.77423
1.76862
1.76323
1.75814
1.75344
1.74946
1.7471
1.75033
1.78049
1.94931
2.40749
52.0901
66.6499
94.2499
24.653
21.3315
19.7208
19.4264
19.9908
21.088
22.5233
24.1497
25.8671
27.6071
29.3052
30.9263
32.4608
33.9036
35.225
36.3011
1.77423
1.7686
1.76322
1.75811
1.75332
1.74917
1.74613
1.74631
1.75901
1.81594
1.9167
2.35665
2.64675
9.94192
10.0514
11.1255
12.5113
14.302
16.3698
18.6087
20.9236
23.2392
25.4752
27.6004
29.5677
31.3657
33.001
34.4866
35.813
36.8748
1.77423
1.7686
1.76321
1.75807
1.75324
1.74893
1.7453
1.7434
1.74635
1.76535
1.81287
1.87366
2.00731
3.26969
5.5246
7.31894
9.62238
12.0758
14.7036
17.434
20.1831
22.8738
25.4267
27.7912
29.9346
31.8501
33.5513
35.0604
36.3793
37.4194
1.77422
1.7686
1.7632
1.75805
1.75319
1.74875
1.74477
1.74168
1.74086
1.74556
1.76088
1.78844
1.86474
2.69164
4.70837
6.29106
8.56316
11.1741
13.9825
16.9244
19.8982
22.8032
25.5629
28.0934
30.361
32.3491
34.0904
35.6064
36.9092
37.9229
1.77422
1.76859
1.76318
1.75802
1.75316
1.74861
1.74443
1.74075
1.73815
1.73823
1.74373
1.75884
1.81473
2.53208
4.52379
6.21739
8.19471
10.7865
13.6395
16.6836
19.796
22.8546
25.7562
28.4157
30.7803
32.8283
34.5943
36.1079
37.3928
38.3792
1.77422
1.76858
1.76317
1.75801
1.75313
1.74853
1.74424
1.74033
1.73711
1.73559
1.73779
1.74722
1.78767
2.40021
4.36844
6.29999
8.03718
10.5549
13.4034
16.5084
19.7282
22.915
25.9365
28.7009
31.1481
33.247
35.0402
36.5527
37.8208
38.7831
1.77422
1.76858
1.76316
1.758
1.75311
1.74851
1.74421
1.74027
1.73692
1.7349
1.73585
1.74263
1.77332
2.26819
4.16299
6.35365
7.91993
10.3252
13.1576
16.3113
19.6297
22.9326
26.0657
28.919
31.4374
33.5806
35.4008
36.9205
38.1797
39.1254
1.77422
1.76858
1.76316
1.75799
1.7531
1.7485
1.74421
1.74028
1.73693
1.73477
1.73525
1.74083
1.76449
2.14226
3.90487
6.28662
7.76713
10.0454
12.8691
16.0675
19.4771
22.887
26.1121
29.0409
31.6119
33.798
35.6454
37.1799
38.4419
39.3811
1.77422
1.76858
1.76317
1.758
1.75311
1.74852
1.74424
1.74033
1.73702
1.73486
1.73523
1.74051
1.75997
2.03831
3.63159
6.12378
7.57917
9.74041
12.5355
15.7785
19.2665
22.7535
26.0436
29.0193
31.6253
33.8474
35.7221
37.2737
38.5466
39.4897
1.77414
1.76829
1.76254
1.75691
1.7515
1.74644
1.74194
1.73834
1.73604
1.73535
1.73633
1.73867
1.74247
1.76191
2.08425
3.31952
5.18603
6.66768
8.1445
10.2326
12.673
15.0334
17.2846
19.3979
21.3581
23.162
24.8155
26.3156
27.6452
28.6351
1.77414
1.76829
1.76254
1.75691
1.75149
1.74642
1.74193
1.73836
1.73614
1.7356
1.73673
1.7391
1.74368
1.80806
2.41561
3.96327
5.73209
6.98314
8.5757
10.7437
13.1508
15.4654
17.677
19.758
21.6927
23.4775
25.1191
26.6114
27.9368
28.9271
1.77414
1.7683
1.76254
1.75691
1.75149
1.74642
1.74195
1.73847
1.73647
1.73633
1.73792
1.74046
1.74709
1.89042
2.77192
4.51292
6.1472
7.40554
9.24086
11.441
13.7397
15.9834
18.1392
20.1727
22.0692
23.8273
25.4482
26.9306
28.2524
29.246
1.77414
1.7683
1.76255
1.75691
1.75148
1.74642
1.742
1.73868
1.73709
1.73773
1.74026
1.74327
1.75475
2.00574
3.1474
5.01799
6.54075
8.06598
10.0521
12.2059
14.4107
16.5868
18.6752
20.647
22.4912
24.2103
25.8023
27.2679
28.5814
29.5777
1.77415
1.76831
1.76255
1.75691
1.75148
1.74642
1.74207
1.73901
1.73813
1.7403
1.74487
1.74913
1.77182
2.16422
3.5586
5.52455
7.052
8.95099
11.0057
13.1221
15.2577
17.3424
19.3355
21.218
22.9878
24.6438
26.191
27.6278
28.924
29.9179
1.77415
1.76831
1.76256
1.75691
1.75147
1.74643
1.74218
1.73954
1.73994
1.74532
1.75468
1.76234
1.8149
2.42267
4.1125
6.1828
8.11089
10.2783
12.3592
14.419
16.4275
18.3581
20.1967
21.939
23.5925
25.155
26.6322
28.021
29.2868
30.2688
1.77415
1.76831
1.76256
1.75691
1.75146
1.74643
1.74232
1.74034
1.74313
1.75632
1.77771
1.79518
1.93656
3.07799
5.2325
7.51933
10.1135
12.3619
14.3913
16.2698
18.0321
19.7012
21.2959
22.8316
24.3138
25.7476
27.1309
28.4537
29.6754
30.635
1.77416
1.76833
1.76255
1.7569
1.75145
1.74643
1.74249
1.74138
1.74905
1.77786
1.83954
1.89723
2.36474
5.36958
8.23965
11.0817
13.429
15.3929
17.0805
18.5722
19.9417
21.2414
22.5226
23.8036
25.0928
26.3841
27.6655
28.9176
30.0897
31.0202
1.77416
1.76835
1.76257
1.75691
1.75143
1.7464
1.74257
1.74247
1.75693
1.8182
1.8886
2.17526
2.715
10.7179
15.3219
16.3271
17.4295
18.5602
19.6188
20.5982
21.5492
22.5206
23.5425
24.6344
25.7884
26.9837
28.1946
29.395
30.5266
31.4291
1.77417
1.76835
1.76259
1.75693
1.75143
1.74632
1.74246
1.74303
1.76305
1.85851
2.0521
3.17262
4.42849
17.8984
18.3022
18.7685
19.2369
19.8153
20.4899
21.2413
22.073
22.9944
24.0092
25.1122
26.2788
27.4777
28.6844
29.8724
30.9843
31.8668
1.77416
1.76834
1.76258
1.75691
1.75138
1.74619
1.74209
1.74197
1.76032
1.85447
2.10894
3.63874
4.59641
15.9879
16.1649
16.6371
17.3101
18.1737
19.1646
20.2548
21.4231
22.6574
23.9435
25.2608
26.5789
27.8756
29.1361
30.3423
31.4489
32.3158
1.77416
1.76834
1.76255
1.75686
1.75129
1.74602
1.74153
1.73969
1.74974
1.80593
1.92828
2.48889
3.2565
12.597
11.1661
12.3003
13.755
15.3394
16.982
18.6614
20.3569
22.0438
23.6957
25.2915
26.809
28.237
29.571
30.8052
31.9095
32.7584
1.77415
1.76832
1.76252
1.75682
1.75124
1.74586
1.74098
1.73768
1.74034
1.76383
1.83814
1.93538
2.3285
4.5453
6.69827
9.01734
11.1599
13.241
15.343
17.462
19.5653
21.612
23.5632
25.3908
27.0756
28.6126
30.0072
31.2615
32.3563
33.181
1.77415
1.7683
1.76252
1.75681
1.75119
1.74573
1.74057
1.73627
1.7347
1.74273
1.76832
1.8107
2.05956
3.46716
5.73381
7.67255
9.89693
12.1238
14.4364
16.8001
19.1573
21.4445
23.6057
25.6008
27.4074
29.0193
30.4498
31.7059
32.781
33.5746
1.77414
1.7683
1.76251
1.75679
1.75116
1.74564
1.74032
1.73546
1.73206
1.73289
1.74381
1.77018
1.98237
3.31032
5.66208
7.41419
9.43402
11.6386
14.0157
16.5033
19.0163
21.4658
23.7744
25.8873
27.7796
29.4381
30.8854
32.13
33.1767
33.9333
1.77414
1.76829
1.76251
1.75678
1.75113
1.74559
1.74019
1.73508
1.73084
1.72913
1.7337
1.75078
1.92934
3.19255
5.63951
7.49691
9.30946
11.452
13.8294
16.3824
19.0034
21.5767
23.9989
26.2007
28.1515
29.8425
31.293
32.5198
33.535
34.2536
1.77414
1.76829
1.7625
1.75677
1.75111
1.74556
1.74013
1.73494
1.7304
1.72767
1.72946
1.74151
1.88269
3.03396
5.54233
7.61523
9.29114
11.357
13.7107
16.3057
19.0182
21.7013
24.2213
26.4953
28.4875
30.2018
31.6535
32.8619
33.8474
34.5313
1.77414
1.76829
1.76249
1.75676
1.7511
1.74555
1.74012
1.73492
1.7303
1.72719
1.72779
1.73696
1.84058
2.83997
5.35623
7.69842
9.2844
11.2556
13.5809
16.2108
19.0092
21.7936
24.3997
26.7333
28.7587
30.4876
31.943
33.1381
34.1012
34.7574
1.77414
1.76829
1.76249
1.75676
1.75111
1.74556
1.74014
1.73498
1.73038
1.72718
1.72732
1.735
1.80489
2.63002
5.08783
7.70068
9.24767
11.1258
13.4146
16.0733
18.9419
21.8125
24.4975
26.8761
28.9262
30.6687
32.1304
33.3207
34.2717
34.9106
1.77414
1.76829
1.7625
1.75677
1.75112
1.74557
1.74017
1.73502
1.73045
1.72725
1.72727
1.73437
1.77914
2.43532
4.77686
7.59593
9.16516
10.963
13.2185
15.8895
18.8007
21.7236
24.4575
26.8736
28.9403
30.6982
32.1684
33.3631
34.3128
34.9459
1.77414
1.76829
1.76252
1.75685
1.75139
1.74625
1.74161
1.73778
1.73514
1.73404
1.73464
1.73683
1.74198
1.81273
2.43175
4.06736
6.1129
7.58633
9.06308
10.9347
12.9613
14.9177
16.812
18.61
20.2949
21.8608
23.3086
24.6327
25.8092
26.6707
1.77414
1.76829
1.76251
1.75685
1.75138
1.74623
1.74159
1.73777
1.73517
1.73414
1.73483
1.7371
1.74581
1.9228
2.90518
4.77478
6.63421
7.89431
9.44645
11.3477
13.3538
15.2922
17.1684
18.9502
20.622
22.1785
23.6203
24.9429
26.1181
26.9814
1.77414
1.76829
1.76252
1.75685
1.75138
1.74622
1.74159
1.73782
1.73534
1.73456
1.73551
1.73809
1.75629
2.07719
3.35986
5.35673
7.0264
8.30751
9.99885
11.8958
13.8435
15.757
17.6067
19.3638
21.0153
22.5573
23.9902
25.3105
26.486
27.3539
1.77414
1.7683
1.76252
1.75685
1.75137
1.74621
1.74159
1.73791
1.73567
1.73533
1.7368
1.74002
1.77945
2.26576
3.80156
5.85659
7.36877
8.86634
10.6428
12.5143
14.4275
16.314
18.13
19.8533
21.4752
22.994
24.4125
25.7241
26.8969
27.7686
1.77414
1.7683
1.76253
1.75685
1.75136
1.7462
1.74161
1.73806
1.7362
1.73665
1.73916
1.74357
1.81537
2.47489
4.22112
6.29617
7.77555
9.53506
11.3709
13.2598
15.1536
16.9986
18.764
20.436
22.0117
23.4927
24.8841
26.1779
27.3395
28.2093
1.77414
1.7683
1.76253
1.75685
1.75135
1.74618
1.74163
1.73828
1.73706
1.73898
1.74377
1.75046
1.86115
2.69808
4.61701
6.7176
8.44821
10.4147
12.3345
14.2349
16.0834
17.8553
19.5383
21.13
22.6343
24.0583
25.4036
26.6654
27.8045
28.6638
1.77415
1.7683
1.76253
1.75684
1.75134
1.74616
1.74166
1.73861
1.73843
1.74334
1.7533
1.76483
1.92772
2.96797
5.00421
7.18508
9.46924
11.6112
13.5991
15.4682
17.2267
18.8814
20.4426
21.9215
23.329
24.6758
25.9606
27.1762
28.2809
29.1203
1.77416
1.76832
1.76252
1.75684
1.75132
1.74613
1.74167
1.73899
1.74049
1.75198
1.77388
1.79652
2.05716
3.46086
5.49155
8.24826
10.8765
13.0863
15.0522
16.8278
18.4567
19.9636
21.3833
22.7357
24.0414
25.3048
26.5251
27.6907
28.7548
29.5673
1.77417
1.76834
1.76255
1.75683
1.75129
1.74608
1.74163
1.73927
1.74323
1.76452
1.81512
1.86743
2.3544
4.68596
7.08718
9.88843
12.3425
14.4524
16.306
17.9637
19.47
20.8588
22.1765
23.4459
24.682
25.8897
27.0618
28.1857
29.2125
29.9962
1.77417
1.76834
1.76257
1.75685
1.75129
1.746
1.74149
1.73918
1.74507
1.77584
1.86635
1.94823
2.61189
5.39162
7.97507
10.7179
13.0509
15.0688
16.8571
18.4738
19.9594
21.3439
22.6687
23.946
25.1862
26.3884
27.5466
28.6479
29.6464
30.4029
1.77416
1.76833
1.76256
1.75683
1.75125
1.74589
1.74121
1.73847
1.74352
1.7738
1.87037
1.96398
2.61473
5.23136
7.7401
10.3812
12.6727
14.7078
16.5644
18.2856
19.8983
21.4209
22.8711
24.2475
25.5596
26.8041
27.9785
29.0734
30.0499
30.7791
1.77416
1.76833
1.76253
1.75679
1.75118
1.74577
1.74085
1.73738
1.73911
1.75916
1.82052
1.89884
2.38016
4.32174
6.76917
9.38163
11.7102
13.8386
15.8457
17.7574
19.5789
21.309
22.9374
24.4556
25.8675
27.1726
28.3739
29.466
30.4202
31.119
1.77416
1.76831
1.7625
1.75677
1.75113
1.74566
1.74051
1.73634
1.73516
1.74492
1.77583
1.82521
2.26125
3.88105
6.1058
8.56373
10.8994
13.0835
15.2182
17.3039
19.3191
21.235
23.0285
24.6785
26.1796
27.5351
28.7528
29.833
30.758
31.4204
1.77415
1.76829
1.76249
1.75675
1.7511
1.74557
1.74026
1.73556
1.73273
1.73544
1.75148
1.79002
2.2352
3.99843
6.42915
8.41828
10.5251
12.6659
14.8567
17.058
19.2174
21.2796
23.2014
24.9502
26.5165
27.9034
29.1213
30.1778
31.0642
31.6838
1.77414
1.76829
1.76249
1.75674
1.75107
1.74551
1.74011
1.73512
1.73134
1.73102
1.7395
1.7693
2.19491
4.02505
6.66545
8.57662
10.4619
12.5208
14.7163
16.9859
19.2496
21.4239
23.4399
25.2565
26.8627
28.2637
29.4704
30.4947
31.3373
31.9105
1.77414
1.76829
1.76248
1.75672
1.75105
1.74547
1.74003
1.73491
1.73069
1.72898
1.73368
1.75701
2.13662
3.94481
6.74919
8.77938
10.5269
12.5127
14.6856
16.9967
19.3447
21.6155
23.711
25.577
27.2028
28.6013
29.7886
30.7766
31.5741
32.1013
1.77414
1.76828
1.76248
1.75671
1.75104
1.74545
1.74
1.73484
1.73045
1.72811
1.73092
1.74916
2.06469
3.78028
6.71662
8.97519
10.6363
12.5424
14.687
17.0305
19.4528
21.8075
23.9706
25.8742
27.5087
28.8979
30.0615
31.015
31.7706
32.2562
1.77414
1.76828
1.76247
1.75671
1.75103
1.74545
1.74001
1.73485
1.73043
1.72784
1.72973
1.74416
1.98808
3.55084
6.57648
9.13489
10.7566
12.5906
14.7067
17.075
19.5517
21.9678
24.1828
26.1148
27.7506
29.1294
30.2731
31.1977
31.9192
32.3708
1.77414
1.76828
1.76247
1.75671
1.75103
1.74544
1.74001
1.73488
1.73047
1.72782
1.72932
1.7414
1.91669
3.27787
6.33112
9.2142
10.8703
12.6362
14.7265
17.1065
19.6127
22.0615
24.3077
26.2574
27.8945
29.2665
30.3984
31.3042
32.0042
32.4313
1.77414
1.76828
1.76248
1.75672
1.75104
1.74547
1.74005
1.73495
1.73058
1.72796
1.72939
1.74035
1.86101
3.0027
6.01256
9.16329
10.9358
12.6266
14.6889
17.0617
19.5732
22.0323
24.2903
26.253
27.8965
29.2694
30.4001
31.3
31.9926
32.4081
1.77414
1.76829
1.76251
1.75685
1.75138
1.74621
1.74152
1.73758
1.73475
1.73339
1.73377
1.73599
1.7447
1.90407
2.83992
4.77147
6.90681
8.38003
9.87084
11.6259
13.4392
15.1832
16.8728
18.4819
19.9966
21.4117
22.7267
23.9343
25.0055
25.7786
1.77414
1.76829
1.76251
1.75684
1.75137
1.74619
1.74149
1.73755
1.73473
1.73341
1.73382
1.73632
1.75762
2.09872
3.42431
5.51604
7.41791
8.70457
10.2357
11.9954
13.7946
15.5306
17.2124
18.8142
20.3233
21.7351
23.049
24.2581
25.331
26.1071
1.77414
1.76829
1.76252
1.75684
1.75136
1.74618
1.74147
1.73755
1.73479
1.7336
1.73417
1.7374
1.78955
2.33404
3.95461
6.11561
7.80106
9.10734
10.7229
12.4681
14.2352
15.9656
17.6375
19.2289
20.7298
22.1369
23.45
24.6618
25.7391
26.5213
1.77414
1.7683
1.76252
1.75684
1.75135
1.74616
1.74146