/*--------------------------------*- C++ -*----------------------------------*\
| =========                 |                                                 |
| \\      /  F ield         | OpenFOAM: The Open Source CFD Toolbox           |
|  \\    /   O peration     | Version:  2512                                  |
|   \\  /    A nd           | Website:  www.openfoam.com                      |
|    \\/     M anipulation  |                                                 |
\*---------------------------------------------------------------------------*/
FoamFile
{
    version     2.0;
    format      ascii;
    arch        "LSB;label=32;scalar=64";
    class       volScalarField;
    location    "180";
    object      omega;
}
// * * * * * * * * * * * * * * * * * * * * * * * * * * * * * * * * * * * * * //

dimensions      [0 0 -1 0 0 0 0];

internalField   nonuniform List<scalar> 
84826
(
16.0845
15.8153
15.5583
15.3125
15.0771
14.8509
14.6334
14.4234
14.2234
14.034
13.8543
13.6897
13.5275
13.3673
13.217
13.0703
12.9273
12.788
12.6518
12.5187
12.389
12.2627
12.1397
12.0198
11.903
11.7892
11.6782
11.5699
11.4642
11.3607
16.0845
15.8154
15.5585
15.3128
15.0777
14.852
14.6348
14.4252
14.226
14.0373
13.8585
13.6947
13.5334
13.3735
13.2235
13.0768
12.9334
12.794
12.6576
12.5242
12.3942
12.2676
12.1442
12.024
11.9069
11.7928
11.6814
11.5727
11.4666
11.3629
16.0846
15.8155
15.5586
15.3132
15.0783
14.853
14.637
14.428
14.2293
14.0421
13.8651
13.7038
13.5442
13.3852
13.2358
13.0891
12.9459
12.8062
12.669
12.5352
12.4049
12.2779
12.1542
12.0338
11.9165
11.8022
11.6907
11.5819
11.4757
11.3719
16.0846
15.8155
15.5588
15.3135
15.0788
14.854
14.6386
14.4304
14.2332
14.0482
13.8744
13.7155
13.5591
13.4031
13.2547
13.1082
12.9646
12.8245
12.6867
12.5523
12.4215
12.2939
12.1699
12.049
11.9312
11.8163
11.7043
11.5949
11.4881
11.3837
16.0846
15.8156
15.5589
15.3137
15.0793
14.8549
14.6403
14.4329
14.2375
14.0557
13.8835
13.7004
13.5507
13.4246
13.2784
13.1324
12.9882
12.8477
12.7094
12.5747
12.4436
12.3162
12.1923
12.0718
11.9545
11.8401
11.7285
11.6195
11.5131
11.4088
16.0846
15.8156
15.559
15.3139
15.0796
14.8557
14.6418
14.4356
14.2426
14.0608
13.8917
13.7377
13.5915
13.4507
13.3082
13.1631
13.0189
12.8814
12.7478
12.6201
12.4979
12.3798
12.2641
12.15
12.037
11.925
11.8142
11.7051
11.5985
11.4954
16.0846
15.8156
15.5591
15.314
15.0799
14.8563
14.643
14.4398
14.2469
14.0663
13.9137
13.8008
13.6934
13.6696
13.5776
13.4657
13.5349
13.6498
13.7703
13.8907
13.9925
14.0559
14.0733
14.0474
13.9848
13.8948
13.7872
13.6725
13.5584
13.46
16.0846
15.8156
15.5591
15.3141
15.0801
14.8569
14.6443
14.4443
14.2498
14.0737
27.8156
27.269
26.7935
27.2784
22.932
23.8938
24.7718
25.3869
25.7626
25.9575
25.9953
25.8935
25.6784
25.3787
25.0185
24.6203
24.2001
23.7801
23.3554
22.964
16.0846
15.8156
15.5591
15.3142
15.0804
14.8573
14.6454
14.4469
14.2552
14.0925
27.8802
27.889
29.4941
61.6053
51.8224
49.3718
47.1215
45.0584
43.1861
41.4956
39.9529
38.5368
37.2547
36.0792
34.9936
33.9877
33.0556
32.1895
31.3958
30.6409
16.0847
15.8159
15.5596
15.3149
15.0814
14.8586
14.6471
14.4479
14.2608
14.1242
28.0367
57.5043
100.637
224.785
56.9018
51.8306
49.1799
46.7729
44.6389
42.7404
41.0261
39.4651
38.0394
36.7352
35.5417
34.4502
33.4562
32.5468
31.7218
30.9452
16.0849
15.8163
15.5602
15.3156
15.0823
14.859
14.6472
14.448
14.2609
14.1246
28.1031
60.0542
242.659
59.492
52.0271
49.839
47.8144
45.9798
44.3153
42.7757
41.3405
39.993
38.7185
37.5037
36.3368
35.2096
34.1183
33.0752
32.0542
16.0849
15.8161
15.5596
15.3149
15.0814
14.8579
14.6457
14.4472
14.2557
14.0937
27.9219
55.9445
88.0627
190.453
36.2987
34.5901
33.7762
33.5095
33.5529
33.6859
33.7816
33.8073
33.7531
33.6225
33.419
33.1489
32.8199
32.4464
32.0648
31.7192
16.0848
15.8158
15.5592
15.3142
15.0804
14.8573
14.6448
14.445
14.2506
14.0754
27.8407
27.4708
28.5182
30.5956
14.6477
14.5423
14.5816
14.7112
14.997
15.6376
16.59
17.6853
18.8055
19.8885
20.8987
21.8145
22.6192
23.3154
23.873
24.3776
16.0847
15.8157
15.5592
15.3142
15.0802
14.8568
14.6436
14.4407
14.248
14.068
13.9179
13.8121
13.7018
13.543
13.4002
13.2589
13.1265
12.9975
12.8712
12.7521
12.6571
12.6204
12.685
12.8566
13.1277
13.4782
13.881
14.3136
14.7466
15.1849
16.0847
15.8157
15.5591
15.3142
15.08
14.8562
14.6425
14.4365
14.2441
14.0627
13.8948
13.7429
13.5992
13.4577
13.3202
13.1851
13.0481
12.9114
12.772
12.6315
12.4932
12.3595
12.2329
12.1168
12.0148
11.9293
11.8622
11.8135
11.7834
11.7674
16.0846
15.8156
15.5591
15.314
15.0796
14.8554
14.641
14.434
14.2391
14.058
13.8867
13.7049
13.5577
13.4348
13.2927
13.1533
13.0139
12.8763
12.7384
12.6015
12.4658
12.332
12.2012
12.074
11.9512
11.8324
11.7176
11.6068
11.5
11.3974
16.0846
15.8156
15.5589
15.3137
15.0792
14.8545
14.6394
14.4315
14.2349
14.0507
13.8781
13.721
13.5668
13.4126
13.2669
13.1242
12.983
12.8443
12.7063
12.5701
12.4356
12.3032
12.1739
12.0483
11.9263
11.8078
11.6926
11.5805
11.4713
11.3651
16.0846
15.8155
15.5587
15.3134
15.0786
14.8535
14.6377
14.4292
14.2313
14.045
13.8693
13.7096
13.5518
13.3942
13.2463
13.1019
12.9599
12.8208
12.683
12.5475
12.4145
12.2839
12.1562
12.0316
11.9106
11.7931
11.6788
11.5677
11.4595
11.3543
16.0845
15.8154
15.5586
15.313
15.0779
14.8524
14.6357
14.4267
14.2283
14.0407
13.8633
13.7012
13.5414
13.3826
13.2336
13.0883
12.9456
12.8063
12.6691
12.5343
12.4021
12.2726
12.146
12.0223
11.9017
11.7846
11.6708
11.5601
11.4523
11.3475
16.0845
15.8153
15.5583
15.3126
15.0773
14.8515
14.6345
14.4252
14.2263
14.0381
13.8599
13.6969
13.5361
13.3768
13.2273
13.0815
12.9387
12.7991
12.6619
12.5271
12.3952
12.266
12.1397
12.0164
11.8963
11.7796
11.6662
11.5558
11.4484
11.3439
1.93987
2.08187
2.20871
2.32331
2.42799
2.5246
2.6144
2.6991
2.78197
2.862
2.93834
3.00819
3.06976
3.12091
3.16281
3.19737
3.22789
3.25399
3.27665
3.2964
3.31362
3.32844
3.34113
3.35194
3.36109
3.36876
3.37507
3.38029
3.38453
3.38802
1.93988
2.08193
2.20885
2.32357
2.42847
2.5255
2.61607
2.70172
2.78646
2.8693
2.94935
3.02335
3.08843
3.14229
3.18555
3.22075
3.25199
3.2787
3.30202
3.32234
3.34003
3.35525
3.36822
3.37915
3.38829
3.39577
3.40178
3.40658
3.4103
3.41322
1.93984
2.08204
2.20907
2.32402
2.42937
2.52729
2.61971
2.70739
2.79629
2.88552
2.97435
3.0578
3.13109
3.19111
3.23743
3.27391
3.30674
3.33453
3.35901
3.38016
3.39829
3.4135
3.42594
3.43579
3.44338
3.44883
3.45244
3.45454
3.45536
3.45517
1.93977
2.08214
2.20937
2.32464
2.43064
2.52979
2.62455
2.716
2.81189
2.91265
3.0198
3.12084
3.2111
3.28322
3.3356
3.37477
3.41039
3.44091
3.46791
3.49129
3.51147
3.52844
3.54223
3.55313
3.56144
3.5675
3.57168
3.57438
3.57592
3.57668
1.93981
2.08214
2.20971
2.32542
2.43221
2.53297
2.63083
2.72795
2.83481
2.95708
3.08687
3.21696
3.34003
3.43792
3.50244
3.54868
3.59271
3.63159
3.66525
3.69335
3.71666
3.73478
3.74757
3.7553
3.75859
3.75805
3.75442
3.74847
3.74093
3.73281
1.93985
2.08216
2.20992
2.32626
2.43397
2.5366
2.63836
2.74353
2.86796
3.01122
3.1916
3.37823
3.57376
3.73354
3.83387
3.90254
3.97089
4.03464
4.09192
4.14242
4.1867
4.22423
4.25408
4.27663
4.29245
4.30224
4.30706
4.30798
4.30612
4.30245
1.93987
2.08229
2.21012
2.32689
2.43574
2.54037
2.64669
2.76347
2.90477
3.0942
3.40552
3.81234
4.25727
4.71701
4.98687
5.20487
5.41726
5.61657
5.79587
5.95496
6.09115
6.20158
6.28531
6.34328
6.37831
6.39398
6.3945
6.38495
6.36971
6.35755
1.93989
2.08242
2.21042
2.32743
2.43714
2.54369
2.65487
2.7865
2.944
3.24498
3.62281
4.99249
6.70627
10.8023
22.7246
23.5037
23.9245
24.065
23.9706
23.6992
23.2894
22.771
22.185
21.5665
20.942
20.3318
19.7505
19.2138
18.7244
18.3244
1.93991
2.08252
2.21067
2.32797
2.43821
2.54634
2.66173
2.8055
2.99357
3.52965
4.529
12.8885
28.9981
88.7473
113.914
91.8779
78.1731
69.07
62.7662
58.1412
54.456
51.3479
48.5578
46.0092
43.6762
41.5471
39.6155
37.8639
36.2968
34.861
1.94002
2.08275
2.21106
2.32861
2.43925
2.54832
2.66617
2.81157
3.03754
3.85599
7.58045
542.947
1393.74
437.171
136.241
106.164
88.8296
76.9158
68.1447
61.367
55.9096
51.3962
47.5923
44.3388
41.5225
39.0629
36.9062
34.9963
33.3227
31.7946
1.94012
2.08293
2.2113
2.32886
2.43951
2.548
2.6657
2.81074
3.03656
3.85947
8.14635
787.348
121.163
95.3973
80.5621
70.2413
62.6476
56.8513
52.2646
48.5494
45.4912
42.9296
40.7356
38.7949
37.0177
35.3326
33.7422
32.1427
1.94012
2.08265
2.21096
2.32807
2.43829
2.54576
2.66087
2.8038
2.99169
3.53617
5.76791
292.135
955.759
469.393
88.8861
73.8963
63.2486
55.3548
49.4602
45.0005
41.5846
38.9225
36.8419
35.2112
33.9508
33.0116
32.3489
31.8824
31.5389
31.1921
1.94014
2.08238
2.21043
2.32717
2.43678
2.5431
2.65393
2.785
2.94153
3.24612
3.83319
7.64449
12.9596
16.8781
12.5678
13.2162
13.8231
14.3919
14.961
15.5612
16.2172
16.9649
17.8293
18.7639
19.7112
20.6111
21.406
22.0603
22.5877
22.9532
1.94002
2.08227
2.20999
2.32665
2.43531
2.53963
2.64543
2.76136
2.90054
3.08963
3.41062
3.85441
4.28304
4.43973
4.49163
4.49002
4.50286
4.52929
4.57559
4.64653
4.74591
4.88053
5.06282
5.30298
5.60317
5.95517
6.35078
6.77599
7.21684
7.67156
1.93985
2.08211
2.20976
2.32597
2.43345
2.5357
2.63683
2.741
2.86388
3.00407
3.1824
3.36982
3.55025
3.6381
3.66211
3.66808
3.6697
3.67431
3.68342
3.69861
3.72268
3.76076
3.80973
3.86846
3.93679
4.01464
4.10091
4.1926
4.28867
4.3844
1.9398
2.08208
2.20954
2.32509
2.43161
2.53194
2.62912
2.72515
2.83024
2.94973
3.07392
3.19528
3.30262
3.36646
3.39283
3.40977
3.42428
3.4383
3.45229
3.4667
3.48205
3.49882
3.51765
3.53932
3.56474
3.59595
3.63136
3.66964
3.70983
3.75117
1.93976
2.08207
2.20919
2.32428
2.42998
2.52867
2.62272
2.71304
2.80715
2.905
3.00741
3.10077
3.17785
3.22672
3.2554
3.27895
3.29969
3.3191
3.33728
3.35476
3.37202
3.38945
3.40763
3.42773
3.45009
3.47397
3.49881
3.52381
3.54859
3.57275
1.93983
2.08197
2.20888
2.32363
2.42867
2.52611
2.61779
2.70435
2.7915
2.87795
2.96229
3.03865
3.10081
3.14491
3.17636
3.20374
3.22799
3.25091
3.27193
3.29163
3.31031
3.32817
3.34539
3.36214
3.37883
3.39558
3.41283
3.43015
3.44722
3.4638
1.93987
2.08186
2.20865
2.32316
2.42774
2.52428
2.61411
2.69863
2.78165
2.86185
2.93777
3.00545
3.06132
3.10317
3.13597
3.16508
3.19074
3.21555
3.23793
3.25859
3.27786
3.29591
3.31289
3.32891
3.34417
3.35881
3.37336
3.38778
3.40178
3.41517
1.93986
2.0818
2.20851
2.3229
2.42726
2.52338
2.61243
2.69601
2.77718
2.85465
2.92705
2.99103
3.04436
3.08532
3.11871
3.14851
3.17501
3.20059
3.22357
3.24471
3.26435
3.28265
3.29973
3.31571
3.33073
3.34484
3.35859
3.37185
3.38438
3.39606
1.77771
1.77826
1.78111
1.78587
1.79229
1.80014
1.80907
1.82054
1.83343
1.84801
1.86397
1.87992
1.89511
1.9084
1.92019
1.93069
1.93989
1.95001
1.95889
1.9671
1.9748
1.98201
1.98874
1.99502
2.00095
2.00648
2.01157
2.01635
2.02087
2.02519
1.77771
1.77826
1.78112
1.78589
1.79234
1.80027
1.80939
1.82117
1.8345
1.84994
1.86717
1.88432
1.90129
1.91567
1.92817
1.93922
1.94879
1.95927
1.96852
1.97707
1.98507
1.99254
1.99947
2.00594
2.01197
2.01749
2.02255
2.02723
2.0316
2.03574
1.77771
1.77827
1.78114
1.78594
1.79246
1.80058
1.8102
1.82228
1.8367
1.85419
1.87459
1.89505
1.9154
1.93226
1.9463
1.9584
1.9691
1.97997
1.98985
1.99899
2.00745
2.01523
2.02236
2.02885
2.03473
2.03993
2.04457
2.04876
2.0526
2.05618
1.77771
1.77828
1.78116
1.78601
1.79262
1.80097
1.81119
1.82411
1.84054
1.86184
1.88699
1.91273
1.94004
1.96219
1.97945
1.99352
2.00613
2.01845
2.0298
2.04024
2.04985
2.05861
2.06663
2.07377
2.08013
2.08575
2.09079
2.09538
2.09963
2.1037
1.77772
1.77828
1.78119
1.78609
1.79283
1.80147
1.81242
1.82678
1.84653
1.87316
1.90994
1.94779
1.98899
2.02098
2.04493
2.06312
2.07956
2.09536
2.10988
2.12301
2.13481
2.14524
2.15421
2.16154
2.16744
2.17213
2.1759
2.17903
2.18185
2.18465
1.77772
1.77828
1.78122
1.78619
1.79307
1.80206
1.81392
1.83048
1.85462
1.89339
1.96748
2.0407
2.11319
2.16472
2.20171
2.23078
2.25847
2.28516
2.30998
2.33305
2.35476
2.37471
2.39265
2.40825
2.42175
2.43333
2.44332
2.45207
2.46003
2.46771
1.77772
1.7783
1.78124
1.78626
1.79332
1.80271
1.81568
1.8354
1.86688
1.93981
2.12503
2.36569
2.54236
2.67308
2.77885
2.88164
2.99003
3.09312
3.18662
3.27065
3.34413
3.4062
3.45612
3.49473
3.52343
3.5436
3.55716
3.5661
3.57319
3.58139
1.77772
1.77831
1.78127
1.78632
1.79352
1.80332
1.81756
1.84034
1.88698
2.05743
2.25557
3.41494
4.30758
5.08965
10.218
11.2411
11.9732
12.4877
12.8119
12.9965
13.0639
13.0284
12.9121
12.7349
12.5169
12.2748
12.0224
11.7713
11.5374
11.3324
1.77773
1.77832
1.7813
1.7864
1.79369
1.80379
1.8192
1.84548
1.9186
2.34453
3.33096
13.9316
34.2945
38.21
88.4699
73.6524
63.2981
55.4835
49.2055
44.1072
39.8679
36.3119
33.2721
30.6585
28.406
26.4633
24.789
23.3485
22.1106
21.0698
1.77773
1.77833
1.78133
1.78647
1.79382
1.80412
1.82019
1.84867
1.95592
2.75825
6.64898
545.611
511.923
305.374
150.742
111.384
89.2856
74.9028
64.5255
56.7538
50.6606
45.7409
41.6733
38.2463
35.3165
32.7827
30.572
28.6303
26.918
25.4037
1.77773
1.77834
1.78133
1.78647
1.79383
1.80414
1.82019
1.84863
1.95611
2.76058
7.17767
246.592
138.107
103.24
83.7117
71.0033
61.8803
55.0247
49.6384
45.317
41.7379
38.7103
36.1033
33.8237
31.8032
29.99
28.3504
26.8472
1.77773
1.77832
1.7813
1.78639
1.79369
1.8038
1.81918
1.84538
1.91903
2.35137
4.49173
365.931
473.614
273.239
79.8142
66.2976
57.0922
50.5829
45.7732
42.1442
39.3344
37.0783
35.229
33.6827
32.3707
31.198
30.0895
28.985
27.8478
26.6462
1.77772
1.77831
1.78126
1.78631
1.7935
1.80327
1.81746
1.84014
1.88708
2.06156
2.5355
6.71867
9.6929
10.6202
8.75362
9.44146
9.88832
10.2389
10.5776
10.9695
11.4238
11.9281
12.4567
12.9945
13.5235
14.0211
14.4687
14.8483
15.1592
15.3786
1.77772
1.7783
1.78121
1.78624
1.79328
1.80262
1.81552
1.83512
1.86643
1.9406
2.13328
2.39499
2.55403
2.62305
2.66632
2.7003
2.74521
2.79459
2.84839
2.91165
2.98842
3.08359
3.20137
3.34954
3.52844
3.73112
3.94953
4.17469
4.40053
4.61955
1.77772
1.77828
1.7812
1.78616
1.79301
1.80194
1.81371
1.83013
1.85395
1.89249
1.9678
2.04338
2.10995
2.1424
2.15849
2.16989
2.18171
2.19313
2.20505
2.21818
2.23357
2.25283
2.27782
2.3079
2.34301
2.38242
2.42565
2.47149
2.51948
2.56775
1.77772
1.77828
1.78118
1.78606
1.79276
1.80134
1.8122
1.82639
1.84584
1.87188
1.90772
1.94391
1.98041
2.00144
2.01528
2.02725
2.03726
2.04646
2.05527
2.06408
2.07319
2.08292
2.09346
2.105
2.11785
2.132
2.148
2.16554
2.18411
2.20337
1.77771
1.77827
1.78115
1.78598
1.79255
1.80083
1.81095
1.82369
1.83982
1.86055
1.88454
1.90824
1.93161
1.94781
1.95953
1.96991
1.97912
1.98801
1.99647
2.00477
2.01308
2.02154
2.03037
2.03968
2.05004
2.06115
2.07277
2.08486
2.09718
2.10958
1.77771
1.77826
1.78112
1.78591
1.79238
1.80043
1.80995
1.82186
1.83597
1.85291
1.87225
1.89084
1.90814
1.9208
1.93105
1.94071
1.94954
1.95838
1.96679
1.97502
1.98315
1.99127
1.99944
2.00771
2.01615
2.02489
2.03392
2.0431
2.05229
2.06152
1.77771
1.77826
1.7811
1.78586
1.79226
1.80013
1.80914
1.82074
1.83377
1.84868
1.86493
1.88039
1.89476
1.9059
1.91559
1.92501
1.9339
1.94262
1.95109
1.9593
1.96736
1.97531
1.98317
1.99101
1.99884
2.00676
2.01479
2.02291
2.03098
2.03895
1.77771
1.77826
1.7811
1.78584
1.79221
1.8
1.80883
1.82012
1.83272
1.84678
1.8618
1.87615
1.88899
1.89946
1.90892
1.91824
1.92709
1.93582
1.94431
1.95253
1.96057
1.96848
1.97628
1.98399
1.99169
1.99945
2.00717
2.01484
2.02239
2.02969
1.77422
1.76858
1.76318
1.75804
1.75323
1.74876
1.74473
1.74139
1.7388
1.73717
1.73642
1.73591
1.73496
1.73358
1.73215
1.73074
1.7292
1.72789
1.72664
1.72537
1.72412
1.72291
1.72174
1.72058
1.71945
1.71832
1.71723
1.71614
1.71508
1.71406
1.77422
1.76858
1.76318
1.75805
1.75323
1.74879
1.7448
1.74154
1.73914
1.73786
1.73769
1.73767
1.73749
1.73652
1.73536
1.73416
1.73278
1.73163
1.73054
1.72942
1.72832
1.72724
1.72619
1.72514
1.72408
1.72304
1.72199
1.72093
1.71988
1.71885
1.77422
1.76859
1.76318
1.75805
1.75325
1.74884
1.74491
1.74189
1.73992
1.73951
1.7408
1.74218
1.7437
1.74369
1.74316
1.74237
1.74122
1.74055
1.73974
1.7389
1.73806
1.73722
1.73636
1.73547
1.73452
1.73358
1.73257
1.73153
1.73048
1.72944
1.77422
1.76859
1.76319
1.75807
1.75328
1.74893
1.74516
1.74245
1.7413
1.74265
1.74677
1.75152
1.75556
1.75748
1.75823
1.75826
1.75784
1.75774
1.75756
1.75733
1.75707
1.75677
1.75641
1.75594
1.75542
1.75482
1.75414
1.75342
1.75269
1.75199
1.77422
1.76859
1.76319
1.75808
1.75332
1.74905
1.74551
1.74335
1.74367
1.74816
1.75957
1.77155
1.78205
1.78749
1.79078
1.79246
1.79346
1.79475
1.79597
1.79713
1.79823
1.79919
1.79993
1.80043
1.80068
1.80066
1.80044
1.80007
1.79964
1.79923
1.77423
1.76859
1.76319
1.75809
1.75338
1.74921
1.74598
1.74474
1.74748
1.75986
1.79241
1.82681
1.8507
1.8642
1.87219
1.87815
1.88381
1.88987
1.89586
1.90177
1.90759
1.91319
1.91845
1.92329
1.92764
1.93149
1.93492
1.93807
1.94107
1.94405
1.77423
1.7686
1.7632
1.75811
1.75343
1.74939
1.74659
1.74676
1.75443
1.78721
1.88245
2.00196
2.06715
2.1082
2.13917
2.16962
2.20896
2.24865
2.28672
2.32247
2.35525
2.38422
2.40848
2.42776
2.4419
2.4517
2.45871
2.46454
2.47011
2.47633
1.77423
1.7686
1.76321
1.75813
1.75349
1.74959
1.7473
1.74936
1.76673
1.8569
1.97187
2.59372
3.04162
3.2175
4.40141
4.61246
4.85254
5.07199
5.25962
5.41464
5.53706
5.62279
5.67209
5.68589
5.67076
5.63454
5.5884
5.54079
5.49694
5.46466
1.77424
1.76861
1.76323
1.75816
1.75357
1.74976
1.74799
1.75245
1.78591
2.0133
2.55389
7.59375
18.4914
19.8558
31.9756
28.7598
26.2193
24.0793
22.2212
20.6162
19.2036
17.9592
16.8563
15.8829
15.0167
14.2463
13.5603
12.9456
12.3965
11.9174
1.77424
1.76862
1.76324
1.75819
1.75362
1.7499
1.74848
1.75485
1.8074
2.24981
4.13358
280.38
543.276
370.743
95.8332
76.7234
64.097
55.1923
48.4984
43.373
39.2513
35.8462
32.9902
30.5302
28.3777
26.4714
24.7684
23.2369
21.8522
20.5954
1.77423
1.76861
1.76324
1.75818
1.7536
1.74989
1.74848
1.75487
1.80767
2.2517
4.50207
436.828
324.798
283.117
101.415
80.9319
67.5546
58.0814
50.9524
45.3738
40.8675
37.1606
34.0409
31.3675
29.0682
27.0619
25.2978
23.7379
22.3477
21.1169
1.77423
1.7686
1.76322
1.75815
1.75354
1.74976
1.74799
1.75253
1.78649
2.01844
3.0456
154.111
691.682
402.63
39.1266
34.6105
31.2473
28.656
26.5863
24.9062
23.5237
22.383
21.4117
20.5174
19.6572
18.7912
17.9199
17.0544
16.2184
15.4346
1.77422
1.7686
1.76321
1.75813
1.75349
1.74959
1.74731
1.74943
1.76726
1.86037
2.13282
4.15621
5.65305
5.84611
4.5317
4.83938
5.08196
5.25652
5.39692
5.52663
5.66675
5.84365
6.06833
6.32657
6.60174
6.88248
7.15583
7.40857
7.63472
7.80974
1.77423
1.7686
1.7632
1.75811
1.75343
1.74939
1.74661
1.74682
1.75474
1.78871
1.88896
2.02078
2.08902
2.11573
2.14068
2.16083
2.18654
2.21258
2.23843
2.26556
2.29526
2.32889
2.36715
2.41121
2.4611
2.51676
2.57758
2.64306
2.71167
2.78167
1.77423
1.76859
1.76319
1.75809
1.75338
1.74921
1.746
1.74479
1.7476
1.76038
1.79445
1.83149
1.85627
1.86737
1.87323
1.87589
1.87776
1.87908
1.88044
1.88226
1.88488
1.88863
1.89395
1.9013
1.91052
1.92149
1.93408
1.94808
1.96324
1.97906
1.77422
1.76859
1.76319
1.75808
1.75333
1.74906
1.74553
1.74339
1.74376
1.74833
1.76001
1.77245
1.783
1.78713
1.78931
1.79025
1.78992
1.78924
1.7884
1.78765
1.78715
1.78701
1.78735
1.78825
1.78978
1.79202
1.79502
1.79866
1.80287
1.80753
1.77422
1.76859
1.76319
1.75807
1.75329
1.74894
1.74518
1.74249
1.74138
1.74274
1.74679
1.75134
1.75482
1.75598
1.75617
1.75583
1.75494
1.75384
1.75269
1.75155
1.75053
1.74969
1.74909
1.74882
1.74895
1.74956
1.75056
1.75188
1.75351
1.75535
1.77422
1.76859
1.76318
1.75806
1.75326
1.74885
1.74493
1.74193
1.73998
1.73958
1.74074
1.74179
1.74268
1.74193
1.74088
1.73979
1.73854
1.73716
1.73583
1.73455
1.73337
1.73232
1.73145
1.73077
1.73033
1.73017
1.73027
1.73059
1.73109
1.73174
1.77422
1.76859
1.76318
1.75805
1.75324
1.7488
1.74482
1.74159
1.7392
1.73792
1.73761
1.73723
1.73642
1.73477
1.73315
1.73171
1.73028
1.72878
1.72739
1.72604
1.72478
1.72364
1.72263
1.72176
1.72107
1.72057
1.7203
1.7202
1.72024
1.7204
1.77422
1.76859
1.76318
1.75805
1.75324
1.74878
1.74476
1.74144
1.73887
1.73723
1.73633
1.73544
1.73388
1.73185
1.72998
1.72838
1.72684
1.7253
1.72385
1.72246
1.72116
1.71997
1.71891
1.71799
1.71723
1.71664
1.71626
1.716
1.71586
1.71578
1.77414
1.76829
1.76249
1.75674
1.75107
1.7455
1.74005
1.73486
1.73003
1.72568
1.72172
1.71778
1.71346
1.70888
1.70432
1.69985
1.69542
1.69098
1.68665
1.68235
1.6781
1.6739
1.66977
1.66569
1.66167
1.65771
1.65379
1.64993
1.64613
1.64241
1.77414
1.76829
1.76249
1.75675
1.75108
1.74551
1.74008
1.73494
1.73022
1.72607
1.72245
1.7189
1.71489
1.71052
1.7061
1.70172
1.69736
1.69297
1.6887
1.68446
1.68027
1.67612
1.67204
1.66801
1.66403
1.6601
1.65621
1.65239
1.64862
1.64492
1.77414
1.76829
1.76249
1.75675
1.75109
1.74554
1.74015
1.73512
1.73066
1.72702
1.72427
1.7217
1.71848
1.71463
1.71053
1.70636
1.70215
1.69789
1.69375
1.68963
1.68555
1.68152
1.67754
1.67361
1.66972
1.66587
1.66206
1.6583
1.65459
1.65096
1.77414
1.76829
1.76249
1.75675
1.7511
1.74558
1.74028
1.73545
1.73148
1.7289
1.72803
1.72756
1.72592
1.7231
1.71966
1.7159
1.71196
1.70802
1.70413
1.70026
1.69642
1.69261
1.68885
1.68512
1.68143
1.67776
1.67414
1.67057
1.66704
1.66358
1.77414
1.76829
1.76249
1.75676
1.75112
1.74564
1.74047
1.73598
1.73291
1.73243
1.73596
1.74044
1.74204
1.7413
1.73915
1.73622
1.73286
1.72959
1.7263
1.723
1.71974
1.71649
1.71326
1.71002
1.70678
1.70354
1.7003
1.6971
1.69394
1.69087
1.77414
1.76829
1.7625
1.75677
1.75115
1.74573
1.74074
1.73682
1.73535
1.73952
1.75453
1.77163
1.78097
1.78471
1.78541
1.78448
1.78283
1.78133
1.77969
1.77802
1.77638
1.7748
1.77324
1.7717
1.77015
1.76863
1.76709
1.76557
1.76409
1.76269
1.77414
1.76829
1.7625
1.75678
1.75118
1.74584
1.74111
1.73807
1.7396
1.75498
1.80338
1.85117
1.87953
1.8949
1.90163
1.90612
1.91172
1.91824
1.92454
1.93066
1.93653
1.94193
1.94678
1.95105
1.95479
1.95815
1.96134
1.96437
1.96736
1.97045
1.77415
1.76829
1.76251
1.75679
1.75122
1.74596
1.74156
1.73974
1.74695
1.7887
1.93644
2.16146
2.25142
2.28918
2.32291
2.35764
2.40233
2.44799
2.49222
2.53764
2.58245
2.62407
2.66064
2.69063
2.71389
2.73018
2.74168
2.75136
2.76074
2.77075
1.77415
1.7683
1.76252
1.75681
1.75126
1.74606
1.74197
1.7417
1.75715
1.85439
2.03632
3.19751
4.1767
4.28729
5.06784
5.21266
5.3235
5.38746
5.42311
5.43552
5.43274
5.42051
5.39558
5.36085
5.31773
5.26708
5.21062
5.15646
5.10489
5.05801
1.77415
1.76831
1.76254
1.75684
1.75131
1.74615
1.74227
1.74315
1.7676
1.9411
2.46707
9.43816
19.6765
19.3709
15.8499
15.312
14.7315
14.1744
13.6435
13.1519
12.704
12.2919
11.897
11.5238
11.1729
10.8398
10.5252
10.2229
9.9281
9.64221
1.77415
1.7683
1.76253
1.75683
1.7513
1.74615
1.74228
1.74318
1.76776
1.94238
2.53838
12.3055
30.9046
33.0893
17.6281
17.1558
16.5927
16.0056
15.4072
14.8272
14.264
13.7232
13.1941
12.6876
12.2024
11.745
11.3152
10.9157
10.5455
10.2007
1.77414
1.76829
1.7625
1.7568
1.75125
1.74607
1.74199
1.74177
1.75754
1.85704
2.18851
5.56901
9.05783
8.99432
5.65569
5.93331
6.10633
6.21543
6.28414
6.32647
6.35016
6.35835
6.34965
6.32284
6.2761
6.21199
6.13155
6.03892
5.93576
5.82531
1.77414
1.76829
1.7625
1.75679
1.75122
1.74596
1.74158
1.73983
1.74735
1.79069
1.94627
2.19631
2.29028
2.31908
2.35085
2.39034
2.44142
2.48884
2.5344
2.57973
2.62635
2.67591
2.73084
2.79469
2.87279
2.96108
3.05437
3.14766
3.23706
3.31515
1.77414
1.76829
1.7625
1.75678
1.75119
1.74585
1.74114
1.73816
1.73988
1.756
1.80757
1.86077
1.89288
1.90777
1.91464
1.91773
1.92015
1.92245
1.92461
1.92732
1.931
1.93602
1.94272
1.95129
1.96197
1.97479
1.98965
2.00631
2.02442
2.04316
1.77414
1.76829
1.7625
1.75677
1.75116
1.74574
1.74078
1.7369
1.73555
1.74004
1.75603
1.77498
1.7863
1.7911
1.79221
1.7908
1.78783
1.78449
1.781
1.77765
1.77457
1.77189
1.76971
1.76817
1.76739
1.76739
1.76808
1.7694
1.77131
1.77364
1.77414
1.76829
1.76249
1.75676
1.75113
1.74566
1.74051
1.73607
1.73309
1.73277
1.73661
1.74168
1.74405
1.74391
1.74225
1.73954
1.73595
1.73202
1.72796
1.72385
1.71978
1.71583
1.71207
1.70857
1.70535
1.70244
1.69989
1.69763
1.69566
1.69395
1.77414
1.76829
1.76249
1.75676
1.75111
1.7456
1.74032
1.73554
1.73165
1.72918
1.72844
1.72812
1.72667
1.72409
1.72093
1.71736
1.71341
1.7092
1.70496
1.70068
1.69644
1.69227
1.68822
1.6843
1.68056
1.677
1.67366
1.67049
1.66751
1.66469
1.77414
1.76829
1.76249
1.75675
1.7511
1.74556
1.7402
1.73522
1.73083
1.72728
1.72461
1.72205
1.7188
1.71496
1.71098
1.70691
1.70269
1.69834
1.694
1.68966
1.68535
1.68112
1.67698
1.67294
1.66903
1.66525
1.66161
1.65811
1.65476
1.65153
1.77414
1.76829
1.76249
1.75675
1.75109
1.74553
1.74013
1.73504
1.73039
1.72632
1.72275
1.71916
1.71505
1.7106
1.70621
1.70189
1.69754
1.69311
1.68872
1.68435
1.68002
1.67575
1.67157
1.66747
1.66348
1.65959
1.65582
1.65218
1.64865
1.64524
1.77414
1.76829
1.76249
1.75675
1.75109
1.74553
1.74011
1.73497
1.73021
1.72592
1.722
1.718
1.71353
1.70882
1.70425
1.69982
1.6954
1.69094
1.68652
1.68213
1.67778
1.6735
1.6693
1.66518
1.66117
1.65726
1.65346
1.64976
1.64617
1.64269
1.77414
1.76828
1.76246
1.75669
1.75097
1.74532
1.73974
1.73434
1.72919
1.72434
1.71972
1.71507
1.71016
1.70506
1.69998
1.69496
1.68996
1.68494
1.67997
1.67502
1.6701
1.6652
1.66034
1.65551
1.65072
1.64596
1.64124
1.63656
1.6319
1.62732
1.77414
1.76828
1.76246
1.75669
1.75097
1.74532
1.73976
1.7344
1.72932
1.72461
1.72021
1.71582
1.71111
1.70616
1.70116
1.69619
1.69123
1.68624
1.6813
1.67637
1.67147
1.66659
1.66175
1.65694
1.65217
1.64743
1.64273
1.63806
1.63342
1.62886
1.77414
1.76828
1.76246
1.75669
1.75098
1.74534
1.73981
1.73453
1.72963
1.72526
1.72142
1.71767
1.71348
1.70886
1.70408
1.69923
1.69435
1.68941
1.68453
1.67966
1.6748
1.66998
1.66519
1.66043
1.6557
1.65101
1.64635
1.64172
1.63713
1.6326
1.77414
1.76828
1.76247
1.7567
1.75099
1.74538
1.7399
1.73476
1.7302
1.72651
1.72385
1.72143
1.71827
1.71431
1.70991
1.7053
1.70058
1.69578
1.69102
1.68626
1.68152
1.6768
1.67211
1.66745
1.66282
1.65822
1.65365
1.64912
1.64462
1.64019
1.77414
1.76828
1.76247
1.7567
1.75101
1.74542
1.74005
1.73514
1.73116
1.72878
1.7286
1.72898
1.72781
1.72513
1.72149
1.71736
1.71296
1.70847
1.70399
1.69948
1.69499
1.69052
1.68608
1.68165
1.67725
1.67287
1.6685
1.66418
1.6599
1.65568
1.77414
1.76828
1.76247
1.75671
1.75103
1.74549
1.74024
1.7357
1.73274
1.73292
1.73839
1.74532
1.74827
1.74805
1.74587
1.74275
1.73903
1.73534
1.73149
1.72761
1.72375
1.71991
1.7161
1.71232
1.70858
1.70487
1.70119
1.69754
1.69394
1.69042
1.77414
1.76828
1.76247
1.75672
1.75105
1.74556
1.7405
1.73652
1.73526
1.74081
1.76041
1.78256
1.7945
1.79948
1.80036
1.79951
1.79778
1.79597
1.79384
1.7916
1.78934
1.7871
1.7849
1.78276
1.78068
1.77868
1.77675
1.77491
1.77318
1.77156
1.77414
1.76829
1.76248
1.75672
1.75108
1.74565
1.74079
1.73758
1.73915
1.75589
1.81215
1.86903
1.90111
1.9134
1.91943
1.92374
1.92854
1.93426
1.9397
1.94519
1.95089
1.95656
1.96225
1.96783
1.97323
1.97832
1.98304
1.98751
1.99177
1.9959
1.77415
1.7683
1.76251
1.75674
1.7511
1.74572
1.74107
1.73868
1.74425
1.78035
1.90888
2.10484
2.18454
2.20507
2.23141
2.26299
2.29942
2.33434
2.36573
2.39502
2.42219
2.44683
2.46997
2.49107
2.50918
2.52376
2.53461
2.54399
2.55249
2.5603
1.77415
1.7683
1.76252
1.75677
1.75113
1.74577
1.74126
1.73951
1.74839
1.80957
2.07122
2.56162
2.88308
2.91191
3.04076
3.17268
3.28061
3.36759
3.43984
3.49967
3.54909
3.58875
3.6206
3.64382
3.65767
3.6622
3.65733
3.64692
3.63495
3.62177
1.77415
1.7683
1.7625
1.75676
1.75113
1.74577
1.74127
1.73952
1.74848
1.81016
2.07488
2.59825
2.92743
2.97038
3.13274
3.29222
3.41734
3.51866
3.60156
3.66792
3.72155
3.76233
3.79316
3.81298
3.82277
3.82368
3.81592
3.80014
3.77761
3.7553
1.77415
1.76829
1.76248
1.75673
1.7511
1.74572
1.74109
1.73873
1.74447
1.78147
1.91527
2.12865
2.21593
2.23699
2.26644
2.31931
2.37479
2.42397
2.4675
2.50538
2.53794
2.56582
2.58982
2.61099
2.62991
2.646
2.65914
2.66887
2.67488
2.67784
1.77414
1.76828
1.76247
1.75673
1.75108
1.74565
1.74081
1.73765
1.73938
1.75679
1.81628
1.87868
1.91388
1.92814
1.9347
1.94015
1.94591
1.95157
1.9565
1.96127
1.96632
1.97204
1.97872
1.98676
1.99648
2.00829
2.02251
2.0383
2.05463
2.0703
1.77414
1.76828
1.76247
1.75672
1.75106
1.74557
1.74052
1.73659
1.73544
1.74135
1.76222
1.78668
1.80099
1.8073
1.80894
1.80806
1.80566
1.80276
1.79934
1.79585
1.79251
1.7895
1.78693
1.78491
1.78346
1.78264
1.78245
1.78288
1.78386
1.78537
1.77414
1.76828
1.76247
1.75671
1.75103
1.7455
1.74028
1.73577
1.7329
1.73327
1.73921
1.74705
1.75122
1.75195
1.75036
1.74739
1.74338
1.73911
1.73458
1.72998
1.72541
1.72093
1.71661
1.7125
1.70864
1.70507
1.70179
1.69878
1.69601
1.69347
1.77414
1.76828
1.76247
1.75671
1.75101
1.74544
1.74009
1.73521
1.73132
1.72906
1.72909
1.72983
1.72919
1.72704
1.72386
1.71997
1.71556
1.71086
1.70605
1.70116
1.69625
1.69137
1.68657
1.68188
1.67731
1.67288
1.66859
1.66445
1.66045
1.65659
1.77414
1.76828
1.76247
1.7567
1.751
1.7454
1.73994
1.73485
1.73035
1.72677
1.72423
1.72197
1.71902
1.71532
1.71117
1.70672
1.70201
1.6971
1.69215
1.68717
1.68219
1.67724
1.67234
1.66751
1.66276
1.6581
1.65352
1.64904
1.64464
1.64036
1.77414
1.76828
1.76247
1.7567
1.75099
1.74537
1.73986
1.73462
1.72979
1.72551
1.72177
1.7181
1.71398
1.70946
1.7048
1.70004
1.69516
1.69017
1.68517
1.68016
1.67515
1.67018
1.66525
1.66038
1.65556
1.65082
1.64614
1.64153
1.63699
1.63256
1.77414
1.76828
1.76247
1.7567
1.75099
1.74535
1.73981
1.7345
1.72948
1.72486
1.72054
1.71619
1.71149
1.70656
1.70163
1.69672
1.69176
1.68673
1.6817
1.67668
1.67167
1.66669
1.66175
1.65685
1.65201
1.64723
1.6425
1.63784
1.63324
1.62872
1.77414
1.76828
1.76247
1.7567
1.75099
1.74535
1.73979
1.73444
1.72936
1.72458
1.72003
1.71541
1.71047
1.70536
1.7003
1.69531
1.69031
1.68527
1.68023
1.6752
1.67018
1.6652
1.66026
1.65536
1.65051
1.64572
1.64098
1.63631
1.63168
1.62714
1.77414
1.76828
1.76246
1.75669
1.75097
1.7453
1.7397
1.73426
1.729
1.72396
1.71907
1.71418
1.70912
1.70395
1.69878
1.69366
1.68855
1.68344
1.67835
1.67328
1.66823
1.6632
1.6582
1.65322
1.64827
1.64334
1.63844
1.63356
1.62872
1.62393
1.77414
1.76828
1.76246
1.75669
1.75097
1.74531
1.73972
1.7343
1.7291
1.72415
1.71941
1.71469
1.70977
1.70469
1.69959
1.6945
1.68942
1.68431
1.67925
1.67419
1.66915
1.66413
1.65914
1.65417
1.64923
1.64431
1.63942
1.63455
1.62972
1.62493
1.77414
1.76828
1.76246
1.75669
1.75097
1.74532
1.73976
1.7344
1.72932
1.7246
1.72023
1.71591
1.71134
1.70649
1.70153
1.69652
1.69149
1.68642
1.68139
1.67636
1.67135
1.66635
1.66139
1.65644
1.65152
1.64663
1.64176
1.63692
1.6321
1.62734
1.77414
1.76828
1.76247