/*--------------------------------*- C++ -*----------------------------------*\
| =========                 |                                                 |
| \\      /  F ield         | OpenFOAM: The Open Source CFD Toolbox           |
|  \\    /   O peration     | Version:  2512                                  |
|   \\  /    A nd           | Website:  www.openfoam.com                      |
|    \\/     M anipulation  |                                                 |
\*---------------------------------------------------------------------------*/
FoamFile
{
    version     2.0;
    format      ascii;
    arch        "LSB;label=32;scalar=64";
    class       volScalarField;
    location    "180";
    object      p;
}
// * * * * * * * * * * * * * * * * * * * * * * * * * * * * * * * * * * * * * //

dimensions      [0 2 -2 0 0 0 0];

internalField   nonuniform List<scalar> 
90398
(
163.494
163.408
163.194
162.839
162.315
161.567
160.504
159.013
156.966
154.267
150.922
147.135
143.247
139.369
135.165
130.14
124.174
117.895
112.328
108.103
104.187
98.1375
89.5095
79.6587
69.4239
59.3082
48.7842
39.2401
24.4793
19.6079
163.536
163.454
163.25
162.91
162.411
161.694
160.668
159.209
157.171
154.427
150.964
147.054
143.171
139.456
135.441
130.486
124.485
118.199
112.619
108.15
103.78
97.3958
88.6802
78.8256
68.5981
58.4833
48.007
38.4303
24.0029
18.7098
163.62
163.545
163.359
163.051
162.599
161.947
160.998
159.611
157.598
154.761
151.031
146.831
142.963
139.624
136.029
131.224
125.129
118.757
113.036
108.101
102.926
95.9662
87.0983
77.2479
67.0492
56.9613
46.5652
37.0066
23.032
17.4219
163.741
163.676
163.518
163.258
162.878
162.328
161.509
160.253
158.303
155.318
151.079
146.327
142.523
139.874
137.009
132.428
126.116
119.504
113.451
107.763
101.597
93.991
84.928
75.0631
64.8981
54.8509
44.5628
35.0504
21.6752
15.7556
163.896
163.844
163.721
163.523
163.242
162.837
162.218
161.191
159.397
156.194
150.985
145.236
141.656
140.227
138.55
134.228
127.428
120.329
113.704
107.123
99.964
91.7223
82.4192
72.4996
62.3533
52.3461
42.1826
32.7407
20.0744
13.852
164.078
164.042
163.961
163.838
163.68
163.469
163.148
162.506
161.082
157.635
150.56
143.012
139.959
140.616
140.884
136.818
129.129
121.291
113.94
106.339
98.171
89.2941
79.7131
69.7025
59.5567
49.5829
39.5529
30.1993
18.3135
11.8188
164.281
164.263
164.226
164.188
164.174
164.21
164.311
164.332
163.68
159.993
149.49
139.022
137.127
140.88
144.09
139.853
130.833
122.292
114.203
105.505
96.3479
86.8638
76.9868
66.8492
56.6729
46.711
36.808
27.5489
16.4724
9.75819
164.497
164.496
164.506
164.555
164.694
165.014
165.675
166.829
168.188
164.455
150.465
135.572
132.742
139.306
150.333
144.071
132.879
123.672
114.712
104.826
94.7406
84.7011
74.5007
64.1702
53.8952
43.8899
34.0784
24.8984
14.6243
7.71861
164.719
164.735
164.788
164.916
165.199
165.799
167.096
169.779
172.009
176.097
142.553
121.404
125.644
135.152
159.607
149.349
135.789
126.104
116.045
104.732
93.6061
82.9205
72.2949
61.6801
51.2367
41.1424
31.4023
22.2992
12.8604
5.68845
164.94
164.969
165.058
165.251
165.645
166.45
168.275
172.447
179.818
197.087
101.207
106.92
118.008
123.759
169.679
151.841
136.175
126.842
116.538
104.614
92.935
81.6831
70.474
59.3689
48.608
38.3551
28.6806
19.6817
11.1743
3.6864
165.152
165.191
165.307
165.544
166.001
166.894
168.853
173.269
183.129
223.444
206.927
114.432
117.512
170.126
152.252
137.72
128.93
118.182
105.422
92.7663
80.532
68.5208
56.879
45.8383
35.4897
25.9366
17.0957
9.51499
1.81073
165.35
165.397
165.529
165.788
166.257
167.12
168.81
172.168
179.026
193.298
155.931
116.945
113.322
128.06
163.313
152.853
141.225
131.971
120.315
106.626
92.8964
79.6521
66.8843
54.7384
43.4125
32.9404
23.4657
14.7497
7.96966
0.165774
165.532
165.581
165.721
165.983
166.426
167.167
168.423
170.488
173.332
176.789
161.148
136.994
134.03
143.17
159.098
155.541
146.206
135.746
122.848
108.139
93.3373
79.1229
65.6199
52.9567
41.3059
30.668
21.2302
12.6181
6.53663
-1.26466
165.693
165.743
165.884
166.135
166.53
167.123
167.986
169.069
169.962
168.532
160.358
149.275
146.901
152.098
158.176
156.748
148.976
138.097
124.469
109.097
93.5546
78.6192
64.5202
51.4034
39.4509
28.6594
19.2474
10.7274
5.2464
-2.48613
165.832
165.882
166.018
166.253
166.596
167.061
167.635
168.186
168.314
166.872
161.977
155.361
153.139
155.589
158.522
157.056
150.643
140.022
125.932
110.026
93.9091
78.3747
63.7117
50.1289
37.8669
26.9212
17.5196
9.08001
4.10404
-3.5133
165.949
165.997
166.128
166.345
166.644
167.012
167.404
167.679
167.518
166.315
163.312
159.352
157.442
158.113
159.114
157.342
151.647
141.321
126.975
110.724
94.2201
78.2271
63.0859
49.0832
36.5256
25.4263
16.0282
7.66605
3.11028
-4.35885
166.042
166.089
166.214
166.417
166.681
166.983
167.268
167.412
167.189
166.272
164.348
161.867
160.318
160.101
159.947
157.744
152.234
142.156
127.756
111.323
94.5645
78.2192
62.6669
48.2743
35.4385
24.2019
14.8004
6.49911
2.27917
-5.03367
166.112
166.158
166.278
166.47
166.711
166.972
167.199
167.289
167.087
166.406
165.118
163.484
162.237
161.569
160.664
158.026
152.467
142.589
128.268
111.777
94.8708
78.273
62.3944
47.6691
34.5929
23.2428
13.8396
5.58563
1.62206
-5.55553
166.159
166.203
166.321
166.505
166.732
166.97
167.168
167.242
167.078
166.559
165.635
164.464
163.406
162.506
161.148
158.176
152.485
142.728
128.569
112.112
95.1364
78.372
62.2606
47.2832
34.0227
22.5899
13.1875
4.96275
1.17852
-5.93191
166.182
166.226
166.342
166.523
166.743
166.972
167.159
167.23
167.092
166.657
165.9
164.931
163.961
162.96
161.379
158.206
152.385
142.655
128.64
112.278
95.3064
78.4556
62.2112
47.0892
33.7249
22.247
12.8532
4.62186
0.98136
-6.23658
163.489
163.404
163.19
162.833
162.308
161.558
160.496
159.01
156.975
154.297
150.98
147.214
143.323
139.405
135.127
129.998
123.905
117.384
111.331
106.385
101.917
95.4741
86.1479
75.7827
65.2789
55.1173
44.5509
35.359
20.4859
18.0656
163.532
163.45
163.245
162.904
162.402
161.682
160.656
159.202
157.175
154.456
151.033
147.153
143.263
139.496
135.391
130.322
124.183
117.657
111.605
106.507
101.717
94.9528
85.6209
75.3322
64.885
54.7355
44.2331
34.9495
20.5194
17.3036
163.615
163.54
163.353
163.044
162.588
161.931
160.98
159.595
157.593
154.789
151.123
146.971
143.093
139.677
135.966
131.019
124.757
118.124
111.938
106.541
101.112
93.7313
84.366
74.2046
63.8674
53.7773
43.3702
34.0851
20.0974
16.3735
163.736
163.671
163.511
163.249
162.863
162.305
161.479
160.221
158.279
155.338
151.212
146.549
142.719
139.957
136.932
132.173
125.672
118.775
112.29
106.32
99.938
91.9758
82.5684
72.519
62.297
52.281
42.002
32.7432
19.3456
15.0808
163.89
163.839
163.713
163.512
163.222
162.804
162.169
161.128
159.332
156.198
151.219
145.602
141.952
140.351
138.437
133.88
126.877
119.467
112.495
105.779
98.4564
89.9721
80.472
70.4757
60.3318
50.3862
40.2546
31.0445
18.3541
13.5252
164.072
164.036
163.951
163.823
163.653
163.422
163.067
162.385
160.925
157.583
151.011
143.644
140.417
140.814
140.704
136.365
128.444
120.296
112.771
105.126
96.8788
87.873
78.2032
68.1868
58.0788
48.182
38.2019
29.0573
17.1584
11.7779
164.275
164.255
164.215
164.17
164.139
164.143
164.182
164.105
163.34
159.844
150.355
139.968
137.845
141.216
143.804
139.569
130.395
121.502
113.25
104.561
95.4217
85.9
75.9784
65.8303
55.6814
45.7884
35.9435
26.869
15.809
9.91532
164.491
164.489
164.494
164.533
164.651
164.924
165.478
166.411
167.354
164.328
152.076
136.395
133.587
139.446
148.996
143.005
132.357
123.055
113.888
104.04
94.0874
84.0903
73.8524
63.4901
53.2261
43.2859
33.5516
24.5467
14.3504
7.97805
164.713
164.726
164.775
164.893
165.15
165.688
166.818
169.087
171.236
174.04
148.191
125.137
127.213
133.785
162.445
149.522
135.605
125.526
114.989
103.592
92.6557
82.1285
71.5396
60.9267
50.5302
40.5506
30.9531
22.0588
12.7921
5.95921
164.933
164.96
165.044
165.227
165.595
166.329
167.929
171.438
177.861
192.625
123.588
50.5382
127.207
94.9181
175.597
153.763
136.119
125.507
114.497
102.56
91.1673
80.1249
69.0242
58.0568
47.5146
37.534
28.1276
19.4014
11.1297
3.88844
165.146
165.183
165.294
165.52
165.95
166.772
168.506
172.243
180.71
214.648
63.9954
176.854
155.596
138.683
128.467
116.802
103.553
90.6202
78.2726
66.3906
55.0815
44.4586
34.522
25.3245
16.7796
9.46992
1.9104
165.345
165.389
165.517
165.767
166.214
167.014
168.527
171.423
177.438
188.58
153.213
97.1005
120.668
105.404
164.107
152.999
140.673
130.33
117.65
103.488
89.7432
76.7235
64.3789
52.7687
41.9719
31.9656
22.8769
14.4463
7.96335
0.159128
165.527
165.575
165.711
165.965
166.386
167.079
168.224
170.03
172.318
175.251
161.625
137.95
136.329
143.4
159.022
155.308
145.045
133.09
119.071
104.057
89.5453
75.8317
62.9454
50.9248
39.8435
29.6928
20.6648
12.3298
6.57421
-1.37244
165.689
165.738
165.876
166.12
166.499
167.062
167.864
168.827
169.529
168.08
160.741
150.399
148.162
152.722
158.244
156.026
146.901
134.583
120.028
104.522
89.3649
75.0472
61.6777
49.2676
37.9443
27.6759
18.6915
10.4397
5.31856
-2.68184
165.829
165.878
166.012
166.242
166.576
167.023
167.568
168.068
168.137
166.733
162.27
156.119
153.969
156.108
158.597
156.304
148.248
136.063
121.074
105.121
89.4699
74.5965
60.6664
47.8173
36.2626
25.9175
16.9825
8.80078
4.21159
-3.77548
165.947
165.994
166.124
166.339
166.633
166.993
167.373
167.633
167.471
166.328
163.56
159.885
158.075
158.599
159.265
156.755
149.218
137.127
121.869
105.592
89.5882
74.2819
59.8758
46.6337
34.8178
24.3573
15.4903
7.40986
3.26548
-4.66368
166.041
166.087
166.212
166.413
166.677
166.978
167.262
167.409
167.207
166.351
164.577
162.283
160.84
160.563
160.166
157.324
149.943
137.898
122.523
106.054
89.7877
74.1444
59.3267
45.6976
33.6495
23.096
14.2622
6.26841
2.49421
-5.35319
166.112
166.157
166.277
166.469
166.712
166.975
167.208
167.312
167.139
166.518
165.339
163.838
162.693
162.019
160.942
157.76
150.396
138.388
123.049
106.503
90.0656
74.1415
58.9948
45.0311
32.7599
22.1339
13.3317
5.39717
1.90868
-5.86147
166.159
166.203
166.321
166.506
166.736
166.979
167.187
167.279
167.148
166.688
165.852
164.789
163.829
162.953
161.469
158.03
150.63
138.678
123.517
106.981
90.4328
74.2995
58.9032
44.676
32.215
21.5181
12.743
4.85268
1.56254
-6.19843
166.182
166.226
166.343
166.525
166.749
166.983
167.182
167.273
167.17
166.791
166.115
165.244
164.369
163.403
161.713
158.12
150.649
138.782
123.849
107.406
90.8001
74.5047
58.9299
44.546
31.9753
21.2225
12.476
4.56372
1.50811
-6.55727
163.482
163.396
163.18
162.82
162.293
161.541
160.481
159.004
156.99
154.348
151.085
147.368
143.483
139.508
135.125
129.869
123.623
116.878
110.445
104.679
98.4354
90.3767
80.0528
69.7324
59.5975
49.8706
39.5865
31.2888
16.3984
18.0084
163.524
163.442
163.234
162.89
162.385
161.662
160.634
159.187
157.181
154.502
151.15
147.334
143.447
139.608
135.379
130.161
123.855
116.997
110.211
103.976
97.8688
90.0931
80.1143
69.8894
59.7348
49.9757
39.7472
31.2411
16.9079
17.2774
163.607
163.531
163.341
163.027
162.566
161.902
160.945
159.562
157.578
154.827
151.27
147.219
143.343
139.82
135.942
130.815
124.388
117.306
109.975
103.3
97.2178
89.3118
79.6333
69.5597
59.4545
49.6996
39.5254
30.9308
17.0064
16.5527
163.727
163.661
163.497
163.228
162.834
162.262
161.422
160.154
158.223
155.357
151.419
146.92
143.085
140.159
136.906
131.947
125.318
117.824
110.03
103.214
96.5041
88.2331
78.6977
68.729
58.7076
48.9721
38.8727
30.2031
16.8293
15.4258
163.88
163.827
163.697
163.486
163.182
162.741
162.075
161
159.192
156.174
151.552
146.209
142.495
140.647
138.403
133.62
126.478
118.336
110.475
103.333
95.7266
87.0284
77.4491
67.5319
57.5583
47.8401
37.8444
29.1151
16.419
13.9813
164.061
164.023
163.932
163.792
163.6
163.332
162.914
162.152
160.608
157.442
151.639
144.698
141.279
141.244
140.631
136.005
127.93
119.294
111.495
103.55
95.0007
85.7655
75.9891
66.0261
56.0512
46.3231
36.4436
27.6781
15.7631
12.2767
164.263
164.241
164.193
164.132
164.071
164.015
163.94
163.681
162.685
159.421
151.477
141.747
139.223
141.942
143.692
139.041
129.881
121.034
112.81
103.897
94.409
84.549
74.4507
64.2993
54.2317
44.4659
34.7045
25.9278
14.8734
10.3772
164.479
164.473
164.47
164.489
164.566
164.754
165.114
165.657
165.828
163.2
153.502
138.452
135.506
140.567
148.546
142.14
131.942
122.885
113.855
103.982
93.676
83.2167
72.6997
62.2878
52.091
42.28
32.6547
23.9033
13.7726
8.33317
164.701
164.71
164.749
164.845
165.053
165.477
166.313
167.861
169.142
170.225
156.68
126.81
130.094
135.758
160.232
147.319
134.522
124.964
114.775
103.603
92.3823
81.3159
70.3977
59.7497
49.4813
39.6911
30.2681
21.6135
12.4833
6.17735
164.921
164.944
165.018
165.176
165.489
166.095
167.311
169.771
173.853
181.259
156.698
51.9571
126.797
103.721
171.206
152.215
136.237
125.745
114.366
102.055
90.0803
78.5681
67.4058
56.6755
46.4536
36.7755
27.6238
19.1301
11.0527
3.98237
165.134
165.168
165.268
165.47
165.845
166.539
167.885
170.553
175.99
191.681
110.181
100.664
170.18
153.389
137.917
126.815
114.231
100.737
87.8853
75.8433
64.4479
53.6512
43.4751
33.9009
25.0056
16.676
9.6082
1.88594
165.334
165.375
165.494
165.722
166.122
166.81
168.017
170.136
174.216
179.559
168.925
87.6939
131.555
118.587
164.617
153.358
139.783
127.483
113.707
99.5873
86.355
74.0017
62.3348
51.3273
41.0372
31.4368
22.6962
14.4738
8.28739
0.0117529
165.518
165.563
165.691
165.928
166.311
166.918
167.862
169.228
170.589
169.84
163.517
140.828
139.943
146.015
159.959
154.794
142.579
128.65
113.873
99.305
85.6745
72.8912
60.8267
49.5013
38.9941
29.283
20.6381
12.5015
7.08608
-1.61886
165.681
165.728
165.86
166.091
166.443
166.95
167.635
168.391
168.769
167.315
161.342
152.402
150.172
153.99
158.997
155.511
144.05
129.437
114.193
99.3433
85.2664
71.9756
59.4941
47.8633
37.1943
27.4051
18.8457
10.7774
6.0234
-2.99298
165.823
165.871
166.001
166.223
166.54
166.956
167.441
167.856
167.821
166.528
162.796
157.449
155.424
157.14
159.344
156.128
145.443
130.536
114.792
99.6037
85.1802
71.4543
58.444
46.3767
35.532
25.7576
17.3193
9.32032
5.11687
-4.11609
165.943
165.989
166.117
166.328
166.613
166.96
167.317
167.555
167.397
166.379
164.014
160.842
159.244
159.642
160.163
156.841
146.547
131.434
115.313
99.8434
85.1501
71.0661
57.6499
45.224
34.147
24.3016
15.9871
8.1065
4.37086
-4.99814
166.039
166.084
166.208
166.409
166.671
166.97
167.254
167.414
167.257
166.525
165.025
163.084
161.863
161.596
161.159
157.61
147.489
132.191
115.805
100.143
85.2483
70.8765
57.1199
44.3486
33.0666
23.1675
14.9242
7.13816
3.78373
-5.65549
166.111
166.156
166.277
166.47
166.715
166.985
167.231
167.365
167.256
166.757
165.792
164.569
163.655
163.061
162.02
158.237
148.19
132.761
116.296
100.539
85.5099
70.8906
56.816
43.7537
32.2883
22.3502
14.171
6.43904
3.36903
-6.11251
166.159
166.203
166.323
166.511
166.746
166.999
167.228
167.359
167.3
166.958
166.309
165.485
164.758
164.003
162.606
158.656
148.628
133.185
116.793
101.026
85.9132
71.1323
56.8228
43.4835
31.87
21.8972
13.7643
6.06839
3.19039
-6.37702
166.183
166.227
166.346
166.532
166.762
167.009
167.231
167.366
167.337
167.077
166.575
165.93
165.287
164.45
162.891
158.853
148.706
133.263
117.097
101.526
86.3786
71.3938
56.9314
43.444
31.7508
21.744
13.6647
5.90637
3.34252
-6.74726
163.471
163.384
163.165
162.803
162.273
161.52
160.463
158.999
157.017
154.427
151.238
147.589
143.716
139.674
135.185
129.831
123.448
116.438
109.777
104.294
97.3678
87.2617
75.894
65.6019
55.7395
46.3894
36.3239
28.8616
14.189
19.921
163.513
163.429
163.219
162.871
162.362
161.636
160.609
159.172
157.198
154.579
151.318
147.591
143.716
139.796
135.439
130.112
123.672
116.405
109.035
102.597
95.7703
86.7297
76.1533
66.0409
56.1644
46.7299
36.7374
28.9745
14.9617
19.0265
163.595
163.518
163.324
163.004
162.536
161.865
160.903
159.524
157.571
154.895
151.471
147.559
143.698
140.056
136.004
130.768
124.251
116.525
108.098
100.848
94.3543
85.9865
76.1355
66.2351
56.3648
46.8582
36.8979
28.9664
15.3204
18.2312
163.714
163.646
163.478
163.2
162.794
162.208
161.35
160.073
158.166
155.4
151.681
147.412
143.599
140.478
136.988
131.952
125.245
116.837
107.819
100.526
93.7555
85.3718
75.84
66.0341
56.1628
46.6181
36.6818
28.575
15.4238
16.9561
163.866
163.811
163.674
163.451
163.129
162.66
161.955
160.843
159.035
156.154
151.922
146.993
143.278
141.087
138.507
133.666
126.353
117.233
108.733
101.323
93.6435
84.8737
75.2996
65.4657
55.5716
45.9866
36.1064
27.8172
15.2899
15.2935
164.046
164.004
163.905
163.749
163.529
163.214
162.722
161.865
160.255
157.268
152.202
146.01
142.519
141.875
140.721
135.942
127.696
118.553
110.585
102.37
93.6543
84.3198
74.502
64.5258
54.5667
44.9119
35.105
26.6714
14.8845
13.3171
164.247
164.221
164.163
164.08
163.979
163.85
163.642
163.174
161.952
158.885
152.459
144.146
141.2
142.925
143.772
138.703
129.57
120.822
112.404
103.184
93.5207
83.5412
73.3629
63.1658
53.0999
43.3857
33.6644
25.1351
14.1971
11.1038
164.461
164.451
164.435
164.429
164.453
164.534
164.675
164.784
164.302
161.59
154.446
142.124
138.358
142.258
148.024
141.496
131.594
122.61
113.273
103.14
92.6957
82.1527
71.603
61.2213
51.0819
41.3533
31.7936
23.241
13.2455
8.73013
164.683
164.688
164.712
164.778
164.921
165.206
165.72
166.555
167.333
166.138
157.691
134.346
133.973
139.914
155.128
145.258
133.807
123.891
113.23
101.955
90.803
79.8193
69.0619
58.5986
48.4968
38.8481
29.5388
21.0568
12.0821
6.27281
164.904
164.921
164.98
165.106
165.347
165.793
166.607
168.062
170.293
172.228
167.952
75.7625
132.326
129.189
162.37
149.28
135.422
123.949
111.8
99.5033
87.8487
76.7094
65.9334
55.5413
45.5723
36.0864
27.0826
18.7296
10.8027
3.83522
165.117
165.146
165.232
165.403
165.706
166.239
167.18
168.82
171.35
175.458
173.726
95.803
135.849
129.045
162.097
150.456
136.038
123.348
110.25
97.3365
85.2764
73.9314
63.1057
52.7059
42.813
33.4437
24.7073
16.4771
9.53889
1.54424
165.319
165.355
165.461
165.66
165.995
166.544
167.419
168.769
170.326
170.28
167.373
104.664
134.738
136.809
161.113
151.609
137.073
123.185
109.428
96.2448
83.9464
72.3109
61.2247
50.6083
40.5961
31.1968
22.6301
14.4751
8.40117
-0.495077
165.505
165.546
165.663
165.877
166.211
166.713
167.428
168.32
168.918
167.685
162.864
146.119
143.782
149.144
159.825
153.272
139.277
124.293
109.835
96.2364
83.5308
71.4547
59.9278
48.9957
38.8055
29.3162
20.8517
12.7323
7.4017
-2.24732
165.671
165.715
165.838
166.052
166.37
166.808
167.356
167.89
167.977
166.556
161.936
154.897
152.641
155.483
159.595
154.711
141.543
125.789
110.69
96.659
83.4815
70.8908
58.8694
47.608
37.2505
27.7132
19.3586
11.2712
6.56207
-3.69913
165.815
165.86
165.985
166.197
166.493
166.87
167.288
167.614
167.511
166.368
163.386
159.123
157.339
158.606
160.389
155.885
143.404
127.334
111.669
97.22
83.6438
70.6274
58.1317
46.4403
35.8789
26.3364
18.1035
10.0739
5.88062
-4.85431
165.937
165.982
166.107
166.313
166.589
166.919
167.255
167.479
167.355
166.519
164.635
162.143
160.854
161.18
161.589
156.934
144.645
128.471
112.445
97.7302
83.8898
70.5102
57.6163
45.5542
34.7844
25.1777
17.0606
9.10956
5.34031
-5.73386
166.036
166.081
166.204
166.404
166.665
166.963
167.254
167.441
167.365
166.822
165.678
164.223
163.336
163.198
162.831
157.995
145.647
129.341
113.074
98.2384
84.2995
70.6727
57.4068
44.9658
33.9875
24.3354
16.2799
8.38089
4.94591
-6.3664
166.11
166.154
166.277
166.473
166.722
167.002
167.271
167.456
167.448
167.134
166.47
165.649
165.075
164.701
163.872
158.896
146.369
129.963
113.684
98.8278
84.8618
71.0679
57.4748
44.6529
33.4398
23.7675
15.7755
7.90024
4.70676
-6.77941
166.159
166.204
166.326
166.519
166.762
167.032
167.294
167.487
167.538
167.379
167.004
166.542
166.16
165.67
164.588
159.502
146.755
130.219
114.012
99.2233
85.3181
71.5921
57.8456
44.6229
33.2047
23.5165
15.5839
7.70972
4.68061
-6.98706
166.183
166.228
166.35
166.542
166.782
167.049
167.308
167.51
167.594
167.514
167.274
166.975
166.681
166.129
164.975
159.769
146.752
130.147
114.092
99.4403
85.6261
71.9326
58.2149
44.8323
33.2326
23.4959
15.6359
7.64862
4.97627
-7.39109
163.458
163.37
163.149
162.783
162.25
161.496
160.444
158.998
157.055
154.533
151.434
147.868
144.009
139.901
135.312
129.886
123.442
116.276
109.541
104.678
97.7486
86.0683
73.9618
63.4876
53.635
44.4985
34.6495
27.8648
13.4433
22.6674
163.499
163.415
163.201
162.849
162.335
161.606
160.582
159.16
157.226
154.684
151.532
147.908
144.056
140.043
135.558
130.152
123.612
115.908
108.235
102.297
95.4923
85.4003
74.2445
64.0175
54.2079
44.9807
35.1873
28.0232
14.3622
21.5356
163.58
163.502
163.304
162.979
162.503
161.823
160.857
159.488
157.576
154.994
151.726
147.97
144.14
140.352
136.122
130.833
124.153
115.533
106.449
99.6686
93.2871
84.4424
74.3098
64.3837
54.6131
45.3006
35.4927
28.0948
14.7847
20.5237
163.698
163.628
163.454
163.168
162.75
162.147
161.272
159.992
158.123
155.48
152.005
148.003
144.225
140.864
137.137
132.102
125.092
115.442
105.822
98.9102
92.3404
83.8304
74.2007
64.4328
54.6531
45.2568
35.4324
27.7876
14.9429
18.9405
163.849
163.791
163.647
163.411
163.069
162.571
161.829
160.687
158.901
156.178
152.357
147.904
144.223
141.593
138.687
133.847
125.994
115.771
107.202
99.94
92.3494
83.519
73.933
64.1498
54.3062
44.8082
35.0057
27.0951
14.8413
16.899
164.027
163.982
163.873
163.7
163.45
163.086
162.523
161.586
159.952
157.154
152.784
147.512
143.996
142.563
140.882
135.992
127.087
117.462
109.487
101.214
92.5095
83.1567
73.3657
63.4329
53.4915
43.8725
34.1268
26.0037
14.4492
14.5042
164.227
164.196
164.126
164.021
163.877
163.674
163.341
162.698
161.331
158.493
153.294
146.581
143.397
143.823
143.795
138.533
128.851
119.899
111.247
101.941
92.3286
82.4194
72.3051
62.155
52.1105
42.4214
32.759
24.4838
13.7613
11.8634
164.44
164.425
164.395
164.359
164.329
164.302
164.244
164.003
163.107
160.373
153.971
144.683
142.217
145.263
147.398
141.295
130.926
121.462
111.718
101.559
91.2639
80.9073
70.4918
60.1825
50.083
40.4198
30.9483
22.5941
12.8042
9.08419
164.661
164.66
164.669
164.701
164.778
164.924
165.152
165.389
165.201
163.163
157
142.463
139.636
143.891
151.977
144.659
132.91
121.938
110.881
99.8586
89.0797
78.4057
67.8565
57.5136
47.5145
37.9718
28.7713
20.4503
11.659
6.27724
164.882
164.894
164.936
165.027
165.195
165.482
165.945
166.59
167.151
166.161
160.694
136.607
138.521
143.786
156.811
148.013
133.958
121.113
108.82
97.1189
86.0611
75.3395
64.8041
54.579
44.7443
35.3702
26.4741
18.2341
10.4465
3.56315
165.097
165.12
165.19
165.326
165.557
165.933
166.521
167.331
168.136
167.49
163.456
136.52
139.677
144.552
158.311
148.959
133.653
119.818
106.943
94.8854
83.5836
72.7457
62.1924
51.9927
42.2347
32.9642
24.3285
16.1545
9.29555
1.05872
165.301
165.331
165.422
165.591
165.862
166.271
166.855
167.576
168.056
166.914
162.497
144.06
142.882
147.727
159.091
149.925
134.254
119.782
106.511
94.1681
82.5673
71.4024
60.585
50.1926
40.3115
31.0052
22.5176
14.3598
8.29931
-1.14635
165.489
165.525
165.631
165.819
166.102
166.5
167.013
167.536
167.647
166.202
161.192
152.943
150.675
154.005
159.47
151.981
136.977
121.654
107.629
94.6712
82.4866
70.8091
59.5551
48.8393
38.8235
29.4598
21.0574
12.8759
7.4757
-3.01491
165.658
165.698
165.813
166.009
166.291
166.661
167.09
167.449
167.371
166.132
162.764
157.759
155.898
157.791
160.482
154.218
140.172
124.21
109.362
95.763
82.9795
70.7112
58.9292
47.8154
37.5824
28.1583
19.8719
11.6901
6.83265
-4.5344
165.806
165.848
165.968
166.168
166.443
166.783
167.147
167.414
167.313
166.397
164.222
161.241
159.902
160.862
161.89
155.726
142.443
126.466
111.064
96.9797
83.7294
70.9351
58.6316
47.0854
36.6254
27.1307
18.9186
10.747
6.33388
-5.72178
165.931
165.975
166.097
166.297
166.565
166.882
167.208
167.441
167.396
166.811
165.502
163.825
162.998
163.448
163.529
157.088
143.891
128.053
112.412
98.1078
84.634
71.4585
58.6202
46.5616
35.8668
26.3253
18.1986
10.0368
5.97177
-6.60776
166.032
166.077
166.2
166.4
166.662
166.965
167.274
167.51
167.552
167.257
166.563
165.723
165.306
165.499
165.082
158.462
144.904
129.102
113.424
99.1
85.6431
72.3012
58.9922
46.3578
35.3451
25.7736
17.7207
9.55084
5.74832
-7.22423
166.109
166.153
166.278
166.477
166.735
167.032
167.337
167.593
167.721
167.65
167.374
167.067
166.954
167.029
166.371
159.661
145.588
129.753
114.131
99.7335
86.2004
72.8904
59.5552
46.4705
35.0428
25.4331
17.4544
9.28806
5.65784
-7.60818
166.159
166.205
166.33
166.529
166.785
167.079
167.386
167.663
167.858
167.938
167.919
167.93
168.011
168.03
167.269
160.45
145.857
129.645
114.012
99.629
86.0943
72.8438
59.7833
46.6894
35.022
25.3499
17.4349
9.26178
5.75781
-7.77755
166.185
166.23
166.356
166.555
166.811
167.105
167.414
167.705
167.937
168.094
168.197
168.357
168.524
168.529
167.79
160.767
145.809
129.286
113.563
99.1076
85.63
72.5251
59.6871
46.8224
35.1438
25.4146
17.5918
9.29139
6.17959
-8.21269
163.443
163.354
163.13
162.761
162.225
161.472
160.428
159.004
157.107
154.662
151.662
148.184
144.352
140.197
135.55
130.142
123.759
116.508
110.039
105.725
98.3995
85.7363
73.3197
62.653
52.7184
43.6654
33.9768
27.7605
13.5049
25.4836
163.484
163.398
163.182
162.825
162.307
161.576
160.557
159.156
157.27
154.815
151.78
148.264
144.441
140.358
135.787
130.393
123.771
115.628
107.968
102.566
95.6954
84.9916
73.554
63.1824
53.3236
44.1955
34.563
27.9119
14.4969
24.1002
163.564
163.483
163.282
162.95
162.467
161.782
160.815
159.462
157.601
155.124
152.015
148.417
144.627
140.715
136.365
131.119
124.113
114.45
105.092
98.9947
92.8567
83.8074
73.5169
63.5105
53.729
44.5364
34.8776
27.9344
14.8726
22.8198
163.681
163.608
163.429
163.134
162.703
162.086
161.2
159.926
158.11
155.601
152.363
148.617
144.893
141.319
137.443
132.478
124.831
113.794
103.958
97.7135
91.4947
82.9937
73.3126
63.5211
53.7739
44.4989
34.816
27.554
14.9444
20.8774
163.83
163.768
163.617
163.369
163.007
162.483
161.712
160.556
158.814
156.266
152.819
148.809
145.183
142.175
139.057
134.215
125.416
114.179
105.666
98.7097
91.3405
82.5594
72.972
63.2055
53.4269
44.0331
34.3531
26.7622
14.7368
18.4225
164.006
163.957
163.839
163.648
163.369
162.962
162.342
161.353
159.733
157.15
153.384
148.913
145.43
143.304
141.251
136.199
126.261
116.22
108.139
99.9178
91.361
82.0802
72.3249
62.4439
52.5883
43.0758
33.4226
25.5578
14.2287
15.5851
164.204
164.169
164.087
163.958
163.776
163.506
163.073
162.31
160.889
158.299
154.066
148.81
145.573
144.75
144.043
138.428
127.88
118.61
109.726
100.454
90.9837
81.1867
71.147
61.1086
51.1558
41.579
31.9984
23.9384
13.445
12.5131
164.417
164.396
164.352
164.288
164.206
164.086
163.871
163.398
162.282
159.773
154.936
148.349
145.431
146.389
147.375
140.87
129.7
119.992
110.041
99.9197
89.7616
79.5286
69.2728
59.1242
49.1407
39.5642
30.158
21.9813
12.4099
9.34432
164.637
164.63
164.623
164.623
164.637
164.665
164.674
164.528
163.839
161.6
156.134
147.745
145.12
147.8
150.931
143.615
131.281
120.112
109.095
98.2359
87.5664
77.0698
66.7131
56.5385
46.6572
37.1666
28.0333
19.8551
11.2341
6.212
164.859
164.864
164.89
164.947
165.047
165.2
165.398
165.541
165.293
163.505
157.855
147.796
145.607
149.347
154.502
146.182
131.94
119.189
107.259
95.8536
84.9211
74.3418
63.9585
53.8474
44.065
34.7222
25.8793
17.7206
10.0467
3.24485
165.075
165.091
165.145
165.248
165.413
165.657
165.978
166.281
166.25
164.748
159.444
149.606
147.444
151.06
156.496
147.459
132.166
118.361
105.819
94.0399
82.9082
72.1322
61.6424
51.5039
41.7821
32.5456
23.9331
15.78
8.96363
0.548594
165.281
165.306
165.382
165.521
165.733
166.026
166.39
166.721
166.661
165.234
160.717
153.074
150.788
153.468
158.239
149.383
133.695
119.049
105.915
93.7367
82.2215
71.0591
60.2479
49.8998
40.1141
30.8589
22.3715
14.1793
8.06517
-1.80111
165.472
165.503
165.597
165.761
165.997
166.309
166.671
166.962
166.837
165.586
162.214
157.02
155.158
157.051
159.954
152.208
137.05
121.495
107.475
94.5933
82.4437
70.7832
59.5439
48.8603
38.8999
29.5741
21.1837
12.9264
7.38311
-3.76038
165.644
165.681
165.787
165.966
166.217
166.532
166.876
167.13
167.019
166.064
163.78
160.582
159.277
160.531
161.826
154.658
140.419
124.535
109.704
96.1553
83.3835
71.0774
59.2276
48.1017
37.9312
28.5469
20.2543
11.9444
6.87533
-5.33381
165.796
165.836
165.95
166.14
166.398
166.711
167.043
167.292
167.261
166.652
165.259
163.441
162.685
163.568
163.776
156.409
142.944
127.203
111.927
97.9684
84.7493
71.8636
59.4011
47.7574
37.3409
27.8603
19.6069
11.2444
6.51933
-6.55404
165.925
165.967
166.087
166.284
166.546
166.86
167.19
167.461
167.541
167.263
166.558
165.713
165.475
166.209
165.84
158.075
144.695
129.085
113.671
99.5712
86.2583
73.0851
59.968
47.6038
36.884
27.3818
19.1796
10.7685
6.309
-7.44506
166.029
166.073
166.197
166.399
166.665
166.981
167.321
167.629
167.824
167.827
167.638
167.472
167.647
168.347
167.753
159.747
145.89
130.329
114.901
100.541
86.9888
73.7872
60.6726
47.7863
36.5828
27.0589
18.9507
10.5041
6.22503
-8.05652
166.108
166.153
166.28
166.486
166.755
167.076
167.428
167.776
168.073
168.292
168.468
168.761
169.245
169.975
169.363
161.238
146.728
131.026
115.469
100.723
86.7615
73.4592
60.7108
47.9139
36.4276
26.8884
18.8712
10.418
6.26076
-8.4211
166.161
166.207
166.336
166.544
166.816
167.142
167.506
167.886
168.258
168.623
169.031
169.61
170.293
171.062
170.493
162.191
146.957
130.723
115.047
100.158
85.9859
72.4241
59.8498
47.6848
36.4346
26.9076
18.9828
10.5056
6.45568
-8.5625
166.187
166.234
166.364
166.574
166.847
167.176
167.548
167.946
168.358
168.797
169.316
170.032
170.805
171.643
171.151
162.564
146.774
130.019
114.226
99.323
85.1599
71.565
58.9729
47.1873
36.4198
27.0147
19.2213
10.602
6.97237
-9.02165
163.427
163.337
163.111
162.739
162.201
161.451
160.417
159.019
157.173
154.811
151.913
148.527
144.737
140.565
135.918
130.624
124.388
117.23
111.323
107.233
99.1164
85.9291
73.3599
62.5345
52.5189
43.5127
33.9211
28.1408
13.9575
28.0099
163.467
163.38
163.161
162.801
162.28
161.549
160.539
159.163
157.331
154.966
152.05
148.643
144.867
140.743
136.145
130.843
124.144
115.728
108.359
103.272
96.0729
85.0566
73.5007
63.0149
53.1009
44.0223
34.4924
28.2404
14.9775
26.3953
163.547
163.464
163.26
162.922
162.433
161.744
160.781
159.45
157.647
155.279
152.327
148.881
145.147
141.153
136.758
131.597
124.127
113.572
104.269
98.659
92.6401
83.5859
73.2568
63.1985
53.3988
44.2662
34.7226