/*--------------------------------*- C++ -*----------------------------------*\
| =========                 |                                                 |
| \\      /  F ield         | OpenFOAM: The Open Source CFD Toolbox           |
|  \\    /   O peration     | Version:  2512                                  |
|   \\  /    A nd           | Website:  www.openfoam.com                      |
|    \\/     M anipulation  |                                                 |
\*---------------------------------------------------------------------------*/
FoamFile
{
    version     2.0;
    format      ascii;
    arch        "LSB;label=32;scalar=64";
    class       volScalarField;
    location    "180";
    object      p;
}
// * * * * * * * * * * * * * * * * * * * * * * * * * * * * * * * * * * * * * //

dimensions      [0 2 -2 0 0 0 0];

internalField   nonuniform List<scalar> 
84826
(
2.90051
2.90426
2.91291
2.91924
2.90643
2.84466
2.68425
2.34832
1.73716
0.751131
-0.636173
-2.28635
-3.74442
-4.4184
-4.1623
-3.35936
-2.48937
-1.8341
-1.39903
-1.06594
-0.788759
-0.586497
-0.45312
-0.355885
-0.275876
-0.210106
-0.153794
-0.102807
-0.0492
-0.0250584
2.90968
2.91572
2.93042
2.94775
2.95262
2.91727
2.7928
2.49774
1.91735
0.918348
-0.563996
-2.42066
-4.0731
-4.76027
-4.3806
-3.43224
-2.46014
-1.77925
-1.35556
-1.02686
-0.749929
-0.552871
-0.424536
-0.329916
-0.253986
-0.194455
-0.143138
-0.0930063
-0.0365873
-0.00897768
2.92701
2.93754
2.96404
3.00304
3.04323
3.0619
3.01326
2.80882
2.3043
1.29273
-0.383155
-2.70918
-4.79545
-5.49039
-4.83989
-3.57104
-2.37712
-1.65641
-1.26488
-0.947399
-0.679524
-0.506332
-0.39972
-0.317833
-0.25376
-0.209107
-0.172312
-0.133694
-0.0816874
-0.049487
2.95089
2.96783
3.01131
3.08191
3.17497
3.27747
3.35247
3.30731
2.95654
1.96614
-0.0119089
-3.20903
-6.03967
-6.68027
-5.59547
-3.7666
-2.18796
-1.4362
-1.10412
-0.787845
-0.524511
-0.385129
-0.306729
-0.234067
-0.169761
-0.122564
-0.0830622
-0.044167
0.00357926
0.0194241
2.9789
3.00376
3.0683
3.17895
3.34139
3.55928
3.81615
4.02866
3.97004
3.11609
0.715986
-4.09612
-8.08227
-8.41665
-6.73532
-3.97943
-1.81405
-1.11415
-0.905964
-0.595665
-0.357722
-0.296802
-0.297999
-0.285981
-0.262826
-0.235522
-0.197933
-0.158652
-0.103234
-0.0667604
3.0081
3.04169
3.12977
3.28633
3.53168
3.89612
4.40343
5.01249
5.48015
5.04756
2.16062
-5.5933
-11.4134
-10.9355
-8.44523
-4.02251
-1.11715
-0.662357
-0.606347
-0.236002
0.0347731
0.0712768
0.0320084
-0.00641608
-0.0396223
-0.0547854
-0.0405594
-0.0197303
0.00455771
-0.00552481
3.03519
3.07749
3.18929
3.39349
3.72909
4.26473
5.09538
6.28734
7.675
8.2312
4.77024
-7.95456
-16.0371
-14.7784
-11.18
-3.08344
0.286658
-0.129885
-0.444989
-0.148108
0.0225432
-0.0179079
-0.0702379
-0.101253
-0.125717
-0.121787
-0.0762765
-0.0302298
0.0263898
-0.042983
3.0569
3.10686
3.23979
3.48757
3.90998
4.62277
5.82836
7.80848
10.7684
13.7742
9.73727
-7.10883
-20.6362
-18.5043
-16.8601
-0.271089
3.36467
1.61208
0.964789
1.12643
0.940031
0.536331
0.232171
0.0423245
-0.0751278
-0.116224
-0.0794071
-0.0428654
0.0673632
-0.0281809
3.07032
3.1259
3.27451
3.55532
4.04637
4.90769
6.46735
9.32402
14.6059
22.7642
22.4416
-15.9073
-27.3125
-32.8038
-24.427
0.875948
3.73463
0.503849
-0.187063
0.165735
-0.0279173
-0.455781
-0.712351
-0.79255
-0.774225
-0.678186
-0.537483
-0.390401
-0.34471
-0.0228942
3.07333
3.13163
3.28791
3.58535
4.11231
5.05491
6.8216
10.2639
17.4663
31.9997
46.0381
-9.02865
-57.2424
-45.7674
-17.3756
5.31612
8.38243
4.76486
3.86053
3.80912
2.9916
2.00964
1.35132
0.968084
0.740769
0.619001
0.548234
0.520048
0.308281
0.591665
3.06491
3.12261
3.27733
3.57193
4.09429
5.03063
6.78802
10.2128
17.3798
31.8456
53.1565
12.65
-65.9559
-16.2794
5.02217
7.10296
4.0248
3.53681
3.60267
2.72257
1.66497
0.989485
0.656491
0.510785
0.46255
0.444367
0.46761
0.239202
0.703666
3.04526
3.09915
3.24343
3.51654
3.99539
4.83844
6.36874
9.17374
14.3516
22.2981
32.983
-8.93983
-20.6126
-69.0687
-19.2366
-0.694579
0.799571
-0.839896
-0.0751109
0.95575
0.82222
0.241405
-0.150056
-0.292535
-0.314173
-0.308417
-0.326663
-0.318568
-0.503462
-0.0543883
3.01587
3.06313
3.18922
3.42496
3.82846
4.51211
5.67042
7.57103
10.3769
13.0892
14.3455
-11.8007
-26.1982
-34.4052
-13.9131
-0.846048
0.928349
-0.102269
0.581763
1.59032
1.59987
1.08574
0.6755
0.5036
0.455583
0.426921
0.375418
0.310289
0.333705
0.0592834
2.97925
3.01793
3.12058
3.3087
3.61919
4.11671
4.88776
5.9828
7.19967
7.45616
3.47908
-10.2976
-20.1476
-19.3326
-11.6077
-3.4296
-0.908639
-1.0793
-0.552651
0.322608
0.54185
0.270817
0.0184808
-0.0621943
-0.0513424
-0.0240705
-0.0105427
-0.00874441
0.0773749
-0.100168
2.93867
2.96786
3.04485
3.18204
3.39756
3.71759
4.15785
4.66312
4.96371
4.26814
0.958403
-7.45862
-14.1863
-13.8702
-9.28723
-3.96442
-1.26127
-0.836377
-0.498397
0.11143
0.396635
0.312828
0.175024
0.11985
0.113322
0.10899
0.0874719
0.0587504
0.044475
-0.0171553
2.89771
2.91754
2.96944
3.05817
3.18729
3.35666
3.54297
3.65198
3.43941
2.36145
-0.366246
-5.61468
-10.0861
-10.4366
-7.66572
-4.14941
-1.94782
-1.35921
-1.10428
-0.640926
-0.280057
-0.174157
-0.173788
-0.163898
-0.137955
-0.116365
-0.107199
-0.102416
-0.0873115
-0.0613838
2.85992
2.87136
2.90102
2.94785
3.00524
3.05687
3.06038
2.91504
2.42441
1.24402
-0.985782
-4.47746
-7.57507
-8.18407
-6.49659
-4.11267
-2.38237
-1.65512
-1.2774
-0.811139
-0.395949
-0.186819
-0.120772
-0.0953928
-0.07457
-0.0589166
-0.0501958
-0.0424235
-0.0268754
-0.0070719
2.82846
2.83313
2.84502
2.859
2.86205
2.82867
2.70882
2.4082
1.77596
0.601178
-1.27276
-3.80593
-6.04669
-6.69134
-5.66891
-3.99478
-2.60645
-1.83405
-1.38682
-0.96194
-0.587928
-0.369105
-0.280033
-0.239786
-0.205982
-0.173219
-0.143196
-0.113813
-0.0781084
-0.0373509
2.80589
2.80588
2.80548
2.79707
2.76399
2.6761
2.48109
2.09322
1.39389
0.249707
-1.39735
-3.41142
-5.16189
-5.79426
-5.15384
-3.89208
-2.72088
-1.95457
-1.47631
-1.07417
-0.720017
-0.478219
-0.347224
-0.27163
-0.21253
-0.160817
-0.116097
-0.0763384
-0.0373163
-0.0056381
2.79391
2.79155
2.78488
2.76515
2.71406
2.59961
2.36916
1.94232
1.21689
0.0947413
-1.44137
-3.22651
-4.7594
-5.37807
-4.90668
-3.83284
-2.76701
-2.01294
-1.52063
-1.12321
-0.774053
-0.519873
-0.370506
-0.283666
-0.22107
-0.169269
-0.124967
-0.0858814
-0.0483846
-0.01823
2.89168
2.89469
2.9016
2.905
2.88812
2.8214
2.65591
2.31669
1.7069
0.729748
-0.638684
-2.25907
-3.68645
-4.34365
-4.09075
-3.30905
-2.46765
-1.83145
-1.40187
-1.07019
-0.795145
-0.593796
-0.459313
-0.36064
-0.279638
-0.21309
-0.156191
-0.104919
-0.0507827
-0.0266431
2.90069
2.90593
2.91875
2.93285
2.93308
2.89185
2.76081
2.46037
1.8793
0.889005
-0.571279
-2.38987
-4.00414
-4.67052
-4.29386
-3.37271
-2.43832
-1.77972
-1.36041
-1.03321
-0.759522
-0.563904
-0.434568
-0.338316
-0.260848
-0.199636
-0.147105
-0.0967817
-0.0406263
-0.0137211
2.91771
2.92729
2.95161
2.98672
3.02108
3.03182
2.9734
2.75889
2.24877
1.24473
-0.402525
-2.67077
-4.70463
-5.3687
-4.71708
-3.49054
-2.35783
-1.66629
-1.27555
-0.957764
-0.692676
-0.519922
-0.411785
-0.32834
-0.262011
-0.213716
-0.173341
-0.132539
-0.0800761
-0.0490291
2.94116
2.95695
2.99782
3.06357
3.14895
3.2402
3.29989
3.2361
2.86968
1.88327
-0.0544029
-3.16176
-5.92098
-6.50703
-5.40341
-3.64988
-2.1775
-1.4632
-1.12915
-0.815809
-0.556367
-0.414534
-0.332722
-0.259307
-0.193987
-0.143522
-0.0999028
-0.0573151
-0.00702693
0.0120365
2.96869
2.9921
3.05343
3.15802
3.31026
3.51204
3.74485
3.92425
3.83151
2.97111
0.635751
-4.05011
-7.94775
-8.15111
-6.40847
-3.82877
-1.8587
-1.18216
-0.949342
-0.644466
-0.413377
-0.345489
-0.337104
-0.320402
-0.294533
-0.265029
-0.226356
-0.185504
-0.12865
-0.0878982
2.99736
3.02919
3.11325
3.26225
3.4944
3.83622
4.30656
4.85932
5.26128
4.80188
2.01594
-5.62713
-11.3773
-10.483
-7.82601
-3.79598
-1.27718
-0.849166
-0.741142
-0.368075
-0.0924182
-0.0322734
-0.0394862
-0.0492527
-0.0585834
-0.0584991
-0.0379699
-0.01529
0.0135206
0.00583189
3.02395
3.06418
3.17117
3.36581
3.68462
4.18995
4.96639
6.07042
7.34041
7.86169
4.52917
-8.42165
-16.4485
-14.0431
-10.4158
-2.97526
0.0619738
-0.326354
-0.659368
-0.444868
-0.318756
-0.363058
-0.390861
-0.382632
-0.361468
-0.319436
-0.247408
-0.180023
-0.104005
-0.111453
3.04523
3.09285
3.22034
3.45675
3.85787
4.53044
5.66065
7.5167
10.3114
13.3474
10.3252
-8.17586
-21.4204
-16.6016
-16.3586
-1.83671
2.14911
1.16029
0.708105
0.836129
0.645548
0.268491
-0.000452581
-0.155361
-0.244367
-0.272522
-0.236244
-0.201818
-0.0757511
-0.183297
3.05835
3.11138
3.25404
3.52233
3.98845
4.79904
6.25938
8.94561
14.0672
22.9867
25.1539
-12.529
-28.4964
-21.3893
-21.743
-1.11945
1.1896
-1.11672
-1.57137
-1.15431
-1.19113
-1.41204
-1.47051
-1.38961
-1.25113
-1.07737
-0.88072
-0.710665
-0.529293
-0.327197
3.06121
3.11687
3.26698
3.55133
4.05181
4.9393
6.58827
9.81451
16.8778
33.7621
60.5078
-57.8267
-79.7059
-25.0741
-17.7611
5.24641
6.38007
2.95744
2.06756
2.10227
1.5643
0.871839
0.415637
0.172108
0.0435408
-0.0102112
-0.020083
-0.00636773
-0.057449
0.142669
3.05282
3.10791
3.25654
3.53815
4.03413
4.91534
6.55514
9.76541
16.7977
33.6126
71.8038
-65.5481
-14.5806
6.82669
7.39655
3.85348
2.83774
2.66451
1.86465
0.943208
0.31842
0.00063017
-0.141254
-0.184762
-0.180904
-0.135031
-0.235085
0.183958
3.03338
3.08475
3.22343
3.48446
3.93798
4.7304
6.16239
8.80052
13.8269
22.5282
39.8238
-43.6728
-50.5265
-79.9862
-14.9895
2.36181
3.34143
0.967474
0.828121
1.34951
1.0724
0.458514
-0.0453049
-0.310807
-0.456247
-0.556878
-0.635719
-0.658187
-0.806395
-0.31719
3.00436
3.04934
3.17022
3.39493
3.77706
4.42099
5.50551
7.28603
9.93521
12.6829
15.2858
-16.1245
-31.8519
-31.8592
-13.3747
-0.601278
1.57491
0.401877
0.628619
1.39204
1.4347
1.03259
0.65175
0.472805
0.399183
0.339547
0.255574
0.161979
0.150662
-0.0736135
2.96821
3.00491
3.10285
3.28162
3.57571
4.04372
4.76229
5.77329
6.88032
7.11253
3.24735
-10.8158
-20.5373
-18.2122
-10.8679
-3.19603
-0.75883
-0.97101
-0.624989
0.107188
0.331343
0.125128
-0.0879915
-0.164864
-0.159557
-0.127574
-0.11126
-0.0995791
-0.0468072
-0.0963579
2.92816
2.95568
3.02879
3.15871
3.36148
3.65976
4.06478
4.51736
4.75941
4.04791
0.852914
-7.4533
-14.0695
-13.2533
-8.76912
-3.89812
-1.3781
-0.881483
-0.515697
0.0577648
0.341143
0.287044
0.175099
0.124111
0.116108
0.115341
0.0947222
0.0684251
0.0543666
0.0130446
2.88776
2.90625
2.95508
3.03802
3.15745
3.31163
3.47554
3.55458
3.3137
2.23838
-0.410771
-5.51853
-9.87306
-10.0652
-7.33986
-4.05703
-1.9825
-1.35357
-1.0699
-0.641387
-0.315807
-0.219052
-0.216345
-0.20595
-0.178608
-0.152318
-0.138603
-0.127142
-0.106255
-0.0699668
2.85049
2.86087
2.88807
2.93034
2.98058
3.02186
3.01156
2.85024
2.34849
1.17892
-1.00022
-4.38928
-7.39881
-7.94286
-6.28268
-4.02143
-2.39106
-1.67556
-1.29038
-0.843189
-0.449575
-0.242923
-0.166068
-0.128387
-0.0973932
-0.0734234
-0.0587065
-0.0458319
-0.0272639
-0.00458514
2.81947
2.82331
2.83316
2.84355
2.84129
2.80084
2.67255
2.36412
1.72984
0.567661
-1.27052
-3.73742
-5.91656
-6.52831
-5.52763
-3.92463
-2.60416
-1.852
-1.40017
-0.97899
-0.613367
-0.394597
-0.298121
-0.250459
-0.212015
-0.176918
-0.145766
-0.115545
-0.0794927
-0.0380844
2.79722
2.79653
2.79441
2.78306
2.74586
2.6529
2.45256
2.06128
1.36422
0.232651
-1.38727
-3.35765
-5.06498
-5.67705
-5.0522
-3.83473
-2.70931
-1.96356
-1.48606
-1.08546
-0.736889
-0.497608
-0.364449
-0.285507
-0.224031
-0.17075
-0.124722
-0.0836858
-0.0434013
-0.0095881
2.7854
2.78242
2.77418
2.75181
2.69714
2.57855
2.3442
1.91592
1.19446
0.0845633
-1.42859
-3.17975
-4.67871
-5.28199
-4.82248
-3.78216
-2.75284
-2.01901
-1.53033
-1.13406
-0.789008
-0.537649
-0.387191
-0.297233
-0.231463
-0.17702
-0.130601
-0.089934
-0.0511365
-0.0195177
2.87356
2.87486
2.87766
2.87436
2.8483
2.77029
2.59257
2.2434
1.63198
0.668968
-0.662343
-2.22163
-3.58652
-4.21383
-3.97403
-3.23573
-2.44376
-1.83595
-1.4122
-1.08096
-0.807936
-0.606369
-0.468539
-0.36635
-0.282836
-0.214061
-0.155363
-0.103191
-0.0485466
-0.0248001
2.88226
2.88567
2.89407
2.90087
2.89084
2.8365
2.69044
2.37612
1.78918
0.810866
-0.608917
-2.352
-3.88968
-4.51989
-4.15845
-3.29016
-2.41756
-1.78993
-1.37296
-1.04492
-0.773911
-0.578287
-0.445676
-0.345885
-0.265042
-0.200339
-0.14538
-0.0946457
-0.0393744
-0.0143427
2.89866
2.90617
2.92545
2.95202
2.97386
2.9676
2.88785
2.65077
2.12469
1.12577
-0.473301
-2.63086
-4.55603
-5.17405
-4.53739
-3.38671
-2.34567
-1.68918
-1.29109
-0.968383
-0.704397
-0.529101
-0.416338
-0.329115
-0.258175
-0.203867
-0.158627
-0.115675
-0.0642455
-0.0375377
2.92125
2.93461
2.96954
3.02492
3.09432
3.16231
3.19012
3.08754
2.6842
1.68825
-0.187418
-3.11813
-5.72159
-6.24474
-5.13904
-3.5081
-2.18719
-1.50737
-1.1501
-0.830743
-0.571836
-0.422709
-0.334513
-0.259449
-0.193439
-0.140268
-0.0943019
-0.0505741
-0.00151373
0.0150106
2.94774
2.96828
3.02256
3.11434
3.24586
3.41535
3.59988
3.71289
3.54475
2.6426
0.381601
-3.98567
-7.67211
-7.78105
-5.96834
-3.61776
-1.91244
-1.24574
-0.955843
-0.64651
-0.415031
-0.3261
-0.296445
-0.267246
-0.236148
-0.205915
-0.170967
-0.134383
-0.0856043
-0.0569931
2.9753
3.00372
3.07953
3.21287
3.41827
3.71563
4.11374
4.55557
4.81512
4.2381
1.52049
-5.57621
-11.0454
-9.98544
-7.01766
-3.4489
-1.36637
-0.888084
-0.692357
-0.348065
-0.104629
-0.0380113
-0.0252953
-0.0132872
-0.00440043
0.00465616
0.0243655
0.0451346
0.0693713
0.0527204
3.00082
3.03708
3.13443
3.31058
3.59591
4.04158
4.71198
5.63842
6.64885
6.89015
3.59764
-8.41694
-16.3751
-13.2583
-8.86277
-2.69072
-0.137152
-0.20093
-0.342788
-0.148977
-0.0600461
-0.119849
-0.165273
-0.175131
-0.16876
-0.150488
-0.110986
-0.0723449
-0.0257162
-0.0371061
3.02118
3.0643
3.18065
3.39571
3.7573
4.35447
5.33761
6.92251
9.2499
11.6604
8.88534
-8.73308
-23.0653
-16.3729
-11.7096
-1.81871
1.35191
0.980353
0.742875
0.885034
0.787036
0.535005
0.345432
0.236523
0.16921
0.133178
0.135791
0.145235
0.18365
0.089111
3.03363
3.08184
3.21221
3.45617
3.87633
4.59823
5.87307
8.18118
12.5424
20.0789
22.8309
-14.1567
-39.2946
-21.0195
-10.2862
1.16461
2.74088
1.31407
0.769067
0.851243
0.627745
0.282576
0.0495437
-0.0518145
-0.0893762
-0.0862357
-0.0462946
-0.00108165
0.0782468
0.057423
3.03618
3.08683
3.22423
3.48264
3.93246
4.72057
6.15857
8.93462
15.031
29.6772
58.4525
-64.7849
-81.7172
-44.7165
-5.8225
6.99115
6.72043
3.92855
2.73699
2.52692
1.99269
1.35175
0.878314
0.595023
0.421307
0.317794
0.265409
0.246602
0.207893
0.238371
3.02785
3.07796
3.21388
3.47031
3.91827
4.701
6.12745
8.88856
14.9586
29.557
69.6517
-67.4203
-5.03082
7.95576
7.39704
4.14827
2.79571
2.54056
1.98885
1.31025
0.766632
0.447658
0.265369
0.16461
0.118542
0.122072
0.0558517
0.247639
3.00887
3.05557
3.18233
3.41998
3.8296
4.53413
5.77984
8.04422
12.3232
19.6858
37.5911
-53.9048
-81.2622
-60.2567
-9.20913
2.74077
3.5249
1.44709
0.9356
1.27095
1.18224
0.776681
0.366611
0.128763
-0.0119222
-0.110552
-0.172519
-0.189577
-0.246958
-0.0183589
2.98063
3.02131
3.13139
3.33519
3.67812
4.2475
5.18747
6.70344
8.90126
11.0589
13.4531
-17.5507
-36.4282
-26.1945
-10.9261
-1.01181
1.13831
0.300052
0.308323
0.8858
1.03785
0.812672
0.54877
0.410641
0.348228
0.305059
0.26354
0.226986
0.217901
0.122661
2.94549
2.97836
3.06687
3.22752
3.48896
3.899
4.51475
5.35483
6.2168
6.19639
2.41168
-10.6087
-19.859
-16.4413
-9.35674
-2.74619
-0.559951
-0.677601
-0.487575
0.0618548
0.285795
0.164148
-0.00325584
-0.0905023
-0.116396
-0.117228
-0.120924
-0.120941
-0.100152
-0.0901269
2.9066
2.93085
2.99596
3.11072
3.28769
3.54322
3.8792
4.22706
4.33892
3.53156
0.442949
-7.2557
-13.4303
-12.2821
-7.87744
-3.64621
-1.51903
-1.00876
-0.649293
-0.141721
0.148376
0.160306
0.0988363
0.0702287
0.0720814
0.0801123
0.0713667
0.0598333
0.0540748
0.0361062
2.8674
2.88315
2.92522
2.99588
3.09557
3.21917
3.33788
3.35601
3.04954
1.94926
-0.596517
-5.34488
-9.41451
-9.45922
-6.83326
-3.89921
-2.04948
-1.37774
-1.03967
-0.6384
-0.336952
-0.229003
-0.21044
-0.192958
-0.164552
-0.137901
-0.123491
-0.109779
-0.0891426
-0.0539692
2.83122
2.83933
2.86089
2.89334
2.92859
2.9483
2.90893
2.71354
2.18266
1.01627
-1.08043
-4.26593
-7.08451
-7.55051
-5.96346
-3.89287
-2.40515
-1.69503
-1.29072
-0.871428
-0.510222
-0.306656
-0.215816
-0.163432
-0.121201
-0.0883972
-0.0669565
-0.0481384
-0.025897
-0.00121557
2.80112
2.80304
2.80816
2.81058
2.79678
2.74092
2.59389
2.26698
1.6231
0.475663
-1.30007
-3.63873
-5.69078
-6.25378
-5.3061
-3.82155
-2.60039
-1.87265
-1.41272
-1.00021
-0.648597
-0.427964
-0.317876
-0.257091
-0.210312
-0.170603
-0.137098
-0.105515
-0.0695216
-0.0306236
2.77952
2.77716
2.77094
2.75285
2.70635
2.60184
2.38882
1.98723
1.28977
0.17793
-1.39106
-3.27404
-4.89465
-5.47147
-4.884
-3.74717
-2.69485
-1.97688
-1.49809
-1.09977
-0.759592
-0.52236
-0.383593
-0.29801
-0.232236
-0.176281
-0.128361
-0.0859113
-0.0445621
-0.010132
2.76801
2.7635
2.75147
2.72296
2.66008
2.53169
2.28737
1.85251
1.13442
0.0455346
-1.4217
-3.1024
-4.53175
-5.10708
-4.67671
-3.70114
-2.73313
-2.02797
-1.54221
-1.14744
-0.809082
-0.56116
-0.407358
-0.311368
-0.240431
-0.181987
-0.132438
-0.0896531
-0.0492939
-0.0171514
2.84711
2.84587
2.84241
2.82905
2.78935
2.69458
2.49864
2.1339
1.51846
0.575018
-0.701864
-2.17131
-3.44557
-4.03363
-3.81985
-3.14506
-2.41781
-1.84574
-1.43125
-1.10302
-0.833785
-0.632321
-0.490475
-0.38371
-0.296568
-0.22461
-0.163271
-0.109407
-0.0534174
-0.0279376
2.85534
2.85604
2.85775
2.85364
2.82846
2.75484
2.58662
2.25155
1.6549
0.693283
-0.666721
-2.29775
-3.72201
-4.31004
-3.98269
-3.19175
-2.39768
-1.80842
-1.39705
-1.07083
-0.804278
-0.609074
-0.472743
-0.368614
-0.283341
-0.214112
-0.155583
-0.103284
-0.0475786
-0.0213692
2.87084
2.8753
2.88704
2.901
2.9046
2.87378
2.76345
2.49374
1.9441
0.95388
-0.575549
-2.56958
-4.32816
-4.89756
-4.31133
-3.27188
-2.34235
-1.72698
-1.32547
-1.00208
-0.741782
-0.564075
-0.445808
-0.353784
-0.277297
-0.216262
-0.165347
-0.119318
-0.0671594
-0.0396977
2.89216
2.90202
2.92813
2.96836
3.01479
3.04978
3.03279
2.87592
2.4217
1.41241
-0.379438
-3.03905
-5.38695
-5.85876
-4.81581
-3.3654
-2.22419
-1.58521
-1.20849
-0.88939
-0.635351
-0.478731
-0.38115
-0.300973
-0.230934
-0.173101
-0.123389
-0.0773604
-0.0272062
-0.00583558
2.91714
2.93361
2.97748
3.05079
3.1529
3.27725
3.39479
3.41691
3.14515
2.17873
0.014783
-3.83469
-7.12117
-7.2369
-5.46386
-3.42027
-2.0139
-1.37633
-1.04472
-0.743276
-0.518072
-0.408229
-0.35298
-0.305094
-0.261087
-0.223167
-0.185514
-0.147198
-0.0991524
-0.0673778
2.94308
2.96682
3.03046
3.14144
3.30937
3.54532
3.84468
4.13628
4.19456
3.43302
0.795441
-5.24785
-10.0529
-9.15947
-6.20032
-3.27265
-1.61847
-1.07867
-0.810888
-0.50887
-0.299252
-0.219601
-0.181274
-0.14241
-0.108251
-0.0823657
-0.0535399
-0.0241433
0.008129
0.0109523
2.96704
2.99798
3.08142
3.23127
3.47009
3.83414
4.36208
5.04253
5.67554
5.44013
2.16819
-7.59124
-14.6868
-11.6974
-7.08538
-2.81886
-0.91346
-0.633726
-0.557146
-0.355811
-0.260167
-0.286894
-0.310634
-0.303043
-0.280626
-0.257162
-0.219105
-0.178315
-0.12702
-0.0966074
2.98604
3.02327
3.12417
3.30933
3.61589
4.1112
4.8979
6.09702
7.68799
8.88267
6.34653
-7.76243
-21.4301
-15.4619
-7.48216
-2.12252
-0.0844367
0.0326143
0.0409276
0.235765
0.270743
0.161874
0.0665861
0.0212742
-0.00239613
-0.0176182
-0.0113772
0.003274
0.0293268
0.0147998
2.99752
3.03928
3.15295
3.36457
3.72262
4.32626
5.35662
7.12422
10.1361
14.3332
15.5328
-11.0931
-37.9598
-20.8138
-5.79886
-0.470769
0.760097
0.244167
-0.0591445
0.00996189
-0.0541501
-0.230034
-0.357415
-0.393411
-0.389892
-0.366231
-0.320043
-0.264208
-0.197633
-0.138688
2.99961
3.04352
3.16323
3.38724
3.77048
4.42897
5.59861
7.7491
11.9727
19.9418
34.1472
-34.2509
-88.7428
-25.8053
-4.08154
1.65973
2.32019
1.31592
0.802724
0.865174
0.732059
0.448075
0.206685
0.0710049
-0.00463062
-0.0452452
-0.0546263
-0.0401199
-0.0368637
0.016208
2.99139
3.03489
3.15327
3.37504
3.75716
4.412
5.56978
7.70637
11.9077
19.8553
39.7104
-23.2485
-92.039
-43.7535
-4.01405
2.07826
2.58957
1.34221
0.809532
0.939924
0.861384
0.566795
0.274006
0.0942861
-0.0063219
-0.0581746
-0.0709527
-0.0506108
-0.05976
0.0467928
2.97305
3.0135
3.1234
3.32821
3.67711
4.2656
5.26822
6.99661
9.93949
14.0201
23.6017
-21.5982
-72.5954
-37.3338
-6.24208
-0.504001
0.628784
0.0102805
-0.0455702
0.390645
0.54869
0.382506
0.142482
-0.0193394
-0.12396
-0.19129
-0.225018
-0.227917
-0.232077
-0.120161
2.94593
2.98078
3.0754
3.24945
3.53845
4.00765
4.75463
5.89243
7.37321
8.36483
9.26566
-13.8168
-32.3288
-21.0052
-7.92861
-2.05277
-0.187857
-0.245634
-0.104512
0.373624
0.59896
0.509581
0.336606
0.228086
0.171972
0.141541
0.125336
0.119063
0.115608
0.0931398
2.91231
2.93995
3.01486
3.14978
3.36583
3.69645
4.17397
4.77646
5.2797
4.82322
1.15323
-9.35114
-17.283
-13.9937
-7.65861
-2.81187
-1.03035
-0.880873
-0.69144
-0.253746
0.00180069
-0.00757958
-0.0993946
-0.154846
-0.169968
-0.166696
-0.159376
-0.147287
-0.125284
-0.0908073
2.87513
2.89484
2.94814
3.04121
3.182
3.37845
3.62004
3.82574
3.75221
2.79016
-0.158588
-6.67876
-11.9819
-10.9412
-6.95751
-3.51379
-1.82321
-1.28886
-0.905887
-0.433915
-0.114223
-0.0201835
-0.0224221
-0.0226092
-0.00745977
0.00989607
0.0162597
0.0209181
0.0271708
0.0274749
2.83767
2.84953
2.88157
2.93455
3.00618
3.08701
3.14292
3.07744
2.68014
1.5381
-0.870412
-5.03486
-8.60667
-8.63375
-6.24451
-3.74353
-2.19168
-1.51511
-1.12224
-0.730331
-0.432691
-0.297321
-0.252077
-0.221909
-0.188306
-0.157968
-0.137268
-0.117131
-0.0916569
-0.0543448
2.8031
2.80789
2.82107
2.83918
2.85284
2.84185
2.76153
2.51813
1.94683
0.784165
-1.20106
-4.07698
-6.59242
-6.99978
-5.56932
-3.75544
-2.44988
-1.75894
-1.33558
-0.939827
-0.604671
-0.397988
-0.289434
-0.220917
-0.167081
-0.124581
-0.0936832
-0.0666307
-0.03766
-0.00868447
2.77433
2.77341
2.77144
2.76207
2.73141
2.65322
2.47909
2.12499
1.46629
0.340686
-1.34618
-3.49712
-5.35877
-5.87262
-5.02399
-3.69878
-2.60087
-1.90823
-1.44742
-1.0487
-0.712443
-0.488093
-0.36176
-0.285405
-0.228497
-0.182153
-0.143674
-0.108563
-0.0703636
-0.0318749
2.75368
2.74882
2.73636
2.7082
2.6479
2.52625
2.29435
1.87693
1.17722
0.0928071
-1.40196
-3.15639
-4.64985
-5.18634
-4.66173
-3.63529
-2.67573
-1.99547
-1.52154
-1.13035
-0.800812
-0.564797
-0.418073
-0.32355
-0.251817
-0.19218
-0.141228
-0.0963413
-0.0526231
-0.016248
2.74266
2.73582
2.71799
2.68025
2.60508
2.46204
2.20264
1.75685
1.04162
-0.0181484
-1.41865
-2.9962
-4.32494
-4.8634
-4.48043
-3.5949
-2.70602
-2.03804
-1.56019
-1.17142
-0.842727
-0.598477
-0.439897
-0.336346
-0.259289
-0.196422
-0.143309
-0.097648
-0.0544221
-0.0202474
2.81377
2.80948
2.79832
2.77263
2.71642
2.60174
2.38486
2.0041
1.38781
0.472419
-0.736003
-2.09719
-3.26418
-3.81057
-3.63394
-3.03515
-2.37955
-1.84816
-1.44722
-1.12496
-0.860499
-0.659042
-0.512606
-0.400377
-0.30854
-0.232721
-0.168441
-0.112583
-0.0550571
-0.027862
2.82142
2.81885
2.81233
2.79486
2.75135
2.65484
2.46116
2.10427
1.50094
0.565842
-0.716377
-2.21229
-3.5007
-4.04627
-3.77134
-3.07411
-2.36485
-1.8185
-1.41765
-1.09627
-0.834486
-0.638827
-0.497616
-0.387911
-0.297422
-0.223363
-0.161107
-0.10672
-0.0500232
-0.022768
2.83579
2.83661
2.83906
2.83761
2.81922
2.75934
2.61378
2.30888
1.73851
0.769561
-0.664461
-2.45871
-4.01518
-4.54178
-4.04499
-3.14122
-2.32558
-1.75417
-1.35573
-1.03526
-0.778176
-0.595837
-0.469176
-0.369876
-0.28701
-0.219733
-0.163635
-0.114349
-0.0610073
-0.033586
2.85554
2.8612
2.87649
2.89824
2.91707
2.91317
2.84471
2.6288
2.12562
1.12
-0.550362
-2.87282
-4.89778
-5.343
-4.45144
-3.21813
-2.24571
-1.6463
-1.25814
-0.94128
-0.689807
-0.522196
-0.410414
-0.320854
-0.244637
-0.182244
-0.129223
-0.0812838
-0.03049
-0.00808907
2.87863
2.89021
2.92132
2.97217
3.03908
3.11053
3.15227
3.07537
2.69906
1.68726
-0.312323
-3.53447
-6.30244
-6.49455
-4.95734
-3.25883
-2.09635
-1.48038
-1.11575
-0.81539
-0.587565
-0.452479
-0.368655
-0.30014
-0.242321
-0.196217
-0.154787
-0.114656
-0.0680615
-0.0417784
2.90256
2.92064
2.96928
3.05308
3.1764
3.34088
3.52849
3.65604
3.50755
2.57981
0.153165
-4.60957
-8.53179
-8.06182
-5.53024
-3.2213
-1.85111
-1.24325
-0.908986
-0.61761
-0.409433
-0.301848
-0.234064
-0.172335
-0.121009
-0.0838128
-0.0491239
-0.0145102
0.0212652
0.0258983
2.92456
2.94909
3.01528
3.13289
3.31641
3.58622
3.95419
4.3678
4.60589
3.93673
0.977343
-6.367
-12.0388
-9.97519
-5.97073
-3.04641
-1.49076
-0.932161
-0.676272
-0.435767
-0.293783
-0.260127
-0.245454
-0.215482
-0.182341
-0.156167
-0.122559
-0.0853705
-0.0403746
-0.0204902
2.94191
2.97208
3.05368
3.2018
3.44259
3.81884
4.38578
5.16864
6.01645
6.0091
2.41798
-9.36949
-17.6684
-12.4798
-6.08008
-2.68598
-1.03518
-0.516243
-0.291303
-0.0360176
0.0963485
0.0923371
0.0621097
0.0521785
0.0494174
0.0454864
0.0547864
0.0731366
0.0977777
0.0861618
2.95221
2.98643
3.07923
3.25002
3.53499
4.00003
4.7491
5.92453
7.5681
8.98452
7.77042
-9.54067
-26.5686
-16.6887
-6.18382
-2.18071
-0.552155
-0.292373
-0.248292
-0.0548753
0.0411705
0.00151223
-0.0588827
-0.080924
-0.0865847
-0.0831819
-0.0641443
-0.0313468
0.00794045
0.0317099
2.95371
2.98983
3.08801
3.26945
3.57538
4.08646
4.94345
6.38195
8.67369
11.5526
14.1419
-14.3026
-39.7934
-20.3075
-6.37377
-1.3938
0.404693
0.48657
0.397566
0.546719
0.585399
0.466264
0.318491
0.223439
0.162089
0.12104
0.103268
0.106539
0.107181
0.104281
2.94559
2.9813
3.07843
3.25816
3.56155
4.06745
4.91569
6.34231
8.61538
11.4718
15.7079
-15.3586
-44.3897
-22.7766
-6.1939
-1.33059
0.407545
0.463473
0.397663
0.576561
0.623525
0.477891
0.292638
0.165247
0.0904638
0.0535143
0.0455757
0.0619452
0.0659521
0.0932399
2.92807
2.96092
3.0503
3.21511
3.49015
3.93987
4.66565
5.80698
7.3927
8.71536
10.3689
-13.3778
-35.7962
-20.1024
-6.61275
-2.48945
-0.724626
-0.35775
-0.176222
0.162409
0.334241
0.266742
0.120707
0.0122157
-0.049908
-0.0761617
-0.0781203
-0.0599578
-0.0458917
0.000670731
2.90236
2.93019
3.00584
3.14353
3.36777
3.72008
4.25147
4.9803
5.73706
5.56599
1.63935
-10.8574
-19.861
-14.3109
-6.73036
-2.86886
-1.09519
-0.593306
-0.332909
0.0390698
0.265547
0.261341
0.16707
0.099295
0.07216
0.0703876
0.0820443
0.102168
0.113275
0.108801
2.87061
2.89198
2.95005
3.05356
3.21577
3.45462
3.77699
4.12177
4.25033
3.4019
0.142922
-7.68991
-13.8532
-11.5768
-6.57177
-3.15794
-1.57593
-1.09621
-0.805389
-0.418379
-0.147463
-0.0839911
-0.117313
-0.144771
-0.146334
-0.132315
-0.111663
-0.0874551
-0.0619679
-0.031652
2.83557
2.8498
2.88858
2.9554
3.05321
3.18103
3.31603
3.36711
3.10509
2.01025
-0.662114
-5.76485
-10.0001
-9.39681
-6.19188
-3.48683
-2.06055
-1.45384
-1.03653
-0.601205
-0.280874
-0.1443
-0.109668
-0.0914885
-0.0668582
-0.0402037
-0.017931
0.00247685
0.0205559
0.0301579
2.80027
2.80743
2.82727
2.85879
2.89698
2.92787
2.91299
2.75714
2.27063
1.10893
-1.09007
-4.55166
-7.51285
-7.61818
-5.64067
-3.59554
-2.30225
-1.63212
-1.1988
-0.809536
-0.510347
-0.349539
-0.278506
-0.233983
-0.193024
-0.156287
-0.125924
-0.0974644
-0.0667814
-0.0329138
2.76771
2.76852
2.77146
2.77215
2.75999
2.71305
2.58595
2.29117
1.68367
0.544498
-1.2883
-3.7831
-5.92846
-6.30994
-5.12164
-3.59963
-2.47708
-1.813
-1.37394
-0.991384
-0.672698
-0.461844
-0.338928
-0.258292
-0.195625
-0.14538
-0.105524
-0.0704945
-0.0356739
-0.005917
2.7406
2.73627
2.72561
2.7019
2.65104
2.54664
2.34167
1.95924
1.29045
0.201703
-1.36789
-3.29205
-4.92664
-5.39975
-4.68996
-3.54922
-2.58177
-1.93162
-1.47605
-1.09066
-0.767292
-0.539478
-0.398789
-0.308271
-0.241214
-0.187555
-0.142945
-0.103097
-0.0621767
-0.0255222
2.72114
2.71326
2.69318
2.65274
2.57589
2.43411
2.18092
1.74797
1.05078
0.00567565
-1.39459
-2.99536
-4.33808
-4.8351
-4.39331
-3.49508
-2.63718
-2.00266
-1.54067
-1.15952
-0.840053
-0.604199
-0.44892
-0.344801
-0.266253
-0.202096
-0.147579
-0.0997875
-0.0535759
-0.0166484
2.71074
2.70108
2.67617
2.62719
2.53726
2.37703
2.10074
1.64487
0.937276
-0.0829959
-1.40077
-2.85505
-4.06567
-4.56574
-4.24294
-3.46144
-2.66043
-2.03717
-1.57373
-1.19455
-0.875805
-0.634236
-0.470068
-0.35848
-0.274848
-0.207207
-0.150226
-0.101295
-0.0548853
-0.0193568
2.77519
2.76748
2.74767
2.70821
2.63375
2.49748
2.2587
1.86237
1.24775
0.366421
-0.764398
-2.00783
-3.06143
-3.56755
-3.43633
-2.92137
-2.33993
-1.85112
-1.46729
-1.15324
-0.893915
-0.692246
-0.54098
-0.422951
-0.326128
-0.246125
-0.178493
-0.120188
-0.0605587
-0.0305406
2.78217
2.77597
2.76022
2.72787
2.6642
2.54303
2.32292
1.94477
1.33796
0.436854
-0.756885
-2.10752
-3.25623
-3.76263
-3.55204
-2.95643
-2.33139
-1.82897
-1.44329
-1.12927
-0.872085
-0.675206
-0.528572
-0.413115
-0.317649
-0.239041
-0.173017
-0.116009
-0.0573405
-0.0273627
2.79527
2.79203
2.78412
2.76558
2.72319
2.63231
2.45071
2.11194
1.52565
0.588669
-0.733919
-2.31741
-3.67233
-4.16767
-3.78084
-3.01838
-2.30753
-1.78082
-1.39327
-1.0793
-0.825396
-0.637872
-0.502195
-0.395406
-0.306741
-0.234191
-0.173434
-0.120622
-0.0649206
-0.0350352
2.81324
2.81424
2.8175
2.81891
2.80788
2.76294
2.64221
2.3699
1.82654
0.844563
-0.680213
-2.66628
-4.37367
-4.81452
-4.11604
-3.09271
-2.25836
-1.70122
-1.31564
-1.00512
-0.756679
-0.579896
-0.455271
-0.35675
-0.274797
-0.207933
-0.151003
-0.100089
-0.0467377
-0.0199067
2.8342
2.84037
2.85736
2.88366
2.91285
2.92916
2.8945
2.72398
2.2616
1.24295
-0.558845
-3.19328
-5.45597
-5.73731
-4.52999
-3.14399
-2.16031
-1.57659
-1.20107
-0.903077
-0.672968
-0.520128
-0.416384
-0.333977
-0.266697
-0.213365
-0.166409
-0.122194
-0.0729803
-0.0442454
2.85585
2.86767
2.89981
2.95412
3.03009
3.12097
3.19796
3.17386
2.85421
1.84257
-0.310772
-3.97146
-7.06461
-6.96709
-4.99921
-3.15172
-1.99365
-1.39442
-1.03894
-0.752586
-0.539711
-0.410578
-0.323977
-0.250849
-0.190915
-0.145027
-0.103338
-0.0622791
-0.0195243
-0.00354918
2.87565
2.89307
2.94031
3.02315
3.14852
3.32254
3.53448
3.70764
3.62174
2.71128
0.126696
-5.16106
-9.42009
-8.43098
-5.39413
-3.09291
-1.76829
-1.1666
-0.85797
-0.607126
-0.437285
-0.36102
-0.319002
-0.2759
-0.235206
-0.201312
-0.163848
-0.122776
-0.0750912
-0.0464356
2.89111
2.91337
2.97383
3.08241
3.25407
3.51055
3.86776
4.28264
4.54798
3.91312
0.877564
-6.91871
-12.9343
-10.1724
-5.53318
-2.8146
-1.43399
-0.867816
-0.591842
-0.342179
-0.181741
-0.13682
-0.131739
-0.120975
-0.106116
-0.0923517
-0.0696883
-0.0390804
-0.00348914
0.00769192
2.90004
2.92576
2.99573
3.12325
3.33098
3.65529
4.14107
4.80163
5.49317
5.41344
2.07181
-9.01464
-17.4509