/*--------------------------------*- C++ -*----------------------------------*\
| =========                 |                                                 |
| \\      /  F ield         | OpenFOAM: The Open Source CFD Toolbox           |
|  \\    /   O peration     | Version:  2512                                  |
|   \\  /    A nd           | Website:  www.openfoam.com                      |
|    \\/     M anipulation  |                                                 |
\*---------------------------------------------------------------------------*/
FoamFile
{
    version     2.0;
    format      ascii;
    arch        "LSB;label=32;scalar=64";
    class       surfaceScalarField;
    location    "180";
    object      phi;
}
// * * * * * * * * * * * * * * * * * * * * * * * * * * * * * * * * * * * * * //

dimensions      [0 3 -1 0 0 0 0];

oriented        oriented;

internalField   nonuniform List<scalar> 
278528
(
1.59972
0.000247273
6.18101e-05
1.59993
-0.000295562
0.000109215
1.6009
-0.00108313
0.000151225
1.60284
-0.00212965
0.00020981
1.60486
-0.00227331
0.00027138
1.60761
-0.00307127
0.000312596
1.61133
-0.00440066
0.000664396
1.61878
-0.0079474
0.000489069
1.62757
-0.00924762
0.00047219
1.64511
-0.0176273
0.000130719
1.65931
-0.013678
-0.000466206
1.66627
-0.00541959
-0.00148698
1.68956
-0.0207056
-0.00253038
1.70614
-0.0130646
-0.00346926
1.72533
-0.0155781
-0.00360685
1.74777
-0.0195349
-0.00293194
1.77114
-0.0226146
-0.00086266
1.79338
-0.0279936
0.00565811
1.81325
-0.0347054
0.0148024
1.84725
-0.0425937
0.0086009
1.91179
-0.042788
-0.0217949
1.99907
-0.0350714
-0.0523062
2.09191
-0.0256261
-0.0672802
2.1811
-0.0173584
-0.0718624
2.26402
-0.0106149
-0.0723465
2.34096
-0.00506754
-0.0719237
2.41326
-0.000939575
-0.0714339
2.48401
0.00319898
-0.0740423
2.5565
0.00406057
-0.0766064
0.00904023
-0.107105
1.60016
5.13752e-05
6.09776e-05
1.6007
-0.000909685
0.000107469
1.60174
-0.00225019
0.000161487
1.60333
-0.00391968
0.000217236
1.60536
-0.00453407
0.000246393
1.60861
-0.00669034
0.000366621
1.61144
-0.00807537
0.000831344
1.61839
-0.0155536
0.000640897
1.62831
-0.019819
0.000678833
1.64495
-0.034518
0.000295704
1.65956
-0.0279631
-0.000269259
1.66652
-0.0109131
-0.00142636
1.68937
-0.040772
-0.0027425
1.70537
-0.025268
-0.0037535
1.72426
-0.0305415
-0.00390016
1.74674
-0.0389475
-0.00308883
1.77076
-0.0464908
-0.000240829
1.7932
-0.0561434
0.00560765
1.81605
-0.0688658
0.011293
1.8509
-0.0820948
0.00465716
1.91039
-0.0818116
-0.0205184
1.9894
-0.0687426
-0.0454223
2.07455
-0.0525102
-0.0583297
2.15784
-0.0377824
-0.0629031
2.23636
-0.0254
-0.0637762
2.30992
-0.015078
-0.0636061
2.37939
-0.00709739
-0.0633942
2.44778
0.000409156
-0.0656929
2.51757
0.00306703
-0.0688643
0.0105197
-0.0967741
1.60015
-0.000129425
6.3067e-05
1.60068
-0.00152741
0.000117493
1.6015
-0.00321956
0.000178822
1.60296
-0.00560102
0.000242691
1.60481
-0.00659158
0.000220588
1.60735
-0.00971573
0.000481736
1.6113
-0.0131436
0.00110636
1.6168
-0.0220317
0.000973934
1.62674
-0.0308483
0.0011126
1.64471
-0.0532438
0.00080245
1.6603
-0.0436607
0.000153726
1.6672
-0.0164489
-0.00133122
1.68915
-0.059427
-0.00327035
1.70388
-0.035485
-0.00447209
1.72211
-0.0440256
-0.00471132
1.74464
-0.0578853
-0.00360113
1.76864
-0.0706349
6.40458e-05
1.79294
-0.0851109
0.00457343
1.82071
-0.102199
0.0055413
1.8599
-0.115935
-0.00534825
1.91729
-0.113519
-0.0257183
1.9888
-0.0975717
-0.0427582
2.06533
-0.0778036
-0.0513087
2.14098
-0.0591361
-0.0543297
2.21312
-0.0429099
-0.0546727
2.28131
-0.0290387
-0.0542867
2.3461
-0.0179861
-0.0539865
2.41007
-0.00766985
-0.0559911
2.47557
-0.0035262
-0.0589738
0.00618111
-0.0845719
1.60017
-0.000340789
6.56774e-05
1.60056
-0.00201776
0.000129508
1.60128
-0.00410918
0.000201418
1.60244
-0.00702007
0.000282552
1.60436
-0.00874487
0.000243003
1.60627
-0.0122353
0.000611833
1.60863
-0.0170104
0.00149088
1.61471
-0.0296219
0.00151793
1.62485
-0.0427969
0.00183601
1.64446
-0.0747729
0.0019497
1.6619
-0.0619997
0.000951309
1.6689
-0.0219082
-0.00149636
1.6889
-0.0755997
-0.00381436
1.70142
-0.0422365
-0.00573858
1.71854
-0.0549049
-0.00618719
1.74112
-0.0756647
-0.00481516
1.76575
-0.0942045
-0.00114144
1.79296
-0.113127
0.000736193
1.82587
-0.131744
-0.00338084
1.86849
-0.143433
-0.0151204
1.92372
-0.139161
-0.0296262
1.98852
-0.122546
-0.0398989
2.05696
-0.10178
-0.0445339
2.12481
-0.0813701
-0.0456589
2.18994
-0.0629884
-0.0450971
2.25185
-0.0467745
-0.0442267
2.31088
-0.0334717
-0.0436279
2.36921
-0.0208886
-0.0452132
2.42888
-0.015518
-0.0477488
-0.00371458
-0.0704796
1.60017
-0.000549542
6.57344e-05
1.60042
-0.00238558
0.000143179
1.60104
-0.00493197
0.000231722
1.60197
-0.00826432
0.000337254
1.60459
-0.0116481
0.000298261
1.60569
-0.0139353
0.000591245
1.60775
-0.0211095
0.00203727
1.61166
-0.035938
0.00241113
1.62338
-0.0577854
0.0032829
1.64453
-0.099965
0.00410897
1.66524
-0.0848618
0.00222041
1.69292
-0.0478116
-0.00172824
1.68873
-0.0661988
-0.00518399
1.69763
-0.0432612
-0.00781835
1.71305
-0.061826
-0.00847079
1.73598
-0.091755
-0.00687124
1.76214
-0.11637
-0.00406773
1.79303
-0.138571
-0.00549012
1.83015
-0.156976
-0.0118974
1.87487
-0.166345
-0.0218001
1.92784
-0.16108
-0.0310957
1.98676
-0.145048
-0.0364772
2.04774
-0.12483
-0.0379994
2.10789
-0.104269
-0.0373033
2.16567
-0.0851148
-0.035694
2.22065
-0.0676539
-0.0341583
2.27307
-0.0528949
-0.0330884
2.32478
-0.0386147
-0.0340858
2.37742
-0.0322014
-0.0360363
-0.0185244
-0.0552702
1.60014
-0.000721889
6.32687e-05
1.60045
-0.00282963
0.000155129
1.60068
-0.00538165
0.00025482
1.60108
-0.00905043
0.000406671
1.6028
-0.0137765
0.000414161
1.60653
-0.017714
4.54621e-05
1.60686
-0.0239317
0.00250113
1.60981
-0.0431896
0.00430601
1.62044
-0.0744336
0.00606282
1.63305
-0.120836
0.00831831
1.67189
-0.128117
0.00450157
1.68464
-0.0585483
-0.00194602
1.68881
-0.0626193
-0.00766587
1.69174
-0.0349324
-0.0112328
1.70514
-0.0633266
-0.0119076
1.73011
-0.106229
-0.0105577
1.76032
-0.13749
-0.00916298
1.79563
-0.161618
-0.0122791
1.83581
-0.179076
-0.0180718
1.88037
-0.185456
-0.0254479
1.92919
-0.179015
-0.03092
1.98109
-0.164031
-0.0329728
2.03394
-0.145586
-0.0321605
2.08602
-0.126495
-0.0299043
2.1362
-0.108126
-0.0272135
2.18407
-0.0907065
-0.0248867
2.2297
-0.0754145
-0.0231942
2.27449
-0.0600776
-0.0234218
2.31967
-0.0527972
-0.0246725
-0.0373906
-0.039893
1.6002
-0.000951527
5.95096e-05
1.60033
-0.00307956
0.000142785
1.60069
-0.00588869
0.000180683
1.60076
-0.00952035
0.000417547
1.60063
-0.0144582
0.000826293
1.60358
-0.0207277
6.87899e-05
1.60546
-0.0276942
0.00189879
1.60338
-0.0481409
0.00706287
1.61028
-0.092392
0.0110361
1.63505
-0.0333806
0.0157528
-0.0396037
-0.040625
-0.0476964
1.68297
-0.050799
0.00753026
-0.0316938
-0.0594116
-0.0416056
1.69701
-0.0159763
-0.00182551
-0.0124331
-0.0209663
-0.0213539
1.69045
-0.00444321
-0.0111509
-0.00703567
-0.013152
-0.0202293
1.68481
0.000259169
-0.0160324
0.000859975
-0.00701658
-0.00733421
1.69951
-0.0610257
-0.0170336
1.72787
-0.117084
-0.0175916
1.76174
-0.154392
-0.0170212
1.79439
-0.17743
-0.0168405
1.82776
-0.192424
-0.0200022
1.86285
-0.195765
-0.0247713
1.9018
-0.189838
-0.0281534
1.94511
-0.178764
-0.0286333
1.99133
-0.165277
-0.0265833
2.03845
-0.15039
-0.023276
2.0847
-0.134717
-0.0197195
2.129
-0.118419
-0.0166443
2.17086
-0.103045
-0.0143138
2.21105
-0.0866765
-0.0136907
2.25073
-0.0783353
-0.0142302
-0.0604317
-0.0250791
1.60004
-0.00102344
5.58784e-05
1.6004
-0.00348204
7.47575e-05
1.60099
-0.00611453
-0.000341435
1.60115
-0.00963104
-3.10814e-05
1.59922
-0.0144095
0.00189489
1.59811
-0.0208711
0.00127681
1.59854
-0.029988
0.00189624
1.58908
-0.049023
0.0103435
0.398113
-0.0197641
0.0193566
0.395209
0.398042
0.395212
-0.0304332
-0.0240497
-0.0349672
0.402489
-0.0400404
0.00227235
0.41904
-0.0590969
0.000619239
-0.411297
-0.424986
0.433106
-0.0229279
-0.00119378
-0.432416
0.431761
-0.0011392
-0.00264493
-0.426397
0.422367
0.00742866
-0.0031377
1.67845
-0.0488215
-0.015259
-0.418738
-0.419346
-0.418638
-0.418802
1.68852
-0.117307
-0.00997272
1.69369
-0.149789
-0.00983
1.70137
-0.173951
-0.0111373
1.71611
-0.193006
-0.014108
1.74276
-0.203946
-0.0184595
1.78362
-0.208615
-0.0220976
1.83581
-0.208081
-0.0229161
1.89358
-0.202196
-0.0209084
1.95158
-0.191122
-0.0173095
2.0062
-0.176064
-0.0133251
2.05569
-0.158241
-0.00972675
2.09968
-0.140256
-0.00686538
2.13895
-0.120662
-0.00538683
2.17563
-0.109851
-0.00524394
-0.0871496
-0.0115631
1.59997
-0.00101685
5.39881e-05
1.59997
-0.00352783
7.34387e-05
1.60072
-0.00633915
-0.00050546
1.60149
-0.00962827
-0.000750227
1.59878
-0.0134347
0.0017495
1.59468
-0.0198069
0.00305818
1.59029
-0.029334
0.00377161
0.394425
-0.044924
0.0138816
0.392862
0.393274
0.391751
0.391626
-0.0191049
0.00212075
0.394249
-0.0617418
0.00743726
0.0488701
-0.389035
0.424392
0.00512698
-0.415141
0.0722039
-0.0228625
-0.0209596
-0.0275932
-0.0150267
0.440975
-0.436077
0.0257248
-0.00740478
-0.00612175
-0.0113164
-0.0035384
0.0011222
-0.00199962
-0.000216284
-0.000895111
-0.435805
0.435724
0.00027369
-0.00167108
-0.000728247
-0.000870683
-0.00248238
0.00413391
-0.000827798
-0.00061566
0.00280541
-0.429243
0.416021
-0.0137361
-0.00128184
0.00152362
0.00207185
-0.00158393
0.00276555
0.00936391
0.0108264
0.0031939
1.38623
-0.0456898
-0.00766758
-0.390907
-0.274891
-0.400178
-0.315902
1.37967
-0.0973434
-0.0135432
1.38806
-0.138603
-0.0195947
1.42371
-0.187146
-0.0223949
1.48309
-0.230358
-0.0219652
1.56211
-0.260483
-0.0224517
1.6537
-0.276178
-0.0240393
1.74746
-0.277832
-0.0240477
1.8343
-0.267789
-0.021296
1.90936
-0.249576
-0.0166518
1.97155
-0.226838
-0.0114625
2.0219
-0.201989
-0.00666088
2.06228
-0.178046
-0.00266276
2.09472
-0.153372
0.000168622
2.1223
-0.139043
0.00151997
-0.111189
-0.000185261
1.59993
-0.000971479
5.37968e-05
1.59969
-0.00339834
0.000136149
1.59949
-0.0060951
-2.47358e-05
1.59979
-0.00922257
-0.000681926
1.59849
-0.0129773
0.000855935
1.59261
-0.0176328
0.00373213
1.58156
-0.023475
0.0052102
0.389773
-0.0310823
0.0159006
0.388167
0.387864
0.386019
0.380823
-0.0126874
0.00399356
0.0176029
0.0134278
-0.0928251
0.0913617
-0.0129102
0.00086475
0.0315893
-0.111597
0.114719
0.00658165
-0.00993483
-0.0101742
-0.0129094
-0.00845516
0.0116902
-0.105462
0.0971705
-0.0186402
0.00468136
0.00245776
0.00341341
0.00473738
-0.0738028
0.0160837
0.0717001
-0.0192734
0.000388693
0.00206913
0.00133397
0.00151198
-0.0670112
0.0107527
-0.00442146
-0.00210241
0.0627857
0.937004
-0.117272
-0.0311053
-0.204407
-0.188286
-0.246441
-0.195362
1.06498
-0.182717
-0.0427388
1.21641
-0.24361
-0.0464361
1.36985
-0.295481
-0.0450257
1.51238
-0.330125
-0.0426875
1.64072
-0.346178
-0.0426068
1.75259
-0.345619
-0.042437
1.8454
-0.331754
-0.0389179
1.91884
-0.309304
-0.0319658
1.975
-0.282269
-0.0235073
2.01695
-0.253563
-0.0152725
2.04776
-0.224718
-0.00813095
2.06976
-0.197911
-0.00220149
2.08489
-0.171121
0.00252663
2.09468
-0.154778
0.00585836
-0.125155
0.00889988
1.5999
-0.000902015
5.22033e-05
1.59959
-0.00318479
0.000130876
1.59925
-0.00570136
-3.37421e-05
1.59933
-0.00860096
-0.000685947
1.59774
-0.0122222
0.000857306
1.59169
-0.0152884
0.00372068
1.58017
-0.0171104
0.00518713
0.38785
-0.0162141
0.0159354
0.389031
0.385569
0.386917
0.00800698
0.379068
-0.0036314
0.00436376
0.00218838
-0.0899833
0.0833172
0.00275676
0.00175008
-0.00611288
-0.0295702
0.07138
0.0568924
-0.0201602
-0.0273532
-0.01807
-0.0268883
-0.0085045
-0.0742661
0.070796
0.0176061
-0.00560525
-0.0692092
-0.016393
0.0195456
0.000690811
0.0653773
1.30275
-0.240522
-0.0256888
-0.225968
-0.271463
-0.299122
-0.357377
1.4295
-0.256331
-0.0532261
1.55191
-0.294932
-0.0710791
1.66308
-0.325456
-0.0811315
1.75979
-0.343954
-0.0828084
1.84067
-0.348217
-0.078797
1.90696
-0.341892
-0.0700227
1.95899
-0.326282
-0.0575236
1.99821
-0.304834
-0.0437311
2.0267
-0.280069
-0.0307311
2.04642
-0.253783
-0.0195367
2.05899
-0.226957
-0.0103823
2.06537
-0.201513
-0.00284367
2.0663
-0.175685
0.00354431
2.06172
-0.159015
0.00874313
-0.130029
0.0163684
1.5999
-0.000823856
4.91184e-05
1.59966
-0.00297944
5.66823e-05
1.59999
-0.00547683
-0.000534248
1.60013
-0.00791401
-0.00080171
1.59669
-0.0104072
0.00163478
1.59115
-0.0126254
0.00290305
1.58484
-0.0144101
0.00363686
0.391229
-0.00913662
0.0139465
0.392264
0.389693
0.390658
-0.00158903
0.386118
0.00329908
0.0033918
-0.00881941
0.0390372
0.0119328
-0.0127144
-0.00973774
-0.0139904
0.093869
0.0919261
0.0930437
0.0949256
-0.379328
-0.0291129
-0.0997988
0.101467
0.00452278
0.0229727
-0.0464329
-0.0990031
0.0929989
0.0254776
0.0269402
-0.0270315
-0.0758116
0.0741396
0.0175744
0.011141
-0.00768678
-0.0753732
0.0110169
0.0771796
-0.00511051
1.66371
-0.208565
-0.0573798
-0.392954
-0.416405
-0.414727
-0.414285
1.6954
-0.213025
-0.0750369
1.73604
-0.244258
-0.0913024
1.7881
-0.277235
-0.100228
1.84271
-0.299324
-0.0991786
1.89528
-0.310561
-0.0901858
1.94086
-0.31123
-0.0762424
1.97737
-0.302753
-0.0600583
2.00516
-0.28822
-0.0444338
2.02381
-0.267957
-0.0307959
2.03488
-0.245571
-0.019322
2.0394
-0.221545
-0.00997491
2.0378
-0.197914
-0.0020564
2.03031
-0.173421
0.00514131
2.01652
-0.156799
0.011498
-0.128868
0.0231282
1.59993
-0.000778268
4.76515e-05
1.5999
-0.0029699
4.67023e-05
1.59985
-0.00499975
-0.000406582
1.59902
-0.00690934
-0.000151801
1.59555
-0.00863979
0.00171788
1.59238
-0.0104959
0.0010635
1.58993
-0.0135646
0.0016442
1.57635
-0.00573768
0.0102233
0.390667
0.0230972
0.0198318
-0.00414898
-0.0120835
-0.00373626
-0.0112964
0.392966
0.389395
0.391705
-0.0295939
0.392633
0.0225287
0.00519086
-0.0642659
0.410769
0.0473195
0.00779403
-0.401499
-0.0340671
-0.422814
0.431937
0.0183408
0.00663663
0.0180318
-0.431717
0.431099
-0.0210635
0.00357028
0.0534922
-0.426902
0.419524
-0.0467354
0.000587608
1.64829
-0.176029
-0.0311495
-0.413653
-0.411413
-0.412687
-0.411967
1.66783
-0.17657
-0.056018
1.70944
-0.200542
-0.0853186
1.76992
-0.236083
-0.101584
1.83378
-0.261939
-0.101182
1.89063
-0.277117
-0.0902555
1.93656
-0.282275
-0.0748811
1.97082
-0.278642
-0.0583835
1.99376
-0.26811
-0.0430856
2.00798
-0.252285
-0.0299176
2.01417
-0.23306
-0.0187349
2.01296
-0.210766
-0.009604
2.00513
-0.188635
-0.0015087
1.99073
-0.165458
0.00636004
1.96923
-0.149081
0.0137039
-0.122525
0.0290347
1.60004
-0.000848127
4.85378e-05
1.59967
-0.00267338
0.000101724
1.59906
-0.00447084
9.97631e-05
1.59773
-0.00584055
0.000282253
1.59564
-0.00715458
0.0006223
1.59589
-0.0105023
-0.000219548
1.59417
-0.0132697
0.00146428
1.58669
-0.00475626
0.00654664
1.58502
0.0138819
0.0109166
1.60036
0.048111
0.0176214
-0.0164642
-0.022198
-0.0182605
-0.0240774
1.64887
0.0538121
0.0165819
-0.0356968
-0.0218456
-0.037576
-0.0237859
1.66531
-0.0289929
0.00836634
-0.00311484
0.00432513
-0.000158889
0.00301037
1.65472
-0.0638938
-0.00875816
0.0207921
0.0244554
0.0195013
0.018342
1.63881
-0.134587
-0.0184502
0.0394388
0.0438791
0.0395287
0.0460327
1.63866
-0.14935
-0.0265691
1.65594
-0.148709
-0.0451468
1.70407
-0.169007
-0.0796379
1.76704
-0.197984
-0.101024
1.83198
-0.22478
-0.102039
1.88802
-0.242112
-0.0910075
1.93164
-0.250522
-0.0753608
1.96273
-0.25072
-0.0590195
1.98246
-0.243901
-0.0439665
1.9922
-0.231227
-0.030827
1.99281
-0.214184
-0.0195179
1.98641
-0.194294
-0.0101088
1.9731
-0.173861
-0.00151177
1.9525
-0.152036
0.00710768
1.92413
-0.136249
0.0154678
-0.111583
0.034222
1.59995
-0.000824325
4.8413e-05
1.59961
-0.00241483
0.000105761
1.59867
-0.00366856
0.000157502
1.59735
-0.00474117
0.000240397
1.59666
-0.00659316
0.000148889
1.59714
-0.0105938
-0.000368413
1.59323
-0.0111861
0.00186177
1.5904
-0.00536387
0.00347671
1.59334
0.00579312
0.00516828
1.59767
0.0360099
0.00776469
1.63229
0.0132547
0.00589629
1.64237
-0.0379077
-0.00125892
1.64034
-0.0496911
-0.0122879
1.63409
-0.106923
-0.0214913
1.63655
-0.123926
-0.0279113
1.6552
-0.126731
-0.04062
1.6992
-0.139428
-0.0735557
1.76288
-0.162318
-0.0992968
1.82809
-0.187546
-0.102384
1.88345
-0.205352
-0.0920689
1.92539
-0.215635
-0.0768081
1.95406
-0.218518
-0.0608769
1.9707
-0.21459
-0.0459761
1.97665
-0.204553
-0.0326524
1.9733
-0.18978
-0.0210791
1.96204
-0.171952
-0.0111101
1.94329
-0.153247
-0.00191524
1.91721
-0.13361
0.00759742
1.88282
-0.118928
0.0170053
-0.0967057
0.0388257
1.59995
-0.000799987
4.9089e-05
1.59944
-0.00196852
8.55458e-05
1.5987
-0.00303003
0.000115445
1.59763
-0.00378279
0.000136601
1.59745
-0.00637814
-2.12577e-05
1.59487
-0.0080742
9.18518e-05
1.5921
-0.0096561
0.00127303
1.58992
-0.00447818
0.00131853
1.594
-1.89627e-05
0.00174422
1.60647
0.02144
0.00208237
1.62029
-0.00055284
-6.96513e-05
1.64141
-0.0532092
-0.00592865
1.62972
-0.0240024
-0.0141218
1.629
-0.0834522
-0.0228246
1.63403
-0.098757
-0.0302165
1.65222
-0.103028
-0.0418767
1.69476
-0.110432
-0.0714958
1.75874
-0.12695
-0.0993063
1.824
-0.148583
-0.104154
1.87873
-0.165383
-0.0946365
1.91928
-0.176342
-0.0798158
1.94593
-0.181026
-0.0641385
1.95993
-0.179396
-0.0492079
1.96261
-0.171787
-0.0354644
1.95543
-0.159424
-0.0231953
1.93988
-0.144057
-0.0123737
1.9168
-0.127771
-0.00244087
1.88581
-0.110722
0.00805015
1.84608
-0.0977399
0.0184821
-0.0787688
0.0430418
1.59993
-0.000750387
4.69411e-05
1.59946
-0.00154771
6.38222e-05
1.59867
-0.00228964
6.95425e-05
1.59759
-0.00273753
5.47996e-05
1.59642
-0.00506666
-0.000125528
1.59426
-0.00592589
3.56625e-05
1.59139
-0.00735518
0.000597844
1.59096
-0.00419588
0.00017419
1.59324
-0.00210824
-0.00018807
1.60378
0.0119488
-0.00108048
1.61255
-0.00589954
-0.00349044
1.61134
-0.0434679
-0.00864917
1.62173
-0.0187044
-0.0158087
1.62419
-0.0616512
-0.0243104
1.63151
-0.0736854
-0.0323822
1.65024
-0.0777582
-0.0440012
1.69184
-0.0811856
-0.0708268
1.7555
-0.0911887
-0.0993806
1.82061
-0.10811
-0.105513
1.87473
-0.12265
-0.0967832
1.91413
-0.133147
-0.0825441
1.93909
-0.138677
-0.0672951
1.95086
-0.138773
-0.0523981
1.9507
-0.13346
-0.038185
1.94014
-0.123783
-0.025095
1.92085
-0.111418
-0.0133678
1.89385
-0.0982479
-0.00256056
1.85869
-0.0844764
0.00886756
1.81465
-0.0739371
0.0201808
-0.0587584
0.0470645
1.59988
-0.000648336
4.28124e-05
1.59948
-0.00118
4.59418e-05
1.59868
-0.00149783
3.47381e-05
1.59772
-0.00175198
-7.72701e-06
1.59625
-0.00339207
-0.000184741
1.59444
-0.00393843
-0.000156893
1.59281
-0.00581005
0.000108453
1.59149
-0.00228505
-0.000569046
1.59323
-0.00258752
-0.00126234
1.60168
0.00634467
-0.00288332
1.60746
-0.00624246
-0.00551174
1.60465
-0.0305817
-0.0101975
1.61598
-0.0129012
-0.0172253
1.62052
-0.0407799
-0.0254436
1.62975
-0.0488627
-0.0340582
1.64929
-0.0516425
-0.0456568
1.69017
-0.0523215
-0.0697108
1.75324
-0.0563961
-0.0978101
1.81818
-0.0678853
-0.105094
1.87184
-0.0788959
-0.0973199
1.91032
-0.0876148
-0.0839562
1.9339
-0.0928448
-0.0693788
1.94382
-0.0939294
-0.0547577
1.94125
-0.0907273
-0.0401738
1.92779
-0.0840553
-0.0262792
1.90533
-0.0753017
-0.013669
1.87507
-0.0659844
-0.00204243
1.83647
-0.0561576
0.0102398
1.78901
-0.0488246
0.022291
-0.0378199
0.0509909
1.59988
-0.000548627
3.9346e-05
1.59944
-0.000760935
3.19421e-05
1.59877
-0.000814251
8.63071e-06
1.59782
-0.000743207
-4.92682e-05
1.59637
-0.0017414
-0.000186794
1.59507
-0.00230835
-0.000319387
1.59215
-0.00263207
-0.000245794
1.592
-0.00109263
-0.00104457
1.59343
-0.00210989
-0.00194272
1.60022
0.00329463
-0.00381342
1.60432
-0.00382532
-0.00664867
1.60072
-0.0158444
-0.0112977
1.61231
-0.00667869
-0.0179455
1.6181
-0.0203908
-0.0262269
1.62871
-0.0243317
-0.0351311
1.64905
-0.0255492
-0.0464409
1.68978
-0.025337
-0.0677107
1.75227
-0.0253601
-0.0934675
1.8173
-0.0310947
-0.101726
1.87072
-0.0372485
-0.0949626
1.90852
-0.0425534
-0.0827775
1.93094
-0.0459387
-0.0692925
1.93931
-0.0469509
-0.0553392
1.93475
-0.0455098
-0.0406642
1.91894
-0.0420857
-0.0261682
1.89393
-0.0374913
-0.012819
1.86112
-0.0326648
-0.000544829
1.81988
-0.0273604
0.0123997
1.77005
-0.0239092
0.0248582
-0.0172713
0.0550521
1.59943
3.71838e-05
1.59865
2.82716e-05
1.59785
-1.12539e-05
1.59719
-7.26782e-05
1.59564
-0.000186666
1.59375
-0.000412304
1.5916
-0.00047282
1.5918
-0.00129723
1.59197
-0.00230656
1.59945
-0.00423367
1.60281
-0.00725841
1.5988
-0.0119324
1.61054
-0.0184708
1.61698
-0.0268406
1.62835
-0.0356912
1.64935
-0.0465491
1.69031
-0.0662755
1.75433
-0.0893364
1.81995
-0.0966647
1.87314
-0.0903797
1.91013
-0.0795038
1.93138
-0.0671684
1.93835
-0.0539153
1.93221
-0.0393726
1.91469
-0.0245661
1.88789
-0.010701
1.85328
0.00192581
1.8104
0.0154957
1.75883
0.0276295
0.0598989
1.59982
0.000190113
6.70891e-05
1.60011
-0.000326965
0.000173958
1.6011
-0.00108806
0.000280938
1.60271
-0.0017585
0.00037539
1.60557
-0.00318684
0.000614737
1.60891
-0.00378833
0.000754294
1.61337
-0.00472262
0.000916629
1.62126
-0.00841241
0.000993975
1.63027
-0.00934935
0.000829651
1.64133
-0.0111016
0.000206949
1.6569
-0.014991
-0.000982994
1.66314
-0.00433932
-0.00334134
1.68475
-0.0194149
-0.00468507
1.70492
-0.0169037
-0.00670361
1.72437
-0.0158523
-0.00721024
1.74787
-0.0196124
-0.00684009
1.77666
-0.0257108
-0.00400791
1.81219
-0.0355822
0.00566241
1.87332
-0.047967
0.00163186
1.97059
-0.0559046
-0.0327678
2.08395
-0.050754
-0.0844204
2.18804
-0.0400083
-0.116425
2.27761
-0.0318007
-0.125081
2.35709
-0.0268744
-0.124495
2.43072
-0.0235915
-0.122399
2.49893
-0.0206857
-0.119482
2.56479
-0.0183628
-0.11897
2.62857
-0.0154593
-0.122414
2.69621
-0.014744
-0.129536
-0.00869311
-0.162961
1.60021
-1.10169e-05
6.90714e-05
1.60079
-0.000947499
0.000180031
1.60186
-0.00226104
0.000291338
1.60336
-0.00336494
0.000348625
1.60554
-0.00582995
0.00072556
1.60893
-0.00766477
0.000850461
1.61356
-0.00962503
0.00108321
1.62085
-0.0163269
0.00125917
1.63091
-0.0199283
0.00121301
1.64349
-0.0239938
0.000657102
1.65693
-0.0280168
-0.000627096
1.66362
-0.00869749
-0.00371555
1.68427
-0.0381938
-0.00458409
1.70533
-0.0345006
-0.00717641
1.72538
-0.0319692
-0.00781918
1.74975
-0.0401343
-0.00694205
1.77996
-0.0519452
-0.00428119
1.81573
-0.0683445
0.002549
1.87381
-0.0915576
-0.00320696
1.95965
-0.105926
-0.0311612
2.06
-0.0979559
-0.0736818
2.1562
-0.0799177
-0.101758
2.24216
-0.0653749
-0.110754
2.31991
-0.0559719
-0.111581
2.39085
-0.0489483
-0.109384
2.45709
-0.0432636
-0.107307
2.52061
-0.0384689
-0.106859
2.58251
-0.0331487
-0.109948
2.64677
-0.0307149
-0.117193
-0.0213331
-0.148244
1.60017
-0.000169773
7.28143e-05
1.60077
-0.00159729
0.000192452
1.60164
-0.0032354
0.00031473
1.60306
-0.00483462
0.000314178
1.60489
-0.00835157
0.000919901
1.60774
-0.0110783
0.00104115
1.61366
-0.0158678
0.00142313
1.61946
-0.022971
0.00181717
1.62951
-0.0308875
0.00204092
1.64262
-0.0379032
0.0016443
1.64986
-0.0352198
0.000166448
1.66452
-0.0208255
-0.00383371
1.68509
-0.0568799
-0.00513392
1.7037
-0.0489905
-0.00855486
1.72335
-0.0469243
-0.00936306
1.7481
-0.0606483
-0.00783406
1.78047
-0.0790406
-0.00526186
1.82295
-0.102636
-0.00366484
1.88416
-0.133068
-0.0141627
1.96143
-0.148247
-0.0402999
2.04681
-0.137979
-0.0710985
2.13137
-0.117334
-0.0899462
2.21085
-0.0998176
-0.0963819
2.28307
-0.0862406
-0.0963105
2.34958
-0.0762128
-0.0939359
2.41204
-0.0677384
-0.0923078
2.47177
-0.0604832
-0.0917536
2.52982
-0.0527734
-0.0944653
2.59013
-0.0487414
-0.101297
-0.0361938
-0.129849
1.6002
-0.00035868
7.81485e-05
1.60064
-0.00209314
0.00020964
1.60144
-0.00415579
0.000348962
1.60281
-0.00623183
0.000336299
1.60433
-0.0107577
0.00113264
1.60647
-0.0139498
0.00133774
1.61078
-0.0206663
0.00197447
1.61737
-0.0308193
0.00277535
1.62751
-0.042705
0.00353595
1.64244
-0.054175
0.00333872
1.65637
-0.0497397
0.00159197
1.66726
-0.0282935
-0.0048851
1.6844
-0.0725443
-0.00526843
1.70131
-0.0608137
-0.0107925
1.72004
-0.0596689
-0.0121259
1.74552
-0.0803807
-0.0105618
1.7814
-0.106338
-0.0097706
1.83019
-0.136782
-0.0139418
1.89192
-0.170077
-0.0281083
1.9608
-0.183197
-0.049056
2.03407
-0.172591
-0.068313
2.10788
-0.152393
-0.0786814
2.17902
-0.133709
-0.0818246
2.24447
-0.117514
-0.0798583
2.30537
-0.104789
-0.0774528
2.36257
-0.0937033
-0.07549
2.41714
-0.0840466
-0.074681
2.47
-0.0739743
-0.0769272
2.52485
-0.0683462
-0.0830277
-0.0528155
-0.108538
1.60019
-0.000544702
8.44354e-05
1.60053
-0.0024938
0.000230149
1.60125
-0.00501141
0.000392222
1.60291
-0.00793497
0.000400914
1.6009
-0.00859063
0.00015431
1.60498
-0.0204373
0.00299354
1.60859
-0.0250396
0.00279446
1.61398
-0.0380893
0.00429765
1.62515
-0.0566899
0.00612086
1.64463
-0.0760074
0.0065042
1.66387
-0.0711228
0.00444663
1.69308
-0.0534638
-0.00570092
1.68558
-0.0631798
-0.00700856
1.69794
-0.0660506
-0.0149073
1.71498
-0.0687243
-0.0164231
1.74195
-0.0987656
-0.0154757
1.78183
-0.132493
-0.0178341
1.83433
-0.168043
-0.026751
1.89345
-0.200795
-0.0403054
1.95513
-0.212352
-0.0543301
2.01914
-0.203352
-0.0643723
2.08433
-0.185674
-0.0684214
2.14555
-0.16562
-0.0673439
2.20345
-0.148577
-0.0641687
2.25759
-0.133784
-0.0608674
2.30837
-0.120395
-0.0582765
2.35665
-0.108453
-0.0570036
2.40322
-0.0960714
-0.0586084
2.45133
-0.0887852
-0.0637472
-0.0705076
-0.085548
1.60025
-0.000803189
9.14009e-05
1.60048
-0.0027793
0.000236508
1.60087
-0.00552226
0.000408306
1.60187
-0.00905025
0.000536544
1.60665
-0.0123768
-0.000567339
1.60316
-0.0214025
0.00449906
1.60576
-0.0290887
0.00395232
1.60977
-0.0443807
0.00659622
1.62083
-0.0721886
0.0105026
1.64566
-0.105252
0.0128007
1.68192
-0.11249
0.00968693
1.68734
-0.0538675
-0.00692625
1.70116
-0.0740626
-0.0105386
1.69347
-0.0476842
-0.0218365
1.70813
-0.0722086
-0.0230856
1.73809
-0.116198
-0.0231297
1.78126
-0.155982
-0.028888
1.83376
-0.193284
-0.0395487
1.88892
-0.224111
-0.0499213
1.94442
-0.235624
-0.0576809
2.00145
-0.230335
-0.0609799
2.05566
-0.213519
-0.0593802
2.10829
-0.195638
-0.0548041
2.15819
-0.178347
-0.0500617
2.20492
-0.162246
-0.045504
2.24863
-0.146963
-0.0420603
2.28995
-0.132895
-0.0401211
2.32954
-0.118278
-0.0408515
2.37009
-0.109254
-0.0447952
-0.0884575
-0.0622862
1.60008
-0.000892239
9.13967e-05
1.6006
-0.0033674
0.000232218
1.60093
-0.00573932
9.08157e-05
1.60145
-0.00958101
0.000448549
1.60311
-0.0139576
0.000757968
1.59939
-0.0211513
0.00354289
1.59788
-0.032323
0.00665837
1.60141
-0.0508879
0.010041
1.61671
-0.0943197
0.0179205
1.63618
-0.0345892
0.0240711
-0.0362389
-0.03347
-0.0286294
1.67585
-0.048164
0.0201729
-0.0379471
-0.0406219
-0.0380274
1.68343
-0.0137661
-0.00604215
-0.0159217
-0.01167
-0.0158027
1.68351
-0.00991614
-0.0169407
-0.020953
-0.0112792
-0.0261128
1.68313
-0.00531883
-0.0314579
-0.00744864
-0.00721663
-0.0118488
1.69986
-0.0716833
-0.0343457
1.73393
-0.131495
-0.0364426
1.77722
-0.172222
-0.0441164
1.82556
-0.206468
-0.0520071
1.87455
-0.234403
-0.0586977
1.92382
-0.248677
-0.0609843
1.97024
-0.246577
-0.0583549
2.01677
-0.236571
-0.0521345
2.06187
-0.222338
-0.0450114
2.10474
-0.206321
-0.038204
2.14478
-0.189729
-0.0322984
2.18191
-0.172893
-0.0278693
2.21653
-0.156782
-0.0250905
2.24916
-0.139926
-0.0247255
2.28198
-0.129085
-0.0272576
-0.105852
-0.0399316
1.60009
-0.000996118
8.69524e-05
1.60021
-0.00343418
4.96864e-05
1.60039
-0.00662574
0.000390128
1.60014
-0.00998566
0.000643864
1.60126
-0.0132757
0.000107559
1.59895
-0.0215605
0.00400412
1.59199
-0.0328488
0.00940412
1.59243
-0.0556985
0.014749
0.398424
-0.0222475
0.0320334
0.396111
0.399518
0.397069
-0.0313001
-0.022312
-0.0298031
-0.00665088
0.402076
-0.0408951
0.00932438
-0.0048421
0.417344
-0.0572595
0.0076401
-0.410981
0.000790233
-0.423849
0.428664
-0.0187415
-0.000675429
0.00292157
-0.428308
0.428052
-0.00851136
-0.00403643
0.00445211
-0.425809
0.422056
0.00138362
-0.00736279
1.69196
-0.0417339
-0.0607792
-0.419588
-0.418654
-0.419671
-0.418569
1.72433
-0.113747
-0.0601957
1.7567
-0.151508
-0.062955
1.79297
-0.186914
-0.0669603
1.83105
-0.218822
-0.0677513
1.87224
-0.243422
-0.0649043
1.91718
-0.256211
-0.0574071
1.96235
-0.256784
-0.0479045
2.00534
-0.24812
-0.0381404
2.04481
-0.233754
-0.0293696
2.08031
-0.216467
-0.0221145
2.11203
-0.197753
-0.0166071
2.14045
-0.179291
-0.0128231
2.16622
-0.159997
-0.0111366
2.19111
-0.147263
-0.0120014
-0.121572
-0.0194831
1.60001
-0.00102885
9.21333e-05
1.60019
-0.00351185
5.35834e-06
1.59946
-0.00638742
3.65029e-06
1.59684
-0.0100333
0.00193965
1.59903
-0.0140138
0.000309622
1.59568
-0.0192735
0.00413983
1.58643
-0.0293856
0.00958595
0.393528
-0.047875
0.0222019
0.391567
0.394014
0.391192
-0.00573586
0.391149
-0.0220088
0.00786902
0.391303
-0.0554893
0.0192934
-0.0137549
0.0481498
-0.389579
0.0140589
-0.00876874
-0.410939
0.068178
0.106225
0.105174
0.105654
0.105474
-0.0174431
-0.0238308
-0.0193669
-0.0242206
0.00161174
-0.107661
0.00667755
0.110164
-0.00854859
-0.00223774
-0.10918
0.000369519
0.00215222
0.108825
-0.00211799
-4.41246e-05
-0.107701
-0.000603982
-0.00206136
0.00333593
-0.000173456
0.107216
1.64123
0.0630268
-0.108549
-0.415525
-0.400816
-0.415562
-0.413364
1.63959
-0.0353343
-0.0904557
1.64992
-0.0997972
-0.0816803
1.68047
-0.160176
-0.0796599
1.73265
-0.215685
-0.0772495
1.79775
-0.258134
-0.0728235
1.86224
-0.281511
-0.0632381
1.91767
-0.285807
-0.050471
1.96262
-0.276838
-0.03755
1.99891
-0.260451
-0.0262713
2.02855
-0.240514
-0.0170695
2.05299
-0.218975
-0.0099093
2.07333
-0.197754
-0.00458145
2.09051
-0.175964
-0.00108839
2.10574
-0.161296
0.000277993
-0.133668
-0.00173623
1.59995
-0.0010061
0.000101432
1.59986
-0.00345305
0.000195381
1.60018
-0.00616973
-0.000540583
1.59821
-0.00933068
0.00059807
1.59682
-0.0131413
0.00138705
1.59446
-0.0179414
0.00478147
1.58533
-0.023868
0.00885319
0.389983
-0.031709
0.0273583
0.389133
0.38894
0.389654
0.38074
-0.0151563
0.0117134
-0.00820311
0.0208804
-0.0060893
0.0137592
-0.0925869
0.09095
-0.0135987
0.00752694
-0.00222011
0.00849387
-0.0263392
0.0272891
-0.00949332
0.0022694
0.00148548
0.00095716
-0.00731559
0.00815192
-0.00147385
-0.00034819
-0.000611829
-0.000397293
-0.000448588
-1.69132e-05
-0.000766976
-0.00650067
0.00647592
0.000156648
0.000172006
0.000138479
0.000202581
0.000139689
-0.0065236
0.0011095
-0.00129514
0.00148794
-0.00116939
0.00639068
1.06785
-0.134443
-0.0255408
-0.285977
-0.172721
-0.280128
-0.137332
1.22557
-0.18024
-0.0556962
1.3829
-0.220248
-0.0833443
1.54004
-0.260463
-0.101844
1.6808
-0.293738
-0.105347
1.79229
-0.314509
-0.0977019
1.87046
-0.320473
-0.081641
1.92166
-0.313431
-0.0625069
1.95563
-0.298177
-0.0446194
1.97942