/*--------------------------------*- C++ -*----------------------------------*\
| =========                 |                                                 |
| \\      /  F ield         | OpenFOAM: The Open Source CFD Toolbox           |
|  \\    /   O peration     | Version:  2512                                  |
|   \\  /    A nd           | Website:  www.openfoam.com                      |
|    \\/     M anipulation  |                                                 |
\*---------------------------------------------------------------------------*/
FoamFile
{
    version     2.0;
    format      ascii;
    arch        "LSB;label=32;scalar=64";
    class       surfaceScalarField;
    location    "180";
    object      phi;
}
// * * * * * * * * * * * * * * * * * * * * * * * * * * * * * * * * * * * * * //

dimensions      [0 3 -1 0 0 0 0];

oriented        oriented;

internalField   nonuniform List<scalar> 
260615
(
1.59994
-5.27016e-05
0.000123541
1.59986
-0.000159359
0.00025643
1.59976
-0.000311991
0.000415703
1.59972
-0.000557679
0.00061683
1.59982
-0.000959878
0.000872807
1.60021
-0.00155297
0.00117535
1.60071
-0.00199084
0.00150609
1.60354
-0.00473265
0.00192236
1.60681
-0.0059419
0.00269599
1.61157
-0.00797643
0.00323724
1.61752
-0.00953649
0.00360825
1.61544
-0.0014827
0.00357586
1.62655
-0.0143189
0.00323287
1.62702
-0.002926
0.00247283
1.62543
-7.93455e-05
0.00166162
1.62302
0.00139658
0.00102169
1.61989
0.00222577
0.000899307
1.61873
0.000479407
0.000684196
1.61746
0.000669081
0.000586873
1.61645
0.000454935
0.000543555
1.61571
0.000200384
0.000519284
1.61522
1.00259e-05
0.00047363
1.61486
-7.39609e-05
0.000422749
1.61457
-8.38844e-05
0.00036722
1.61431
-5.57022e-05
0.00030739
1.61407
-4.44857e-06
0.000245086
1.61384
5.97521e-05
0.00016948
1.61361
0.000119255
0.00010906
1.61338
0.000183665
3.88128e-05
0.000266388
3.70552e-07
1.59993
-9.98308e-05
0.000127027
1.59983
-0.000302964
0.000262493
1.5997
-0.000595599
0.000425764
1.59959
-0.00107055
0.000634059
1.59959
-0.00185619
0.000903251
1.59991
-0.00308197
0.00123254
1.60089
-0.00455913
0.0016079
1.60292
-0.00879418
0.00205335
1.60617
-0.0121294
0.00295585
1.61119
-0.0165892
0.00362031
1.61781
-0.0202532
0.00411479
1.6164
-0.00420731
0.00416215
1.62765
-0.0292684
0.00370995
1.62788
-0.00603342
0.00289309
1.62591
-7.00372e-05
0.00195067
1.62312
0.00297031
0.00121752
1.6205
0.00371682
0.00112847
1.61866
0.001394
0.000918835
1.61732
0.00113246
0.000854537
1.61632
0.000616223
0.00082985
1.61561
6.85893e-05
0.000824399
1.61513
-0.000332386
0.000805308
1.6148
-0.000512863
0.000770505
1.61452
-0.000545922
0.00073042
1.61428
-0.000499267
0.000686152
1.61405
-0.000399403
0.000624918
1.61382
-0.000271627
0.000558457
1.61359
-0.000148031
0.000500488
1.61338
-4.70786e-05
0.000435536
2.69914e-07
0.000389353
1.59992
-0.000138061
0.000132289
1.59977
-0.00041833
0.000273153
1.59957
-0.000826543
0.000441955
1.59935
-0.00149828
0.000665634
1.59917
-0.00262837
0.000966159
1.5992
-0.0044549
0.00135863
1.59973
-0.00693606
0.00186298
1.60157
-0.0129342
0.00232671
1.60475
-0.0188048
0.00352555
1.61027
-0.0265516
0.00446975
1.61843
-0.0336345
0.00524642
1.6184
-0.0096169
0.00546933
1.62998
-0.0456063
0.00478412
1.62972
-0.00963203
0.00385857
1.6269
0.000130027
0.00260449
1.62329
0.0049293
0.00164188
1.62024
0.00511634
0.00164817
1.61846
0.00175275
0.00140194
1.61712
0.00102297
0.00141951
1.61616
0.000158047
0.00139471
1.61554
-0.000702891
0.00137436
1.61514
-0.00127119
0.00132297
1.61486
-0.00147885
0.00123848
1.61464
-0.00146133
0.00113411
1.61444
-0.00131409
0.00101809
1.61424
-0.00107136
0.00087038
1.61404
-0.000775968
0.000711271
1.61383
-0.000494369
0.00055804
1.61358
-0.000205529
0.000402349
0.000122768
0.000241922
1.5999
-0.000163312
0.00013524
1.5997
-0.000492826
0.000286614
1.5994
-0.000979992
0.000467316
1.599
-0.00179708
0.000709955
1.59854
-0.0032043
0.00105512
1.59813
-0.00556243
0.00153116
1.59806
-0.00903581
0.00218948
1.59931
-0.0169983
0.00284012
1.6022
-0.0261188
0.00445671
1.60847
-0.0386967
0.00591421
1.6195
-0.0517969
0.00717912
1.62209
-0.0195387
0.00738181
1.63368
-0.0642122
0.00705801
1.63277
-0.014421
0.00570501
1.62838
0.000650594
0.00386674
1.62337
0.00745156
0.00249504
1.61989
0.00598128
0.00260363
1.61806
0.0011159
0.00244733
1.61669
-0.000172236
0.00254018
1.61579
-0.00153832
0.00257266
1.61526
-0.00282461
0.00263114
1.61493
-0.00357931
0.00262916
1.61468
-0.00381019
0.00258084
1.61446
-0.0037515
0.00251062
1.61425
-0.00352872
0.00242755
1.61404
-0.00318213
0.0023309
1.61382
-0.00277833
0.00222514
1.61357
-0.00236829
0.0021268
1.6134
-0.00206298
0.00202565
-0.00185097
0.00192542
1.59988
-0.000172474
0.000141684
1.59962
-0.000516378
0.000296013
1.59919
-0.00103481
0.000497265
1.59856
-0.00192577
0.000767442
1.59772
-0.00350589
0.00116338
1.59668
-0.00626522
0.00175605
1.59566
-0.0106068
0.00261605
1.59584
-0.0207404
0.00359497
1.59788
-0.0339751
0.00584754
1.6051
-0.0540038
0.00813809
1.62148
-0.078261
0.0101555
1.6483
-0.0571829
0.010889
1.63894
-0.0656187
0.0108207
1.63758
-0.0219981
0.00897642
1.63031
0.00186714
0.00605387
1.62318
0.0104364
0.00418497
1.61936
0.005106
0.00472769
1.61751
-0.00181342
0.00477876
1.61618
-0.00366213
0.00480281
1.61552
-0.00562018
0.00471405
1.61529
-0.00728229
0.0046773
1.6152
-0.00801095
0.00451289
1.61513
-0.00797032
0.00422616
1.61504
-0.00753185
0.00387166
1.61491
-0.00687621
0.00348082
1.61474
-0.00608094
0.0030806
1.61452
-0.00525322
0.0026979
1.61427
-0.00445651
0.00234357
1.61392
-0.00373335
0.00201737
-0.00319747
0.00172837
1.59986
-0.000163821
0.000148364
1.59953
-0.000483108
0.00030951
1.59895
-0.000976293
0.00052645
1.59806
-0.00185001
0.000830449
1.59674
-0.00345441
0.0012863
1.59487
-0.00639279
0.00201132
1.59266
-0.0115136
0.00313892
1.59072
-0.0233924
0.00462445
1.59068
-0.0416669
0.00777967
1.59882
-0.0733983
0.01131
1.625
-0.118957
0.0146232
1.64394
-0.0930256
0.0170301
1.64581
-0.0852329
0.0178671
1.6446
-0.0363983
0.0156805
1.63166
0.00415739
0.010713
1.62207
0.0123632
0.00773381
1.6182
1.57372e-05
0.009028
1.61584
-0.00915303
0.00972478
1.61449
-0.0123621
0.0100648
1.61412
-0.0155156
0.0102554
1.61423
-0.0178875
0.0104819
1.61446
-0.018747
0.0105064
1.61467
-0.018497
0.0103173
1.61482
-0.0176532
0.00997706
1.61487
-0.0164735
0.00955491
1.61482
-0.0150905
0.0090663
1.6147
-0.0136978
0.00856859
1.61445
-0.0122891
0.0080759
1.6142
-0.011103
0.00761048
-0.0101422
0.00710564
1.59984
-0.000137331
0.000151878
1.59943
-0.000392469
0.000325472
1.59871
-0.000800637
0.000555336
1.59754
-0.00155136
0.000889932
1.59567
-0.00298903
0.00141536
1.59282
-0.00579773
0.00227645
1.58892
-0.0113139
0.00372597
1.58136
-0.0218907
0.00608548
1.57895
-0.049288
0.0100726
1.58747
-0.0973214
0.0154844
1.62928
-0.0362476
0.0206486
-0.0445873
-0.045186
-0.0552806
1.65818
-0.0370068
0.0284479
-0.0311695
-0.0422085
-0.0398578
1.65568
-0.0211957
0.0338125
-0.0259388
-0.0299843
-0.0393539
1.65553
-0.0169211
0.0324454
-0.00558532
-0.0272644
-0.0188992
1.63023
0.00274628
0.0267613
1.6193
0.000556752
0.0228322
1.61964
-0.0238554
0.0236258
1.61889
-0.0329447
0.0245887
1.61922
-0.0378733
0.0252138
1.61978
-0.0420011
0.0259429
1.61973
-0.044324
0.0264841
1.61893
-0.0444564
0.0265045
1.6176
-0.0431742
0.0260129
1.61596
-0.0412503
0.025236
1.6142
-0.038994
0.0242817
1.61249
-0.0365817
0.0232092
1.61082
-0.0341215
0.0220888
1.60932
-0.0318245
0.0210318
1.60763
-0.0293439
0.0199239
-0.028019
0.0190141
1.59982
-9.50097e-05
0.000154906
1.59935
-0.000250737
0.000339532
1.5985
-0.000518194
0.000580317
1.59706
-0.00104105
0.000943573
1.59465
-0.00209941
0.00153274
1.59061
-0.00426594
0.00252367
1.58401
-0.00899943
0.00431045
1.57378
-0.0192829
0.00765201
1.56035
-0.0482845
0.0124591
0.392674
-0.114368
0.0201816
0.389329
0.389349
0.385941
0.397204
-0.0418136
0.00108618
-0.407447
0.420644
-0.0536412
0.00348583
-0.42352
0.423767
-0.0285982
0.00719161
-0.419937
0.423781
-0.0253529
0.00460901
1.64655
-0.0295149
0.0851752
-0.421243
-0.427923
-0.420348
-0.429942
1.61741
-0.0517485
0.0815332
1.58454
-0.0750873
0.0841864
1.55191
-0.0842138
0.0839633
1.52121
-0.089082
0.0819541
1.49279
-0.0931553
0.0796113
1.46728
-0.0952155
0.0764093
1.44576
-0.0948587
0.0719338
1.42867
-0.0927897
0.0666993
1.41592
-0.089996
0.0614967
1.40699
-0.0867008
0.0566369
1.40131
-0.0831535
0.0522461
1.39781
-0.0790505
0.0484207
1.39638
-0.0754794
0.045069
1.39472
-0.069806
0.0421123
-0.0662521
0.0398379
1.5998
-4.08875e-05
0.000157088
1.59928
-7.12359e-05
0.000350531
1.59834
-0.000154621
0.000598247
1.59669
-0.000366686
0.000985811
1.59384
-0.000860058
0.00162433
1.58881
-0.00194975
0.00272479
1.57958
-0.00455732
0.0048122
1.56235
-0.0109069
0.00887431
1.52915
-0.02972
0.0146773
0.379254
-0.0958095
0.0198664
0.373708
0.37293
0.364904
0.386719
-0.0536182
-0.00100773
0.0472299
0.42506
-0.410847
0.0693976
-0.0221566
-0.0218253
-0.0273249
-0.0182332
0.00391222
-0.000260909
0.00328313
-0.00090359
-0.423079
0.422846
0.0412837
-0.0190351
-0.0174972
-0.0220316
-0.0131779
0.00963359
0.00577897
0.00608598
0.00932
-0.428323
0.441993
0.0432707
-0.0155831
-0.0261182
-0.0192606
-0.0137903
0.00291448
0.00418383
0.00732885
0.00330861
1.03123
-0.147142
0.175169
-0.389466
-0.302949
-0.325658
-0.0708208
0.936943
-0.0680426
0.110724
0.868384
-0.096634
0.0902062
0.833905
-0.114887
0.0652038
0.824779
-0.123076
0.0431613
0.830954
-0.125627
0.0263291
0.846141
-0.123462
0.013077
0.868148
-0.118551
0.00168974
0.895129
-0.112037
-0.0077331
0.924053
-0.104503
-0.0144182
0.952754
-0.0965698
-0.0188334
0.979957
-0.08888
-0.0214814
1.00524
-0.0813406
-0.0229921
1.02792
-0.0750341
-0.0231364
1.0503
-0.0675126
-0.0246655
-0.0598672
-0.0217395
1.59978
1.9361e-05
0.000173137
1.59923
0.000126846
0.000369338
1.59821
0.000249578
0.00062489
1.59644
0.000393271
0.00102261
1.59334
0.000568324
0.00168565
1.58776
0.000791666
0.00285189
1.577
0.00109809
0.00512459
1.55485
0.00154119
0.00972382
1.50694
0.00218478
0.0160351
0.35441
0.00327083
0.0127153
0.350217
0.345135
0.345443
-0.0298499
-0.0158343
0.0484235
0.0852467
0.090587
0.0865318
0.0893581
0.0262869
-0.101918
0.10696
-0.0235509
-0.00253385
-0.00216335
-0.0017236
-0.00134919
-0.106031
0.0360028
0.107591
-0.0132127
-0.0113108
-0.0142308
-0.0126642
0.0040546
0.0026747
0.00439809
0.0026572
-0.0863967
-0.00548872
0.0222573
-0.016215
0.0859217
0.0235789
0.000422688
-0.323142
-0.0697142
0.0331766
0.101237
0.087467
0.315927
-0.00833353
-0.351602
0.513629
-0.0185739
-0.275563
0.657594
-0.0245774
-0.234204
0.767177
-0.0265133
-0.206094
0.851449
-0.0263035
-0.183543
0.918531
-0.0245423
-0.165963
0.973995
-0.021721
-0.152269
1.02074
-0.0180797
-0.140687
1.06052
-0.0139325
-0.130338
1.09462
-0.00960342
-0.121058
1.1238
-0.00530333
-0.112745
1.14911
-0.000991288
-0.105647
1.17056
0.00243513
-0.0989062
1.19154
0.00701368
-0.0954919
0.00792626
-0.0871629
1.59977
7.89703e-05
0.000188007
1.5992
0.000321348
0.000383452
1.59818
0.000646414
0.000635032
1.59641
0.00113961
0.00103535
1.59332
0.00197699
0.00169613
1.58783
0.00352187
0.00276993
1.57712
0.00672768
0.00509852
1.55506
0.0139412
0.00968134
1.50729
0.0340083
0.015973
0.350335
0.102157
0.0128173
0.354431
0.345634
0.345222
-0.000953911
0.0318874
-0.021836
0.0830955
0.0875256
0.0829113
0.0877415
0.000320742
-0.0991782
0.0922454
0.0093125
-0.000373103
-0.000968162
-0.000306523
-0.001063
-0.00316015
-0.0357134
0.0342256
-0.00579849
0.00989765
0.0839583
-0.0204459
-0.241758
0.0363253
0.0725405
0.10981
-0.0396581
0.358076
-0.0102313
-0.271807
0.535538
0.0131069
-0.208962
0.658328
0.0236999
-0.171013
0.74902
0.0279681
-0.145139
0.817152
0.0304303
-0.124823
0.871122
0.0318245
-0.110298
0.917325
0.0327989
-0.100692
0.959118
0.0342772
-0.0941261
0.998446
0.0365164
-0.0897547
1.03649
0.0394485
-0.0870784
1.07358
0.0432836
-0.085645
1.10975
0.048206
-0.0853482
1.14336
0.0537819
-0.0849257
1.17902
0.0582542
-0.0868884
0.0645304
-0.0853756
1.59977
0.0001316
0.000186752
1.59927
0.000491579
0.000345262
1.59835
0.000990956
0.000593449
1.59671
0.00178249
0.00100207
1.5939
0.00316947
0.00163178
1.58905
0.00575707
0.00263185
1.57997
0.0110517
0.00476815
1.56302
0.0221086
0.00879237
1.53026
0.0522224
0.0145593
0.374002
0.119985
0.0200153
0.379597
0.365364
0.373467
-0.050396
0.0555758
-0.00449451
0.093961
0.0913104
0.0927786
0.095278
-0.0274486
-0.101913
0.107776
-0.00423208
0.0258263
-0.00930836
-0.101445
0.10564
0.00718165
0.0387455
-0.0105299
-0.01392
-0.0162841
-0.0349596
-0.0731993
0.0224111
0.0583901
0.0271927
1.47834
-0.0778632
0.0894823
-0.301287
-0.419316
-0.367409
-0.422325
1.47031
-0.0712422
0.0691517
1.46625
-0.0477616
0.0649886
1.45657
-0.0295351
0.0629176
1.43796
-0.0148324
0.0614094
1.40908
-0.00104629
0.0603773
1.3719
0.0105351
0.0584906
1.33054
0.019619
0.0545529
1.28769
0.0270525
0.0500995
1.24578
0.0331968
0.0452405
1.20612
0.0385831
0.0405468
1.17051
0.0435545
0.0353606
1.14209
0.047965
0.0286918
1.1223
0.0530888
0.020518
1.11601
0.0529828
0.0115869
0.0649322
-0.00430903
1.5998
0.000171761
0.000172395
1.59937
0.000617187
0.000318289
1.59858
0.0012408
0.000555945
1.59719
0.00224021
0.00094403
1.59487
0.00397769
0.00151884
1.59098
0.00716261
0.00249225
1.58463
0.0131615
0.00425713
1.57482
0.0243771
0.00754389
1.56213
0.0526171
0.0122966
0.389928
0.101728
0.0200736
0.393323
0.386793
0.390271
-0.0490591
0.394076
0.0435184
0.0013872
-0.0758329
-0.409498
0.42186
0.058379
0.00513421
-0.0771425
-0.423697
0.43261
0.0437046
0.0243577
-0.0289061
-0.438409
0.433815
0.010783
0.0224818
1.6428
-0.0647653
0.0375552
-0.424854
-0.421725
-0.425947
-0.420922
1.61878
-0.0714648
0.0243065
1.60589
-0.0551336
0.020288
1.60107
-0.0451348
0.0204041
1.6005
-0.0358878
0.021618
1.60125
-0.0261551
0.0243643
1.6003
-0.0168822
0.0283824
1.59539
-0.00840504
0.0329472
1.58483
-0.000561961
0.0381849
1.56805
0.00676901
0.0432193
1.5446
0.013609
0.0484363
1.51556
0.0197144
0.0528911
1.48215
0.0248618
0.0565348
1.44729
0.0295318
0.0584326
1.40716
0.032789
0.0603436
0.0364119
0.0551212
1.59984
0.000195164
0.000154333
1.59946
0.000686337
0.000321184
1.5988
0.00137324
0.000537296
1.5977
0.0024684
0.000880299
1.59597
0.00433533
0.00138977
1.59331
0.0075966
0.00223259
1.58972
0.0131154
0.00364857
1.58264
0.0255067
0.00594707
1.58108
0.0443438
0.00983758
1.59079
0.0767962
0.0152007
1.63609
0.123365
0.020669
-0.0375701
-0.0469813
-0.0468427
-0.058007
1.67393
0.0989777
0.0303298
-0.0402409
-0.0365605
-0.0453952
-0.0451178
1.68044
0.082899
0.0368743
-0.0271883
-0.0272902
-0.0343628
-0.0377478
1.66257
-0.00227746
0.0220078
-0.0040259
0.0100741
-0.0100385
0.00194115
1.63753
-0.0473372
0.00758613
1.62108
-0.0540067
-0.000994979
1.61497
-0.0446946
-0.00432696
1.60999
-0.0344297
-0.00574679
1.60788
-0.0277417
-0.00604563
1.60699
-0.0202045
-0.00507191
1.60657
-0.0131191
-0.00333717
1.60691
-0.00742445
-0.00131466
1.6082
-0.00287039
0.00102032
1.61001
0.00109102
0.00387449
1.61146
0.00467755
0.00748206
1.61203
0.00794838
0.0112045
1.61064
0.0108713
0.0153842
1.60761
0.0132779
0.0193028
1.60047
0.0161191
0.0238188
0.0172925
0.0274866
1.59986
0.000200203
0.000147595
1.59956
0.000693531
0.000304204
1.59905
0.00137942
0.00051245
1.59826
0.00246
0.000814232
1.59709
0.00426169
0.0012537
1.59545
0.00728575
0.00195693
1.59359
0.0119399
0.00304689
1.59218
0.0224474
0.00446678
1.59297
0.0360411
0.00751049
1.60245
0.0564023
0.0108953
1.63116
0.0806165
0.0139973
1.65502
0.058548
0.0164906
1.66097
0.060261
0.0165882
1.65151
-0.00176978
0.00885495
1.63516
-0.0313898
0.000372211
1.62348
-0.0386036
-0.00373547
1.61662
-0.033914
-0.00393665
1.61227
-0.0263359
-0.00375638
1.60987
-0.0224043
-0.00295839
1.60888
-0.0175216
-0.00170313
1.60854
-0.0126181
-0.00015848
1.60845
-0.00860091
0.00125696
1.60859
-0.00541988
0.00240764
1.60897
-0.00271
0.00341509
1.60957
-0.000300746
0.00437798
1.61047
0.00185768
0.00519035
1.61152
0.00376448
0.00605715
1.61268
0.00534733
0.00677115
1.61435
0.00689134
0.00756496
0.00816514
0.00855812
1.59989
0.000186946
0.000140814
1.59966
0.000640136
0.000289882
1.5993
0.00126498
0.000484603
1.59879
0.00223652
0.000745332
1.59812
0.0038214
0.00112651
1.59733
0.00638615
0.00169541
1.59667
0.0100932
0.00251549
1.59737
0.0183146
0.00342647
1.6002
0.0276428
0.00556659
1.60861
0.0403014
0.00767748
1.62681
0.0529881
0.0094026
1.65642
0.0191767
0.00970847
1.64879
0.0592106
0.008612
1.64339
-0.000528231
0.00410051
1.63297
-0.0202214
-0.000783411
1.62425
-0.0265639
-0.00333419
1.61859
-0.0248143
-0.0034509
1.61521
-0.0192584
-0.00371516
1.61292
-0.016521
-0.00360856
1.6117
-0.0130447
-0.00327031
1.61112
-0.00938545
-0.00265276
1.61081
-0.00629867
-0.00200243
1.61065
-0.00391112
-0.00135649
1.61058
-0.00199276
-0.000654375
1.61056
-0.000383455
9.5587e-05
1.61059
0.000975846
0.000846605
1.61065
0.00210139
0.00159593
1.61074
0.00300314
0.00226234
1.6109
0.00381997
0.00290395
0.00468124
0.00364337
1.59991
0.000157121
0.000134296
1.59975
0.000532658
0.000279889
1.59952
0.00104619
0.000453345
1.59925
0.00183503
0.000685701
1.59897
0.00309794
0.00101504
1.59882
0.00507537
0.00146602
1.59912
0.00772048
0.00208352
1.60088
0.0138869
0.00266677
1.60448
0.0198641
0.00417607
1.61174
0.0275729
0.00545764
1.62409
0.0341886
0.00643204
1.62825
0.0088166
0.00617981
1.64064
0.041761
0.00501795
1.63759
0.00029801
0.00219021
1.6308
-0.0126403
-0.00081215
1.6243
-0.0175108
-0.00256714
1.61943
-0.0173174
-0.00263657
1.61632
-0.0133425
-0.00281668
1.61398
-0.0116302
-0.00257252
1.61247
-0.00938121
-0.00216313
1.6116
-0.00696876
-0.00155704
1.61111
-0.00489482
-0.000927356
1.61085
-0.00331597
-0.000337574
1.61073
-0.00208039
0.000200867
1.6107
-0.00105054
0.000688373
1.61073
-0.000177156
0.00111293
1.61078
0.000549554
0.00149431
1.61085
0.00115265
0.00178654
1.61096
0.00164528
0.00206319
0.00215159
0.00233963
1.59992
0.000113861
0.000131303
1.59982
0.000381857
0.000265966
1.5997
0.000745647
0.000427008
1.59961
0.0012991
0.000639824
1.59962
0.00217276
0.000923852
1.59992
0.00349667
0.00129064
1.60081
0.0050769
0.00175418
1.60314
0.00941092
0.00215213
1.60696
0.0127935
0.00324939
1.61331
0.0171858
0.0040318
1.62246
0.020485
0.00455004
1.62338
0.00350169
0.00438297
1.6353
0.0267378
0.00307744
1.63375
0.000560821
0.00127261
1.62913
-0.0073271
-0.000707581
1.62414
-0.0105863
-0.00194827
1.61989
-0.0110565
-0.00201092
1.61702
-0.00828706
-0.00219962
1.61482
-0.00741438
-0.00203134
1.61329
-0.0060775
-0.00178074
1.61234
-0.00460185
-0.00143193
1.61179
-0.00328443
-0.00107323
1.61148
-0.00226012
-0.000747719
1.6113
-0.00145655
-0.000452002
1.6112
-0.00078898
-0.000171864
1.61117
-0.000227405
7.7599e-05
1.61116
0.000234314
0.000318355
1.61118
0.000607579
0.000527477
1.61117
0.000923306
0.000723444
0.00125404
0.00093443
1.59994
6.15014e-05
0.000126088
1.59987
0.000201113
0.000255028
1.59983
0.000389551
0.000410221
1.59986
0.000674472
0.000607268
1.60006
0.00112026
0.000859506
1.60064
0.00176126
0.00116271
1.60197
0.00224796
0.00149722
1.60447
0.00503481
0.00187847
1.60832
0.0062592
0.00268397
1.61406
0.00824753
0.00319844
1.62146
0.00961135
0.00346414
1.62069
0.00108522
0.00317985
1.63208
0.0130693
0.00225433
1.6314
0.00038112
0.000844186
1.62802
-0.00336088
-0.000596479
1.62396
-0.00498159
-0.00156072
1.62025
-0.00566483
-0.00169865
1.61747
-0.00367796
-0.0018351
1.61536
-0.00356248
-0.00176702
1.61381
-0.00295064
-0.00158983
1.61277
-0.00224038
-0.00133517
1.61212
-0.00159051
-0.0010593
1.61172
-0.00107965
-0.000788498
1.61146
-0.000684077
-0.000524826
1.6113
-0.00036324
-0.000272099
1.61122
-0.000101036
-4.5091e-05
1.61118
0.000107864
0.000161439
1.61117
0.00027212
0.000347733
1.61119
0.000397094
0.000504707
0.000473435
0.000663664
1.59995
0.000122726
1.59991
0.000248911
1.5999
0.000399969
1.59999
0.00058968
1.60029
0.000828476
1.60095
0.00110471
1.6018
0.00139468
1.60509
0.00174725
1.60892
0.00242611
1.61435
0.00282309
1.62097
0.00297991
1.61941
0.00264683
1.63057
0.00189912
1.63027
0.000668095
1.62744
-0.000536158
1.62382
-0.00136571
1.61965
-0.00150927
1.61759
-0.00162306
1.61558
-0.00156461
1.61402
-0.00139632
1.61293
-0.00115946
1.61224
-0.000910294
1.61182
-0.000656605
1.61154
-0.000416823
1.61138
-0.000200479
1.61128
-9.81592e-06
1.61124
0.000142997
1.61124
0.000279299
1.61125
0.00038832
0.000496981
1.60006
-5.11478e-05
0.000124969
1.60009
-0.00015557
0.000389891
1.60012
-0.000304628
0.000700032
1.6002
-0.000544204
0.00109094
1.60043
-0.000935686
0.00159274
1.60086
-0.00132368
0.00208297
1.60122
-0.000902726
0.00206751
1.60112
-0.00296145
0.00500274
1.60438
-0.00602473
0.00547996
1.60937
-0.00799312
0.00625909
1.61218
-0.00604234
0.00685558
1.61198
-0.00272673
0.0065296
1.6212
-0.0124461
0.00647139
1.62484
-0.00589805
0.00475375
1.62309
0.000253905
0.00314924
1.6208
0.00161313
0.00170622
1.62077
0.000473626
0.00045638
1.61982
-0.000592129
0.00221414
1.61864
0.000483812
0.0012739
1.61765
0.000494863
0.00102423
1.61692
0.00027869
0.000956048
1.61636
0.000123095
0.000901961
1.61589
6.29635e-05
0.000822943
1.61547
6.78465e-05
0.000711851
1.61504
0.000106591
0.000629031
1.61457
0.000163003
0.000551001
1.6142
0.000228074
0.000308417
1.61386
0.00028327
0.000167829
1.61351
0.000341317
3.38958e-05
0.000386238
-2.7402e-05
1.60005
-9.79643e-05
0.000126956
1.60007
-0.00029695
0.000396973
1.60007
-0.000583104
0.000715133
1.6001
-0.00104667
0.00112027
1.60024
-0.00181175
0.00164802
1.60091
-0.00294815
0.00220252
1.60311
-0.00380438
0.002332
1.60307
-0.00622476
0.00537259
1.6059
-0.0117338
0.00585936
1.61041
-0.0158449
0.00698782
1.61249
-0.0117637
0.00777963
1.61338
-0.00662616
0.00718413
1.62226
-0.0254052
0.00780744
1.62704
-0.0132828
0.00551205
1.62565
-6.80835e-05
0.00365859
1.62342
0.00287964
0.00217699
1.62303
0.00124579
0.000744231
1.62004
0.000762666
0.00254629
1.61849
0.00116854
0.00171063
1.61751
0.000783371
0.00150074
1.61681
0.000325469
0.00145952
1.61629
1.0571e-05
0.00143091
1.61585
-0.000104563
0.00136867
1.61545
-8.98369e-05
0.00128424
1.61501
-5.18503e-06
0.00123404
1.61462
0.000122419
0.00105812
1.61429
0.000269417
0.000846686
1.61398
0.000404161
0.000691351
1.61368
0.000517338
0.000552596
0.000559804
0.000459202
1.60005
-0.000135347
0.000130977
1.60003
-0.000410255
0.000411629
1.59996
-0.000809025
0.000745742
1.59988
-0.00146409
0.00117986
1.59984
-0.00256354
0.00176693
1.60006
-0.00430751
0.00251925
1.60127
-0.00631876
0.00318011
1.60152
-0.00967405
0.00555365
1.60438
-0.0178687
0.00682004
1.60936
-0.024917
0.00859834
1.6141
-0.0211958
0.00995972
1.61569
-0.0120108
0.00928972
1.62554
-0.0405638
0.0100988
1.62863
-0.0196076
0.00709909
1.62646
-1.9536e-06
0.00470513
1.62338
0.00466736
0.00293149
1.62213
0.00228444
0.00185838
1.61975
0.00169383
0.00282521
1.6184
0.00154314
0.0023794
1.61746
0.000853956
0.00223923
1.61684
0.000148945
0.00216518
1.61637
-0.000285368
0.00207342
1.61597
-0.000402227
0.00192918
1.61558
-0.000320751
0.00175735
1.61515
-0.000139379
0.00158606
1.61482
0.000108704
0.00121849
1.61451
0.000384684
0.000907907
1.61421
0.00063081
0.000635446
1.61387
0.000877221
0.000378601
0.00110085
0.000152715
1.60002
-0.000159911
0.000142645
1.59997
-0.000482865
0.000425968
1.59981
-0.000958395
0.000788729
1.59956
-0.00175434
0.00126466
1.59925
-0.00312108
0.00193032
1.59903
-0.00540239
0.00286442
1.59934
-0.00846946
0.0040458
1.59929
-0.0130454
0.00628535
1.60192
-0.0245645
0.00855215
1.6076
-0.0359423
0.0112999
1.61479
-0.0346353
0.0134608
1.62052
-0.0224101
0.0120836
1.62883
-0.0565824
0.0148005
1.63153
-0.0267414
0.0101478
1.6279
0.000960836
0.00652898
1.62351
0.00756489
0.00399617
1.62162
0.00352333
0.00325761
1.61955
0.00234373
0.00384291
1.61821
0.00171747
0.00367936
1.61733
0.000712251
0.00356959
1.61679
-0.000222658
0.00352827
1.61638
-0.000703587
0.00345183
1.61595
-0.000750735
0.00335481
1.61554
-0.00055916
0.0031632
1.61515
-0.000255995
0.00294254
1.61483
0.000120164
0.00265115
1.61452
0.000510858
0.00241357
1.61419
0.000871927
0.00222224
1.61391
0.00113314
0.00203972
0.00120098
0.00190743
1.59999
-0.000168504
0.000170597
1.59988
-0.000504067
0.000434017
1.59961
-0.00101189
0.0008359
1.59914
-0.00187744
0.00136929
1.59847
-0.00340923
0.00213653
1.59763
-0.00607066
0.00328156
1.5968
-0.00998314
0.0049766
1.59604
-0.0162587
0.00759356
1.59786
-0.0316617
0.0111613
1.6046
-0.0498932
0.0153962
1.61825
-0.0576595
0.0195871
1.6484
-0.0593619
0.0177798
1.63544
-0.054164
0.0214315
1.63634
-0.0338052
0.0151834
1.62998
0.00378791
0.00962456
1.6237
0.0124526
0.00561285
1.62114
0.0055139
0.00532632
1.6193
0.00299062
0.00596298
1.61806
0.00190319
0.0058475
1.61739
0.000517451
0.00556243
1.6171
-0.000574718
0.00530732
1.61685
-0.000874398
0.00493092
1.61649
-0.000566072
0.00440879
1.61618
8.08342e-06
0.00361983
1.61588
0.000689935
0.00284538
1.61557
0.00141036
0.00211491
1.61523
0.00208318
0.00147934
1.61485
0.00266183
0.000934155
1.61436
0.00315489
0.000484277
0.00335757
0.000208177
1.59995
-0.000159488
0.000199089
1.59978
-0.000470505
0.000455879
1.59938
-0.000949787
0.000875901
1.59866
-0.00180379
0.00148496
1.59754
-0.00335289
0.00237135
1.59591
-0.00617842
0.0037592
1.59396
-0.0108469
0.0059792
1.59211
-0.0192628
0.00950702
1.59171
-0.0383116
0.0148597
1.59966
-0.0682075
0.0217398
1.63739
-0.110869
0.0301717
1.64855
-0.0818281
0.0284049
1.65768
-0.0790793
0.0336774
1.64437
-0.0305526
0.0257992
1.63263
0.0108794
0.0154199
1.62452
0.0196448
0.00872691
1.6211
0.00913523
0.00889132
1.61888
0.00505878
0.00989687
1.61755
0.00335024
0.00996088
1.61695
0.00132859
0.0100362
1.61669
-0.00016554
0.0103383
1.61646
-0.000512349
0.010375
1.61618
-9.59666e-05
0.0101283
1.61602
0.00067763
0.00947633
1.61585
0.00159867
0.00882791
1.61563
0.00258468
0.00811921
1.61539
0.00348251
0.00742308
1.61503
0.00434112
0.00675222
1.61469
0.00491926
0.0061896
0.00496084
0.00573535
1.59992
-0.000132841
0.000215348
1.59965
-0.000380498
0.000510789
1.59913
-0.000776534
0.000913253
1.59816
-0.00150243
0.001576
1.59652
-0.00290151
0.00261685
1.59395
-0.00558832
0.00427302
1.59055
-0.0108053
0.00710395
1.58578
-0.0202993
0.0119148
1.58075
-0.0429796
0.0198107
1.58496
-0.0881873
0.0313082
1.624
-0.0389316
0.0466228
-0.0512651
-0.0356495
-0.0499619
1.6501
-0.0341333
0.0470977
-0.0318542
-0.030189
-0.0303185
1.64903
-0.020004
0.0554091
-0.0336848
-0.0159721
-0.0298662
1.65285
-0.019008
0.0488374
-0.0142564
-0.0106512
-0.00677428
1.63289
0.0290193
0.0286048
1.62466
0.0302218
0.0205558
1.62152
0.0141183
0.0218418
1.61955
0.00994722
0.0217095
1.61914
0.00918452
0.0198053
1.61929
0.00890963
0.0182284
1.61934
0.00944865
0.0168213
1.61918
0.0109845
0.0151653
1.61882
0.0128678
0.0134147
1.61838
0.014647
0.0117111
1.61782
0.0161918
0.0102477
1.6172
0.0174929
0.00893026
1.6165
0.0184776
0.0077887
1.61577
0.0192719
0.00683274
1.61482
0.0197189
0.00607123
0.0191364
0.00585038
1.59989
-9.06208e-05
0.000230593
1.59953
-0.000240469
0.000568491
1.59886
-0.000498676
0.000982051
1.59768
-0.00100294
0.00164085
1.59552
-0.00201978
0.00282413
1.59184
-0.00408604
0.00472131
1.58568
-0.00859949
0.00828064
1.57659
-0.0180621
0.0145326
1.56277
-0.0425139
0.0258416
0.390675
-0.107297
0.0458074
0.386919
0.39121
0.387498
-0.0063994
0.394433
-0.0469467
0.0107055
-0.00862559
-0.405132
0.416778
-0.0507789
0.0136767
-0.016389
-0.418548
0.417707
-0.0242905
0.0215359
-0.0194197
-0.415853
0.41974
-0.0318533
0.0284033
1.64162
0.0874022
0.0645389
-0.417723
-0.423619
-0.418124
-0.4199
1.63263
0.0621806
0.0585756
1.62435
0.0382185
0.0683824
1.6179
0.027763
0.0726157
1.61305
0.0238047
0.0721969
1.6077
0.0222452
0.0716294
1.60198
0.0222939
0.0692859
1.59614
0.023363
0.0653808
1.59063
0.0244615
0.0606098
1.58561
0.0254221
0.0557349
1.58112
0.0262858
0.0510285
1.57723
0.0270223
0.0465988
1.57363
0.0277831
0.0427164
1.57058
0.0282031
0.039184
1.56627
0.0294392
0.0366998
0.028195
0.0351241
1.59987
-3.67783e-05
0.000241082
1.59945
-6.36024e-05
0.000602151
1.59864
-0.000141974
0.00106542
1.59723
-0.000344285
0.00174949
1.59467
-0.000815603
0.00299579
1.59014
-0.00184715
0.00502891
1.58141
-0.00427396
0.00923635
1.56553
-0.0100298
0.0167396
1.5337
-0.0281885
0.0322095
0.373693
-0.0980242
0.0647126
0.364292
0.374899
0.366739
-0.0644483
0.012763
-0.00400877
0.052029
0.0946038
0.0944924
0.0936618
0.0946571
-0.00103404
-0.099999
0.0191739
0.105523
-0.0252548
0.00159432
-0.106732
-0.0116539
0.00783793
0.105316
-0.00775849
0.013
-0.102873
-0.0169079
0.015985
-0.0241679
0.0215599
0.1064
1.2185
0.148916
0.0761016
-0.355638
-0.106149
-0.39333
-0.325881
1.20088
0.139106
0.0514145
1.19252
0.0920091
0.0447765
1.19906
0.0576945
0.0287314
1.2194
0.0364553
0.0101756
1.24849
0.0242781
-0.00479295
1.28132
0.0186868
-0.0161493
1.31418
0.017564
-0.0253816
1.34399
0.0188941
-0.0319962
1.36982
0.0214389
-0.0362834
1.39142
0.0244908
-0.0386552
1.40899
0.0274945
-0.0395248
1.42252
0.030471
-0.0392206
1.43304
0.0324719
-0.037929
1.43863
0.0359175
-0.0367401
0.0368971
-0.0305861
1.59988
2.3006e-05
0.000243319
1.59944
0.000131518
0.000618675
1.59858
0.00025415
0.00110377
1.59703
0.000396403
0.00184196
1.59423
0.000571427
0.00311706
1.58919
0.000798188
0.00526032
1.57923
0.00110652
0.00971985
1.5594
0.00154016
0.0179953
1.50959
0.0021636
0.0355206
0.33716
0.00334858
0.0790365
0.334348
0.336192
0.334229
-0.0420317
0.00673429
0.0129146
0.0651362
0.070793
0.0755687
0.0720056
0.0760649
0.00228563
0.00377285
-0.00584887
0.00669734
-0.00238697
-0.00106877
-0.00126734
-0.00107697
-0.0011058
-0.00708296
0.0019789
-0.00479274
0.00501484
0.00805109
-0.000716951
-0.000875815
-0.000835294
-0.000743216
-0.0010135
-0.00130846
0.000658471
-0.000422195
0.00169793
0.000392647
0.725602
-0.0871075
-0.413733
-0.0281473
-0.0643129
-0.199187
-0.107487
0.92321
-0.0708417
-0.339256
1.06876
-0.0612328
-0.267875
1.17083
-0.0541921
-0.224407
1.24315
-0.047128
-0.19485
1.29623
-0.039788
-0.172569
1.33617
-0.0318766
-0.15535
1.36722
-0.0234889
-0.142286
1.39188
-0.0146125
-0.131858
1.41168
-0.0055492
-0.123164
1.42763
0.00326282
-0.1158
1.44045
0.0113761
-0.109449
1.45058
0.018695
-0.104007
1.45866
0.0243429
-0.0988452
1.46396
0.0306437
-0.095519
0.0329125
-0.0874703
1.5999
8.21754e-05
0.000237042
1.5995
0.000322869
0.000605383
1.5987
0.000642987
0.00105565
1.5972
0.00112664
0.00182058
1.59444
0.00194151
0.00308996
1.58928
0.00342299