/*--------------------------------*- C++ -*----------------------------------*\
| =========                 |                                                 |
| \\      /  F ield         | OpenFOAM: The Open Source CFD Toolbox           |
|  \\    /   O peration     | Version:  2512                                  |
|   \\  /    A nd           | Website:  www.openfoam.com                      |
|    \\/     M anipulation  |                                                 |
\*---------------------------------------------------------------------------*/
FoamFile
{
    version     2.0;
    format      ascii;
    arch        "LSB;label=32;scalar=64";
    class       volVectorField;
    location    "180";
    object      U;
}
// * * * * * * * * * * * * * * * * * * * * * * * * * * * * * * * * * * * * * //

dimensions      [0 1 -1 0 0 0 0];

internalField   nonuniform List<vector> 
90398
(
(20.0005 -0.000849793 9.9453e-05)
(20.0056 -0.00271361 0.000279444)
(20.0168 -0.00488776 0.000485269)
(20.0354 -0.00762201 0.000724249)
(20.0631 -0.0111925 0.000994915)
(20.103 -0.0159174 0.00129503)
(20.1594 -0.0220654 0.00170533)
(20.2381 -0.029735 0.00205763)
(20.3445 -0.0381971 0.00193805)
(20.4827 -0.0462321 0.00102851)
(20.6503 -0.0508787 -0.00117792)
(20.8373 -0.050183 -0.00458303)
(21.0303 -0.048044 -0.00848708)
(21.2288 -0.0500779 -0.0115682)
(21.4467 -0.0594853 -0.0120414)
(21.6994 -0.0736701 -0.0079296)
(21.9881 -0.0871458 0.000935347)
(22.2807 -0.101568 0.023982)
(22.5164 -0.127812 0.079197)
(22.8085 -0.157054 0.115695)
(23.4416 -0.156674 0.0388089)
(24.4332 -0.125986 -0.102996)
(25.587 -0.0885067 -0.217368)
(26.7368 -0.0558645 -0.282478)
(27.8097 -0.0298382 -0.311879)
(28.8134 -0.0086928 -0.323967)
(29.7141 0.00669005 -0.326658)
(30.6789 0.0226078 -0.341423)
(31.3169 0.0248996 -0.340028)
(32.9419 0.044714 -0.496456)
(20.0005 -0.00250835 9.63802e-05)
(20.0053 -0.00802153 0.000278775)
(20.016 -0.0144625 0.00049298)
(20.0338 -0.0225755 0.000750501)
(20.0604 -0.0332161 0.0010671)
(20.0987 -0.0473982 0.0014628)
(20.1533 -0.0660112 0.00202873)
(20.2305 -0.0895315 0.00258888)
(20.3366 -0.115976 0.00278823)
(20.4773 -0.141213 0.00212811)
(20.6501 -0.155175 -0.000295735)
(20.841 -0.151177 -0.00433635)
(21.0326 -0.142358 -0.00898266)
(21.2241 -0.147431 -0.0124138)
(21.4346 -0.176437 -0.0126546)
(21.6849 -0.220708 -0.00780375)
(21.9744 -0.263046 0.00326448)
(22.2678 -0.308041 0.0299064)
(22.5332 -0.38216 0.076368)
(22.8688 -0.462394 0.0969061)
(23.4707 -0.466397 0.0292358)
(24.3654 -0.391348 -0.0860486)
(25.4133 -0.292692 -0.180988)
(26.4777 -0.202145 -0.238367)
(27.4881 -0.127275 -0.266855)
(28.4439 -0.0655953 -0.280047)
(29.3085 -0.0189338 -0.285085)
(30.2372 0.0261417 -0.298914)
(30.856 0.0388597 -0.302254)
(32.4242 0.0873732 -0.446464)
(20.0005 -0.00406722 0.000102919)
(20.0049 -0.013028 0.000303042)
(20.0146 -0.0235107 0.000544314)
(20.0308 -0.0367479 0.000853299)
(20.0549 -0.0542355 0.00126765)
(20.09 -0.0777912 0.00185156)
(20.1408 -0.109353 0.00268182)
(20.2148 -0.150057 0.00365747)
(20.3204 -0.197077 0.00440547)
(20.4665 -0.242802 0.00420936)
(20.6513 -0.265972 0.00127091)
(20.852 -0.252462 -0.00417679)
(21.0402 -0.22986 -0.0104918)
(21.216 -0.23537 -0.0149688)
(21.4105 -0.286711 -0.0152213)
(21.6558 -0.36611 -0.00902897)
(21.9477 -0.442051 0.00529297)
(22.2483 -0.520364 0.0331165)
(22.5585 -0.63325 0.06571)
(22.971 -0.735324 0.0563333)
(23.5872 -0.730733 -0.0143628)
(24.411 -0.627406 -0.102538)
(25.3506 -0.491377 -0.169296)
(26.3107 -0.361837 -0.208851)
(27.2339 -0.250758 -0.228331)
(28.1168 -0.157354 -0.237304)
(28.9213 -0.0842103 -0.240567)
(29.7887 -0.016179 -0.252418)
(30.3697 0.0096345 -0.255565)
(31.8364 0.0744584 -0.387518)
(20.0004 -0.00547912 0.000111228)
(20.0042 -0.0175681 0.00033269)
(20.0125 -0.0317287 0.000612141)
(20.0262 -0.0496646 0.000992474)
(20.0466 -0.0735798 0.00155351)
(20.0766 -0.106323 0.00240253)
(20.1211 -0.151433 0.00367473)
(20.1891 -0.21164 0.00536096)
(20.2927 -0.284737 0.00715309)
(20.4484 -0.358824 0.00798444)
(20.6559 -0.390137 0.00419742)
(20.8747 -0.352861 -0.00396735)
(21.0561 -0.302389 -0.0131528)
(21.2033 -0.303901 -0.0196803)
(21.3702 -0.383767 -0.020482)
(21.6072 -0.50713 -0.0130651)
(21.9046 -0.620721 0.0031152)
(22.226 -0.734996 0.0261816)
(22.5958 -0.872022 0.0359739)
(23.0714 -0.963598 0.00573227)
(23.6933 -0.939519 -0.0559218)
(24.4552 -0.822077 -0.116602)
(25.2969 -0.670897 -0.158013)
(26.1551 -0.522218 -0.180431)
(26.9857 -0.389934 -0.18991)
(27.7852 -0.274999 -0.193152)
(28.5174 -0.182173 -0.193117)
(29.3076 -0.0951219 -0.201897)
(29.8393 -0.059577 -0.203515)
(31.1683 0.0216973 -0.319828)
(20.0003 -0.00668883 0.000120836)
(20.0033 -0.0214616 0.000367539)
(20.0098 -0.0387746 0.000693456)
(20.0203 -0.0607586 0.00117345)
(20.0356 -0.0903904 0.00192098)
(20.0581 -0.131797 0.00313124)
(20.0928 -0.191113 0.00510109)
(20.15 -0.274301 0.00804929)
(20.248 -0.383048 0.0119026)
(20.4202 -0.502853 0.0150279)
(20.6707 -0.541139 0.00893154)
(20.9198 -0.453337 -0.00506364)
(21.0877 -0.349777 -0.0193668)
(21.1851 -0.336301 -0.028956)
(21.3074 -0.453738 -0.0300701)
(21.5331 -0.633567 -0.0206176)
(21.8451 -0.790207 -0.00462523)
(22.2046 -0.935207 0.00790921)
(22.6309 -1.07569 -0.0003926)
(23.1485 -1.14987 -0.0361445)
(23.7682 -1.11568 -0.0831623)
(24.4754 -0.998803 -0.121416)
(25.23 -0.847522 -0.143488)
(25.991 -0.693138 -0.152245)
(26.7271 -0.550491 -0.152659)
(27.4364 -0.422214 -0.149839)
(28.0873 -0.315386 -0.145765)
(28.7873 -0.21331 -0.15043)
(29.2608 -0.169391 -0.149913)
(30.4233 -0.0728879 -0.247245)
(20.0002 -0.00764141 0.000130996)
(20.0022 -0.0245472 0.000408486)
(20.0065 -0.0443476 0.0007818)
(20.0131 -0.0694817 0.00136969)
(20.0221 -0.103679 0.00238043)
(20.0344 -0.15264 0.00411876)
(20.0542 -0.226121 0.00721681)
(20.0924 -0.337027 0.0123795)
(20.1756 -0.498782 0.020022)
(20.3749 -0.693042 0.0293042)
(20.7051 -0.732427 0.0176663)
(21.0081 -0.55405 -0.00711222)
(21.1452 -0.364264 -0.0293333)
(21.1588 -0.318406 -0.0439876)
(21.2102 -0.485086 -0.0455206)
(21.4308 -0.72989 -0.0367303)
(21.7919 -0.930553 -0.0245242)
(22.2173 -1.10148 -0.0190664)
(22.6936 -1.24286 -0.0315529)
(23.2288 -1.30604 -0.061206)
(23.8189 -1.26924 -0.0937338)
(24.4522 -1.15952 -0.116565)
(25.1087 -1.0162 -0.126184)
(25.7665 -0.865645 -0.125632)
(26.4045 -0.721973 -0.118988)
(27.0215 -0.588384 -0.110539)
(27.5891 -0.473635 -0.102081)
(28.1953 -0.361103 -0.101802)
(28.6085 -0.310003 -0.0986802)
(29.5904 -0.200286 -0.174522)
(20.0001 -0.00831169 0.000139532)
(20.0011 -0.0266986 0.000441999)
(20.003 -0.0481825 0.000876242)
(20.0051 -0.075346 0.00157321)
(20.0065 -0.112411 0.00285092)
(20.0056 -0.16637 0.00523578)
(20.0034 -0.252542 0.00998455)
(20.0078 -0.392235 0.0187997)
(20.0582 -0.651366 0.0344326)
(20.2959 -0.968248 0.0545136)
(20.7637 -0.966728 0.0257663)
(21.1557 -0.607359 -0.0125038)
(21.2496 -0.318061 -0.0442151)
(21.132 -0.246171 -0.0679382)
(21.1073 -0.53806 -0.0686766)
(21.3755 -0.876318 -0.0589542)
(21.8112 -1.11107 -0.0408692)
(22.2411 -1.28538 -0.0223834)
(22.6475 -1.40478 -0.0218525)
(23.0698 -1.43839 -0.0414539)
(23.533 -1.38885 -0.0685788)
(24.0487 -1.28654 -0.089398)
(24.6107 -1.16046 -0.0979654)
(25.1982 -1.02723 -0.0954861)
(25.7834 -0.895902 -0.0859663)
(26.3544 -0.767963 -0.0740404)
(26.8805 -0.653036 -0.0621933)
(27.4265 -0.535119 -0.0571772)
(27.8047 -0.478457 -0.0518938)
(28.6276 -0.355519 -0.105014)
(20 -0.00868564 0.000146131)
(20 -0.0278776 0.000468991)
(19.9994 -0.0501267 0.000938542)
(19.9969 -0.0779534 0.00175215)
(19.99 -0.115657 0.0033102)
(19.9735 -0.170437 0.00638089)
(19.9409 -0.262516 0.0133648)
(19.8814 -0.422775 0.0269803)
(19.8368 -0.803669 0.0634171)
(20.037 -1.07445 0.0420002)
(20.7233 -1.27991 0.00736676)
(21.3898 -0.728677 -0.0466822)
(21.4945 -0.0595751 -0.0439764)
(21.2393 0.169048 -0.0509215)
(20.8895 -0.415066 -0.00981726)
(20.9909 -0.901051 0.0670915)
(21.1592 -1.17652 0.0999393)
(21.2376 -1.35232 0.0957709)
(21.3363 -1.44934 0.0709877)
(21.5813 -1.46691 0.0331682)
(22.0133 -1.43505 -0.00886853)
(22.6112 -1.37999 -0.0428275)
(23.3143 -1.30885 -0.0609767)
(24.0503 -1.22077 -0.0636457)
(24.7596 -1.11782 -0.0555891)
(25.4147 -1.00174 -0.0426382)
(25.9887 -0.886524 -0.0287061)
(26.5323 -0.759253 -0.0194493)
(26.9104 -0.69326 -0.0126296)
(27.5993 -0.545957 -0.0427593)
(19.9999 -0.00876329 0.000148979)
(19.9989 -0.0280937 0.000482306)
(19.9961 -0.0502144 0.000978903)
(19.9893 -0.0772214 0.0018217)
(19.9747 -0.112992 0.00346895)
(19.9421 -0.163586 0.007269)
(19.8743 -0.246534 0.0155375)
(19.7201 -0.410422 0.041124)
(19.6352 -0.619251 0.0365911)
(19.533 -1.69557 0.101807)
(21.0463 -1.9538 0.0747101)
(21.9672 -0.846218 0.0305062)
(21.901 -0.190054 0.105035)
(21.0907 0.460487 0.393281)
(17.1773 -0.262998 0.417658)
(17.1492 -0.750898 0.204134)
(17.2805 -0.958266 0.0615866)
(17.5406 -1.15667 -0.021885)
(18.0971 -1.36733 -0.0415823)
(18.9827 -1.54455 -0.0389613)
(20.0914 -1.66986 -0.0484559)
(21.2839 -1.72959 -0.0679821)
(22.4319 -1.71624 -0.080535)
(23.45 -1.63785 -0.0778935)
(24.3045 -1.51441 -0.0625867)
(25.0024 -1.3634 -0.0412591)
(25.5574 -1.20969 -0.0191726)
(26.021 -1.04397 -0.000979548)
(26.3323 -0.949911 0.0113872)
(26.7942 -0.758167 0.00644033)
(19.9998 -0.0085676 0.000147866)
(19.998 -0.0274186 0.00047867)
(19.9933 -0.0486233 0.000982043)
(19.9829 -0.073736 0.0018737)
(19.9628 -0.105109 0.00362075)
(19.9165 -0.146218 0.00756898)
(19.8243 -0.207824 0.0175162)
(19.5507 -0.313163 0.0501907)
(19.2648 -0.50349 0.0643749)
(18.543 -1.52782 0.066967)
(23.2318 -3.80188 0.256896)
(20.6007 -1.65605 1.22228)
(14.7079 -2.95308 0.214922)
(13.0281 -1.06699 -0.146761)
(10.3399 0.0942121 -0.649158)
(12.2623 -0.625651 -0.702297)
(14.3447 -1.18615 -0.547969)
(16.2305 -1.70836 -0.363026)
(18.0417 -2.11407 -0.227059)
(19.7516 -2.35806 -0.169053)
(21.2727 -2.44754 -0.167906)
(22.5557 -2.40848 -0.178987)
(23.5894 -2.27668 -0.173346)
(24.3905 -2.08927 -0.147372)
(24.9938 -1.87759 -0.109863)
(25.4396 -1.65963 -0.0702225)
(25.7632 -1.45615 -0.0336637)
(25.9914 -1.2527 -0.00271834)
(26.1333 -1.13172 0.0197784)
(26.2483 -0.908702 0.0420486)
(19.9998 -0.00813895 0.000141636)
(19.9973 -0.0259946 0.000459869)
(19.9912 -0.0456575 0.000944004)
(19.9786 -0.0680389 0.00180894)
(19.9552 -0.0937839 0.00356109)
(19.9042 -0.123217 0.00751573)
(19.8046 -0.150932 0.0174355)
(19.5194 -0.163763 0.0503445)
(19.14 -0.127417 0.0718405)
(17.2873 0.114836 0.125157)
(10.9913 4.00953 -8.41658)
(15.5786 1.78551 -1.65896)
(13.4449 2.24234 -0.204063)
(14.988 -2.1212 0.399071)
(17.0133 -2.22517 0.0885029)
(18.7857 -2.46537 -0.0623321)
(20.1941 -2.6702 -0.162437)
(21.4443 -2.77273 -0.247027)
(22.5567 -2.77554 -0.312667)
(23.4841 -2.69281 -0.340898)
(24.2185 -2.54377 -0.324797)
(24.7808 -2.35306 -0.2764)
(25.1967 -2.14174 -0.214082)
(25.4919 -1.92532 -0.151601)
(25.6866 -1.71076 -0.0959065)
(25.8049 -1.51175 -0.0484825)
(25.8369 -1.31277 -0.00799603)
(25.8428 -1.18895 0.0226306)
(25.6658 -0.968227 0.069563)
(19.9997 -0.00752762 0.0001303)
(19.9969 -0.0239909 0.000421026)
(19.9899 -0.0417015 0.00085903)
(19.9763 -0.0609985 0.00161674)
(19.9519 -0.0808913 0.00305696)
(19.9052 -0.0988893 0.00654226)
(19.8163 -0.102579 0.0149275)
(19.6277 -0.0460651 0.0403898)
(19.372 0.145075 0.0574627)
(18.7075 1.38611 0.18451)
(20.3305 2.87116 0.274013)
(19.1038 3.71483 1.45615)
(14.8896 2.35461 0.630717)
(15.2938 0.140643 0.700053)
(20.4643 -1.73231 0.123473)
(20.9246 -1.67601 -0.0241511)
(21.4799 -1.91603 -0.172459)
(22.0381 -2.15702 -0.306392)
(22.6973 -2.3218 -0.397031)
(23.3935 -2.40459 -0.429707)
(24.0222 -2.40423 -0.410253)
(24.5371 -2.33132 -0.355021)
(24.9329 -2.20729 -0.283835)
(25.216 -2.05024 -0.212056)
(25.3987 -1.87405 -0.147421)
(25.4897 -1.6873 -0.0921607)
(25.5124 -1.50554 -0.0452335)
(25.433 -1.31801 -0.00305666)
(25.3608 -1.19418 0.0298767)
(24.9736 -0.980594 0.0957111)
(19.9997 -0.00678449 0.000114652)
(19.9966 -0.021577 0.000365172)
(19.9893 -0.0371511 0.000727299)
(19.9758 -0.0532312 0.0013274)
(19.9528 -0.068141 0.0026246)
(19.9141 -0.0780065 0.00552164)
(19.8491 -0.0645719 0.0122833)
(19.7438 -0.00466819 0.0267223)
(19.6191 0.272133 0.0655652)
(19.5644 0.725825 0.0919527)
(20.2784 1.27446 0.147058)
(21.4386 0.669849 0.132698)
(21.6352 -0.696158 0.087637)
(21.1845 -1.55368 0.0394833)
(20.51 -1.41079 -0.0756148)
(20.6291 -1.43229 -0.140754)
(21.0761 -1.68065 -0.260304)
(21.7441 -1.93408 -0.379362)
(22.5368 -2.11285 -0.444197)
(23.3106 -2.2114 -0.447065)
(23.9627 -2.23298 -0.406407)
(24.4633 -2.18837 -0.341859)
(24.8214 -2.0925 -0.27011)
(25.0523 -1.95914 -0.201723)
(25.1737 -1.80207 -0.140978)
(25.1953 -1.63036 -0.088596)
(25.146 -1.45894 -0.0431998)
(24.9766 -1.28004 7.29257e-05)
(24.8397 -1.15643 0.0347118)
(24.2734 -0.951613 0.117748)
(19.9997 -0.00595637 9.64399e-05)
(19.9966 -0.0189037 0.000297045)
(19.9892 -0.032304 0.000575476)
(19.9764 -0.0455745 0.00108087)
(19.9562 -0.0568142 0.00212272)
(19.9258 -0.0613242 0.00418747)
(19.8832 -0.0469719 0.00851065)
(19.8319 0.00908489 0.0172708)
(19.8023 0.166855 0.0342749)
(19.9267 0.408102 0.0626129)
(20.3297 0.408676 0.0629912)
(20.7467 -0.0920765 0.0307179)
(20.8378 -0.676185 -0.0257396)
(20.637 -1.10492 -0.0696474)
(20.4482 -1.17988 -0.0932734)
(20.5355 -1.20879 -0.126418)
(20.9781 -1.37912 -0.248724)
(21.6925 -1.61163 -0.380355)
(22.5155 -1.80561 -0.450419)
(23.2879 -1.93186 -0.452156)
(23.9177 -1.98786 -0.408121)
(24.3834 -1.98042 -0.341892)
(24.6973 -1.91987 -0.27075)
(24.8769 -1.81659 -0.203613)
(24.941 -1.68165 -0.144117)
(24.8985 -1.52579 -0.0923278)
(24.7831 -1.36614 -0.0464618)
(24.533 -1.19845 -0.000529155)
(24.3374 -1.07814 0.0368276)
(23.6136 -0.885758 0.136153)
(19.9997 -0.00507568 7.58754e-05)
(19.9966 -0.0161073 0.00022628)
(19.9895 -0.0273404 0.000432669)
(19.9776 -0.0380874 0.000776329)
(19.9602 -0.046631 0.00144056)
(19.9369 -0.0492819 0.00269931)
(19.9093 -0.0379943 0.00509309)
(19.8852 -0.000791339 0.00959213)
(19.8885 0.0773017 0.0168756)
(19.9867 0.189646 0.0275708)
(20.2342 0.172074 0.0232147)
(20.4987 -0.14001 -0.00409989)
(20.5855 -0.574813 -0.0439919)
(20.5027 -0.906908 -0.078421)
(20.4297 -1.02308 -0.0998944)
(20.5229 -1.03935 -0.110589)
(20.9263 -1.15143 -0.221377)
(21.6357 -1.35576 -0.361814)
(22.468 -1.5462 -0.44176)
(23.2382 -1.68019 -0.450229)
(23.8521 -1.75242 -0.410673)
(24.2915 -1.76634 -0.347769)
(24.5707 -1.72742 -0.278304)
(24.7076 -1.64274 -0.211315)
(24.7212 -1.52365 -0.151487)
(24.6208 -1.38229 -0.0992668)
(24.4453 -1.23457 -0.0523639)
(24.1233 -1.07907 -0.00332665)
(23.8744 -0.964262 0.0372766)
(23.0138 -0.787931 0.151596)
(19.9997 -0.00416993 5.66171e-05)
(19.9968 -0.0132225 0.000159906)
(19.99 -0.0223446 0.000280316)
(19.979 -0.0309188 0.000468035)
(19.9639 -0.03759 0.000815072)
(19.9457 -0.0397679 0.00139625)
(19.927 -0.0329114 0.00239928)
(19.9162 -0.0118424 0.00406999)
(19.9301 0.0257149 0.00619026)
(20.002 0.0662391 0.00766695)
(20.154 0.0259456 0.000649479)
(20.3222 -0.183106 -0.0198839)
(20.4043 -0.478316 -0.0498253)
(20.3947 -0.713778 -0.0799667)
(20.3966 -0.822863 -0.103323)
(20.5058 -0.8514 -0.112621)
(20.8814 -0.924846 -0.204765)
(21.5822 -1.08822 -0.352225)
(22.4185 -1.25854 -0.441881)
(23.1861 -1.38985 -0.457502)
(23.7866 -1.47173 -0.422784)
(24.204 -1.50253 -0.363125)
(24.4538 -1.48311 -0.294909)
(24.5536 -1.41784 -0.227247)
(24.5228 -1.31651 -0.165122)
(24.371 -1.19188 -0.109582)
(24.1415 -1.06018 -0.0595268)
(23.7566 -0.922087 -0.00669296)
(23.4604 -0.817679 0.0374142)
(22.4839 -0.662755 0.165231)
(19.9997 -0.00324324 3.89441e-05)
(19.9969 -0.0102963 9.59178e-05)
(19.9904 -0.0173685 0.00014325)
(19.9802 -0.0239597 0.000201323)
(19.9669 -0.0291099 0.000278947)
(19.9518 -0.0311999 0.000352577)
(19.9383 -0.0279099 0.000407986)
(19.933 -0.0174793 0.000330367)
(19.9475 -0.00224635 -0.000472349)
(19.9989 0.00472764 -0.00315337)
(20.0962 -0.0386293 -0.0119448)
(20.2079 -0.176114 -0.0293733)
(20.2797 -0.37225 -0.0541202)
(20.308 -0.542096 -0.0821592)
(20.3574 -0.639166 -0.107638)
(20.4903 -0.671981 -0.119883)
(20.8523 -0.709053 -0.193515)
(21.5426 -0.823287 -0.34317)
(22.3775 -0.962368 -0.440332)
(23.1415 -1.08114 -0.462542)
(23.7309 -1.1636 -0.432728)
(24.1303 -1.20386 -0.376919)
(24.3556 -1.19936 -0.31086)
(24.4237 -1.1514 -0.242746)
(24.354 -1.06866 -0.178186)
(24.1566 -0.964041 -0.1191)
(23.8797 -0.85265 -0.0651203)
(23.4406 -0.736236 -0.00802009)
(23.1037 -0.647197 0.0395442)
(22.0323 -0.51853 0.178673)
(19.9997 -0.00230788 2.48657e-05)
(19.997 -0.0073466 4.57572e-05)
(19.9907 -0.0123936 3.65876e-05)
(19.9811 -0.0170891 -9.70106e-06)
(19.9689 -0.0208183 -0.000123792)
(19.9559 -0.0226633 -0.000390391)
(19.9449 -0.021569 -0.000953279)
(19.9415 -0.0173695 -0.00211527)
(19.9534 -0.0130438 -0.00450903)
(19.9901 -0.0180017 -0.00932477)
(20.0552 -0.0540377 -0.0190712)
(20.1325 -0.142815 -0.0354588)
(20.1953 -0.268968 -0.058807)
(20.2444 -0.383596 -0.0859711)
(20.3262 -0.454651 -0.113061)
(20.4831 -0.478634 -0.128718)
(20.8378 -0.487844 -0.18358)
(21.5171 -0.55517 -0.329664)
(22.3483 -0.656705 -0.431293)
(23.1094 -0.753821 -0.459633)
(23.6906 -0.827946 -0.435592)
(24.0754 -0.870214 -0.384469)
(24.2802 -0.876019 -0.321721)
(24.3216 -0.844741 -0.254286)
(24.2185 -0.783545 -0.187687)
(23.9824 -0.703899 -0.1252)
(23.6656 -0.618734 -0.0674592)
(23.1817 -0.529445 -0.00625012)
(22.8113 -0.461489 0.0445195)
(21.6657 -0.362851 0.192581)
(19.9997 -0.00137456 1.3071e-05)
(19.997 -0.00439115 6.26231e-06)
(19.991 -0.00742181 -4.57551e-05)
(19.9817 -0.0102512 -0.000167503)
(19.9702 -0.0125397 -0.000413478)
(19.9582 -0.0138387 -0.000906976)
(19.9484 -0.0137477 -0.00186102)
(19.9452 -0.0125579 -0.0036696)
(19.9544 -0.0124068 -0.00695934)
(19.9817 -0.018858 -0.0128859)
(20.0284 -0.0425328 -0.0231354)
(20.0864 -0.0930069 -0.0391238)
(20.1433 -0.1636 -0.0619308)
(20.2038 -0.229021 -0.0887389)
(20.3059 -0.27071 -0.116773)
(20.4819 -0.283533 -0.135203)
(20.833 -0.278623 -0.171901)
(21.507 -0.305435 -0.30756)
(22.3375 -0.362683 -0.4093)
(23.0984 -0.427129 -0.442182)
(23.674 -0.482214 -0.424311)
(24.047 -0.517263 -0.379449)
(24.2345 -0.527308 -0.321975)
(24.2535 -0.511003 -0.25702)
(24.123 -0.47331 -0.189741)
(23.8558 -0.422753 -0.124571)
(23.5073 -0.369066 -0.0637886)
(22.9886 -0.311317 0.000749383)
(22.5933 -0.270801 0.0532606)
(21.3947 -0.203128 0.208363)
(19.9997 -0.000455474 7.21589e-06)
(19.9971 -0.00145912 -1.27131e-05)
(19.9911 -0.00247129 -8.58754e-05)
(19.9819 -0.0034218 -0.000245069)
(19.9708 -0.00420239 -0.000554165)
(19.9592 -0.00468058 -0.00115221)
(19.9498 -0.0047652 -0.0022838)
(19.9465 -0.00461893 -0.00438158)
(19.954 -0.00501714 -0.00808055)
(19.9765 -0.00779071 -0.0144912)
(20.015 -0.0161177 -0.0249756)
(20.0643 -0.0326196 -0.0408889)
(20.1187 -0.055422 -0.0635477)
(20.1846 -0.0766744 -0.0901792)
(20.2976 -0.0901998 -0.118685)
(20.4842 -0.0936579 -0.137056)
(20.8378 -0.0892766 -0.157965)
(21.5282 -0.0939807 -0.285458)
(22.3703 -0.110666 -0.382982)
(23.1326 -0.133017 -0.416057)
(23.7007 -0.154218 -0.402237)
(24.0606 -0.168598 -0.36241)
(24.2315 -0.173614 -0.309391)
(24.2316 -0.168738 -0.247124)
(24.0805 -0.155922 -0.180328)
(23.7914 -0.138294 -0.113616)
(23.4206 -0.119791 -0.051413)
(22.8781 -0.0991198 0.0163218)
(22.4683 -0.0864536 0.0665616)
(21.2362 -0.060209 0.230377)
(20.0006 -0.000866897 0.000295633)
(20.0056 -0.00273865 0.000814776)
(20.017 -0.00491777 0.00140466)
(20.0358 -0.00765079 0.0021243)
(20.0639 -0.0112255 0.00293636)
(20.1042 -0.0159438 0.00382664)
(20.1611 -0.0220657 0.00461199)
(20.2401 -0.0296803 0.00501388)
(20.3469 -0.0381466 0.00422432)
(20.485 -0.0460032 0.00157991)
(20.6529 -0.0509205 -0.00417819)
(20.8406 -0.0508308 -0.0135922)
(21.0365 -0.0494677 -0.0245458)
(21.2399 -0.052165 -0.0332738)
(21.4633 -0.0618098 -0.0348366)
(21.7259 -0.0746727 -0.0303275)
(22.036 -0.0915705 -0.0130666)
(22.3768 -0.130153 0.0551605)
(22.9031 -0.18667 0.119704)
(23.9154 -0.215397 -0.00928278)
(25.3587 -0.188664 -0.341493)
(26.7509 -0.144118 -0.596345)
(27.9411 -0.113117 -0.688827)
(28.9848 -0.095057 -0.70168)
(29.9303 -0.0831186 -0.690216)
(30.817 -0.0728709 -0.677366)
(31.637 -0.0645218 -0.670803)
(32.4974 -0.0533501 -0.688334)
(33.1536 -0.051505 -0.726049)
(34.4027 -0.0268983 -0.952713)
(20.0005 -0.00254724 0.000296598)
(20.0054 -0.00807079 0.000833913)
(20.0162 -0.0145095 0.00145704)
(20.0342 -0.0225959 0.00224376)
(20.061 -0.0332111 0.00317148)
(20.0997 -0.0473083 0.00424695)
(20.1547 -0.0657593 0.00536144)
(20.232 -0.0889253 0.00623559)
(20.3383 -0.11516 0.0059868)
(20.4783 -0.139694 0.00378796)
(20.6504 -0.154469 -0.00220138)
(20.8413 -0.152449 -0.0130642)
(21.0353 -0.145944 -0.0260329)
(21.2313 -0.152973 -0.0360301)
(21.447 -0.182476 -0.0382555)
(21.7097 -0.224769 -0.0325084)
(22.0269 -0.277049 -0.0074116)
(22.4031 -0.375793 0.0490096)
(22.9575 -0.523655 0.0805668)
(23.873 -0.616726 -0.0368733)
(25.1299 -0.56526 -0.30701)
(26.3832 -0.451653 -0.51576)
(27.5144 -0.362734 -0.603295)
(28.528 -0.306616 -0.622642)
(29.4478 -0.268025 -0.616235)
(30.3079 -0.235771 -0.605767)
(31.1021 -0.209065 -0.600792)
(31.931 -0.177651 -0.616011)
(32.5658 -0.166677 -0.6559)
(33.7686 -0.106143 -0.864905)
(20.0005 -0.00412314 0.000313394)
(20.0049 -0.0130974 0.000895811)
(20.0148 -0.0235715 0.00158992)
(20.0312 -0.0367623 0.00251074)
(20.0556 -0.0541878 0.00368527)
(20.0911 -0.0775638 0.00519652)
(20.1425 -0.108782 0.00708055)
(20.2167 -0.148743 0.00910759)
(20.3224 -0.195132 0.010241)
(20.4674 -0.239546 0.00913129)
(20.6504 -0.26381 0.00230311)
(20.8504 -0.254407 -0.0120133)
(21.0414 -0.236321 -0.0296375)
(21.2223 -0.245452 -0.0428485)
(21.4242 -0.298194 -0.0466944)
(21.6854 -0.37778 -0.0377386)
(22.0146 -0.471058 -0.00693976)
(22.4539 -0.625959 0.0319506)
(23.0969 -0.840922 0.0153621)
(23.9946 -0.960359 -0.127273)
(25.0504 -0.890666 -0.325886)
(26.1267 -0.743695 -0.464072)
(27.1512 -0.619688 -0.523617)
(28.0952 -0.531782 -0.536415)
(28.9592 -0.467218 -0.529194)
(29.7696 -0.413673 -0.518823)
(30.517 -0.368259 -0.513843)
(31.2948 -0.319191 -0.527131)
(31.8904 -0.294932 -0.564779)
(33.0182 -0.211972 -0.756472)
(20.0004 -0.0055566 0.000336181)
(20.0043 -0.0176693 0.000978296)
(20.0127 -0.0318183 0.00177401)
(20.0267 -0.0496813 0.00288728)
(20.0475 -0.0735256 0.00445462)
(20.0781 -0.10601 0.00670189)
(20.1233 -0.15047 0.00996872)
(20.1918 -0.209332 0.0141684)
(20.2956 -0.280873 0.0181952)
(20.4494 -0.351992 0.0195581)
(20.6532 -0.38554 0.0110348)
(20.8703 -0.356265 -0.0100732)
(21.0549 -0.313312 -0.0356763)
(21.2085 -0.320178 -0.054797)
(21.3863 -0.402673 -0.0614519)
(21.6407 -0.52851 -0.0499598)
(21.9941 -0.670843 -0.0220123)
(22.5102 -0.888077 -0.0121436)
(23.2252 -1.14259 -0.0771879)
(24.063 -1.2471 -0.208284)
(24.9617 -1.16598 -0.336595)
(25.8912 -1.01372 -0.416525)
(26.8004 -0.873897 -0.44716)
(27.6533 -0.76422 -0.447771)
(28.4426 -0.677844 -0.43589)
(29.1847 -0.603788 -0.423406)
(29.8683 -0.539996 -0.41679)
(30.5772 -0.473034 -0.427308)
(31.1192 -0.436982 -0.460481)
(32.1438 -0.330919 -0.631091)
(20.0003 -0.00678462 0.000362807)
(20.0034 -0.0215891 0.00107589)
(20.01 -0.0388922 0.00200079)
(20.0208 -0.0608091 0.00337048)
(20.0367 -0.090196 0.00548434)
(20.0601 -0.131199 0.00883571)
(20.0959 -0.189416 0.0142749)
(20.1542 -0.270228 0.0222494)
(20.2529 -0.375387 0.0321289)
(20.421 -0.487951 0.0390582)
(20.6639 -0.532014 0.0256813)
(20.9116 -0.459665 -0.00845031)
(21.0822 -0.367269 -0.0456899)
(21.1894 -0.36229 -0.0739754)
(21.3259 -0.484095 -0.0837847)
(21.5719 -0.670221 -0.0705953)
(21.9686 -0.869179 -0.0531999)
(22.5562 -1.13929 -0.0786505)
(23.2848 -1.39859 -0.164412)
(24.0439 -1.48512 -0.259802)
(24.8339 -1.41088 -0.334247)
(25.6428 -1.26852 -0.371137)
(26.4363 -1.12461 -0.375879)
(27.1879 -1.00051 -0.362743)
(27.8884 -0.89591 -0.343741)
(28.5476 -0.803221 -0.32705)
(29.1536 -0.721726 -0.317297)
(29.7789 -0.637158 -0.323675)
(30.2557 -0.589002 -0.350896)
(31.1531 -0.461246 -0.495868)
(20.0002 -0.00776477 0.000390656)
(20.0024 -0.0247131 0.00118194)
(20.0068 -0.0444965 0.00223409)
(20.0138 -0.0695698 0.00389001)
(20.0235 -0.103471 0.00669034)
(20.0371 -0.151837 0.0115387)
(20.0589 -0.223717 0.0203354)
(20.0994 -0.330383 0.0345413)
(20.1848 -0.483424 0.0556821)
(20.3758 -0.664566 0.0769589)
(20.6915 -0.721617 0.0518633)
(20.991 -0.564491 -0.00786882)
(21.1349 -0.390093 -0.065551)
(21.1627 -0.357816 -0.106741)
(21.2312 -0.528688 -0.117462)
(21.476 -0.789894 -0.103843)
(21.9365 -1.05134 -0.102277)
(22.5711 -1.35623 -0.15349)
(23.2613 -1.59909 -0.226218)
(23.9554 -1.68403 -0.289845)
(24.6527 -1.62766 -0.326359)
(25.349 -1.50109 -0.331996)
(26.0266 -1.36112 -0.314942)
(26.6723 -1.2306 -0.287956)
(27.2767 -1.1132 -0.260251)
(27.8451 -1.00465 -0.237532)
(28.3657 -0.906529 -0.223084)
(28.8983 -0.804891 -0.223858)
(29.3028 -0.744015 -0.2438)
(30.0564 -0.596552 -0.359178)
(20.0001 -0.0084482 0.000414938)
(20.0012 -0.0269195 0.00127972)
(20.0033 -0.0483995 0.00248848)
(20.006 -0.0754838 0.00445666)
(20.0083 -0.112277 0.00800626)
(20.0094 -0.165559 0.0147537)
(20.0106 -0.249035 0.0282585)
(20.0204 -0.382245 0.0530815)
(20.0764 -0.618679 0.0953026)
(20.2962 -0.906934 0.147387)
(20.7374 -0.970505 0.0981545)
(21.1263 -0.626142 0.000746825)
(21.2309 -0.354437 -0.0874688)
(21.1403 -0.289507 -0.151368)
(21.1119 -0.565374 -0.164112)
(21.3736 -0.911447 -0.158308)
(21.8918 -1.21605 -0.174164)
(22.5064 -1.51274 -0.214815)
(23.126 -1.74003 -0.266054)
(23.7307 -1.83002 -0.303429)
(24.3259 -1.79702 -0.31441)
(24.915 -1.69694 -0.298112)
(25.4933 -1.57354 -0.264488)
(26.0481 -1.44633 -0.225436)
(26.5677 -1.32258 -0.188944)
(27.0529 -1.20168 -0.15955)
(27.4928 -1.08842 -0.139478)
(27.9341 -0.970382 -0.133463)
(28.2666 -0.896308 -0.145232)
(28.8695 -0.730625 -0.227875)
(20 -0.00882958 0.000431756)
(20.0001 -0.0281217 0.00135329)
(19.9998 -0.0504503 0.00268582)
(19.9979 -0.078282 0.00502314)
(19.9922 -0.115739 0.00938328)
(19.9787 -0.170015 0.0181039)
(19.9519 -0.258691 0.0379423)
(19.9063 -0.409729 0.0786214)
(19.8815 -0.748151 0.168689)
(20.0229 -1.15358 0.217119)
(20.6221 -1.4232 0.186313)
(21.3439 -0.989292 0.00619262)
(21.4664 -0.270157 -0.0526872)
(21.236 -0.0334262 -0.123781)
(20.9476 -0.579665 -0.224413)
(21.2779 -1.07383 -0.199771)
(21.748 -1.34059 -0.215132)
(22.1769 -1.56208 -0.249606)
(22.6145 -1.75045 -0.27966)
(23.117 -1.86069 -0.298191)
(23.6724 -1.88586 -0.295362)
(24.2468 -1.84537 -0.267595)
(24.8057 -1.76035 -0.22389)
(25.3253 -1.64883 -0.176281)
(25.7946 -1.52423 -0.13262)
(26.2161 -1.39269 -0.0970084)
(26.585 -1.26424 -0.0710709)
(26.938 -1.12933 -0.0574543)
(27.1986 -1.04158 -0.0601942)
(27.6433 -0.857718 -0.10809)
(19.9999 -0.00891872 0.000438475)
(19.999 -0.0283516 0.00138452)
(19.9964 -0.0505948 0.00278757)
(19.9903 -0.0778673 0.00537144)
(19.9771 -0.11352 0.0105162)
(19.9485 -0.163738 0.021331)
(19.8901 -0.244073 0.0468924)
(19.7641 -0.396826 0.112165)
(19.6389 -0.671187 0.190096)
(19.5562 -1.62366 0.456643)
(20.7051 -2.03649 0.300035)
(21.802 -1.67761 -0.225239)
(21.7566 -0.215866 0.000144568)
(21.5715 0.336734 0.0126132)
(20.2766 0.223054 -0.288889)
(20.3921 -0.480408 -0.288993)
(20.5446 -0.823766 -0.263956)
(20.7519 -1.13463 -0.2598)
(21.2507 -1.46931 -0.277795)
(22.0356 -1.76403 -0.304212)
(22.8932 -1.95082 -0.307912)
(23.6568 -2.00905 -0.276264)
(24.281 -1.96566 -0.222149)
(24.7833 -1.86063 -0.162569)
(25.1908 -1.72518 -0.107758)
(25.5267 -1.57545 -0.0622016)
(25.8006 -1.42668 -0.0269622)
(26.0417 -1.27198 -0.0028326)
(26.212 -1.16901 0.00693474)
(26.4704 -0.967279 -0.00520642)
(19.9998 -0.00872824 0.000431977)
(19.9981 -0.0277115 0.00137564)
(19.9937 -0.0490148 0.00277329)
(19.984 -0.074364 0.00536061)
(19.9653 -0.106233 0.0108473)
(19.924 -0.148102 0.0225224)
(19.8433 -0.208585 0.0519476)
(19.6219 -0.310972 0.136347)
(19.3003 -0.542217 0.273549)
(18.4066 -1.64854 0.737336)
(21.8261 -3.70206 0.93141)
(23.96 -6.22672 -2.57454)
(19.6021 1.32234 0.191986)
(20.38 2.29906 -1.93059)
(11.7928 1.2522 0.969033)
(14.2768 0.0462126 0.359851)
(16.3862 -0.746674 -0.0281564)
(18.3064 -1.35929 -0.277829)
(20.1768 -1.82722 -0.418886)
(21.7975 -2.13163 -0.473899)
(22.9803 -2.27027 -0.452352)
(23.7568 -2.27228 -0.378572)
(24.2637 -2.18432 -0.285722)
(24.6125 -2.04631 -0.196491)
(24.8647 -1.88435 -0.12017)
(25.0504 -1.7115 -0.0585641)
(25.1835 -1.54201 -0.00979828)
(25.2796 -1.36977 0.0279683)
(25.3365 -1.25271 0.0548698)
(25.3856 -1.04018 0.079424)
(19.9998 -0.0083037 0.000411943)
(19.9974 -0.026306 0.00131357)
(19.9916 -0.0461363 0.00265948)
(19.9796 -0.0687567 0.00517275)
(19.9576 -0.0947183 0.0106182)
(19.9115 -0.124485 0.0222911)
(19.8235 -0.154738 0.0516809)
(19.5908 -0.171845 0.136968)
(19.1859 -0.183747 0.293447)
(17.2318 -0.0256577 1.00963)
(1.37989 -0.168417 -3.29301)
(14.127 -3.30793 0.0168898)
(17.0665 -2.70607 -0.488701)
(19.2325 -2.47072 -0.771769)
(20.8651 -2.42919 -0.872365)
(22.1653 -2.46587 -0.846609)
(23.1059 -2.50358 -0.752583)
(23.7068 -2.49005 -0.62367)
(24.0751 -2.4129 -0.482933)
(24.3064 -2.28681 -0.349836)
(24.4528 -2.12921 -0.235089)
(24.5391 -1.95373 -0.141272)
(24.5763 -1.76899 -0.0664092)
(24.5743 -1.58824 -0.00575758)
(24.5319 -1.407 0.0449918)
(24.4816 -1.28049 0.0889979)
(24.3305 -1.06757 0.149812)
(19.9997 -0.00769112 0.000377125)
(19.997 -0.0243236 0.00119029)
(19.9902 -0.0422358 0.00241812)
(19.9771 -0.0618676 0.00485146)
(19.954 -0.0826771 0.00970883)
(19.9112 -0.102106 0.0201315)
(19.8321 -0.109376 0.0454804)
(19.673 -0.0669712 0.113915)
(19.3878 0.0779983 0.231005)
(18.8489 1.07801 0.747284)
(20.0797 2.0296 1.21104)
(23.1735 3.87491 -1.16734)
(22.3534 -1.48652 -1.39269)
(21.6648 -2.81983 -1.89993)
(20.6102 -1.90114 -0.826217)
(21.0215 -1.58149 -0.920989)
(21.6186 -1.79416 -0.993181)
(22.2856 -2.11269 -1.00553)
(22.939 -2.342 -0.938746)
(23.4502 -2.45162 -0.814568)
(23.7847 -2.45995 -0.661381)
(23.9791 -2.39475 -0.505097)
(24.0812 -2.27883 -0.363508)
(24.1134 -2.12634 -0.243434)
(24.0907 -1.95045 -0.145485)
(24.0195 -1.76226 -0.0662044)
(23.912 -1.57689 0.000399372)
(23.756 -1.39281 0.0600871)
(23.6155 -1.26077 0.117612)
(23.2884 -1.05423 0.211783)
(19.9997 -0.00694479 0.000327838)
(19.9967 -0.0219076 0.00103112)
(19.9895 -0.0377597 0.00208819)
(19.9764 -0.0543294 0.00404054)
(19.9547 -0.0699669 0.00779589)