/*--------------------------------*- C++ -*----------------------------------*\
| =========                 |                                                 |
| \\      /  F ield         | OpenFOAM: The Open Source CFD Toolbox           |
|  \\    /   O peration     | Version:  2512                                  |
|   \\  /    A nd           | Website:  www.openfoam.com                      |
|    \\/     M anipulation  |                                                 |
\*---------------------------------------------------------------------------*/
FoamFile
{
    version     2.0;
    format      ascii;
    arch        "LSB;label=32;scalar=64";
    class       volVectorField;
    location    "180";
    object      U;
}
// * * * * * * * * * * * * * * * * * * * * * * * * * * * * * * * * * * * * * //

dimensions      [0 1 -1 0 0 0 0];

internalField   nonuniform List<vector> 
84826
(
(20 -0.000183714 0.000206468)
(19.9998 -0.000592944 0.000670849)
(19.9993 -0.0011758 0.00122672)
(19.999 -0.00211112 0.00193103)
(19.9997 -0.00363903 0.00284671)
(20.003 -0.00608638 0.00403327)
(20.0115 -0.00984618 0.00553138)
(20.0289 -0.015271 0.00732337)
(20.0602 -0.0223074 0.00926248)
(20.1093 -0.0297615 0.0110576)
(20.1767 -0.0352419 0.0122966)
(20.2536 -0.0338196 0.0124126)
(20.3178 -0.0239241 0.0110854)
(20.3476 -0.0106999 0.00858868)
(20.3398 -0.000194391 0.00566788)
(20.3094 0.0052084 0.00316203)
(20.2751 0.0059114 0.00168131)
(20.2482 0.00458071 0.00112522)
(20.2296 0.00330421 0.000946863)
(20.2157 0.00228947 0.0008448)
(20.2046 0.00131794 0.000810357)
(20.1966 0.000516561 0.000826407)
(20.191 -6.24298e-05 0.00081384)
(20.1868 -0.000538605 0.000740496)
(20.183 -0.000953484 0.000623085)
(20.1796 -0.00125906 0.000481443)
(20.1763 -0.00144049 0.000325178)
(20.1726 -0.00161562 0.000184833)
(20.1701 -0.00175972 1.48279e-05)
(20.164 -0.00236757 -6.66723e-05)
(20 -0.000530948 0.000210411)
(19.9996 -0.00171689 0.000684331)
(19.9988 -0.00341469 0.00125486)
(19.998 -0.00615513 0.00198518)
(19.9978 -0.0106641 0.00294851)
(19.9998 -0.0179513 0.00422061)
(20.0065 -0.0292878 0.00586706)
(20.022 -0.0458734 0.00790587)
(20.052 -0.0678201 0.0102122)
(20.102 -0.091602 0.0124449)
(20.1747 -0.109935 0.014099)
(20.2607 -0.105837 0.0143495)
(20.332 -0.0742127 0.0129669)
(20.3621 -0.032651 0.0100485)
(20.3495 0.000115875 0.00655436)
(20.3131 0.0165116 0.0035796)
(20.2746 0.0177759 0.00199448)
(20.2465 0.0130652 0.00155654)
(20.2281 0.00893175 0.00148508)
(20.2142 0.00570698 0.00147077)
(20.2033 0.00282964 0.00155924)
(20.1955 0.000907025 0.00172317)
(20.1902 0.000137096 0.00186337)
(20.1861 8.50313e-05 0.00193652)
(20.1825 0.000510881 0.00195194)
(20.1793 0.0014709 0.00191229)
(20.1763 0.00296247 0.00182356)
(20.1727 0.00480475 0.00173319)
(20.17 0.00670271 0.00161419)
(20.165 0.0088629 0.00160966)
(20 -0.000824941 0.000217989)
(19.9993 -0.00267363 0.000711094)
(19.9979 -0.00534451 0.00131191)
(19.9959 -0.0097044 0.00209702)
(19.9939 -0.0169784 0.00316172)
(19.9931 -0.0289441 0.0046183)
(19.9961 -0.048005 0.00658432)
(20.0072 -0.0767146 0.00915644)
(20.0341 -0.116223 0.0122752)
(20.0854 -0.16099 0.0155065)
(20.1692 -0.198486 0.0181651)
(20.2759 -0.191805 0.0187182)
(20.3627 -0.132316 0.0173385)
(20.393 -0.0576255 0.0136016)
(20.3699 0.0013358 0.00876393)
(20.3204 0.0296508 0.00465526)
(20.2734 0.0290878 0.00287405)
(20.2431 0.0191084 0.0027498)
(20.2254 0.0112094 0.0029279)
(20.2121 0.00459447 0.00304631)
(20.2018 -0.00173266 0.00321464)
(20.1951 -0.0063657 0.00338567)
(20.1907 -0.00897261 0.00346142)
(20.1872 -0.0104538 0.00343944)
(20.1842 -0.0114674 0.00333343)
(20.1815 -0.0121782 0.0031138)
(20.1789 -0.0126459 0.00276689)
(20.1756 -0.0130145 0.00234088)
(20.1734 -0.0130646 0.00186896)
(20.1657 -0.0134476 0.00136543)
(19.9999 -0.00103824 0.000227881)
(19.9989 -0.00337129 0.000747521)
(19.9966 -0.0067846 0.00139048)
(19.993 -0.0124483 0.00225336)
(19.9882 -0.0220925 0.00346636)
(19.9831 -0.0383781 0.00520178)
(19.9799 -0.0652363 0.0076724)
(19.9832 -0.107516 0.0111232)
(20.0035 -0.169167 0.015655)
(20.0548 -0.244016 0.0207166)
(20.1575 -0.314464 0.0252178)
(20.3016 -0.303074 0.0264782)
(20.414 -0.201869 0.0255469)
(20.4433 -0.0871076 0.0207566)
(20.4026 0.00504629 0.0134009)
(20.3304 0.046271 0.00722831)
(20.269 0.0394629 0.00524352)
(20.2363 0.0221143 0.00565775)
(20.2198 0.0109268 0.00632771)
(20.2069 0.0021599 0.00704049)
(20.1971 -0.00558761 0.00791688)
(20.1916 -0.00976395 0.00872165)
(20.1881 -0.00982394 0.00931007)
(20.185 -0.00700495 0.00977672)
(20.1819 -0.00249377 0.0101905)
(20.179 0.00281898 0.0105138)
(20.1762 0.00810451 0.0107091)
(20.1729 0.0129755 0.0107948)
(20.17 0.0173033 0.0107618)
(20.1671 0.0218963 0.0106716)
(19.9999 -0.00114468 0.000239351)
(19.9984 -0.00372187 0.000790561)
(19.995 -0.00755574 0.00148701)
(19.9892 -0.0140561 0.00244845)
(19.9809 -0.025422 0.00385271)
(19.9698 -0.0452914 0.00596416)
(19.9572 -0.0795993 0.00915085)
(19.9476 -0.136941 0.0139336)
(19.9548 -0.227087 0.0207)
(20.001 -0.347231 0.0289723)
(20.1351 -0.478069 0.0363712)
(20.3446 -0.461215 0.0385885)
(20.4947 -0.294039 0.0385627)
(20.5187 -0.125881 0.0324192)
(20.4509 0.0141518 0.0201228)
(20.3419 0.0651609 0.0110869)
(20.2595 0.0431739 0.0104492)
(20.2263 0.0145908 0.0126054)
(20.2135 -0.00287441 0.0138967)
(20.2022 -0.0188498 0.0149105)
(20.1946 -0.0350103 0.0160866)
(20.1924 -0.0478367 0.0169679)
(20.1922 -0.0564778 0.017289)
(20.1915 -0.0614756 0.0172051)
(20.1901 -0.0632994 0.0168724)
(20.1879 -0.062798 0.0163628)
(20.1853 -0.0613113 0.0157547)
(20.1813 -0.059573 0.0151506)
(20.179 -0.0577076 0.0144462)
(20.169 -0.0554341 0.0138656)
(19.9998 -0.00112696 0.000251709)
(19.9978 -0.00366526 0.000836399)
(19.9932 -0.00752128 0.00159543)
(19.985 -0.014238 0.00267479)
(19.9722 -0.0263642 0.00430631)
(19.9534 -0.0484762 0.0068797)
(19.9278 -0.0889069 0.0110102)
(19.8978 -0.161971 0.0176535)
(19.8802 -0.2883 0.0278615)
(19.9071 -0.478582 0.0408746)
(20.0923 -0.716089 0.0527118)
(20.4134 -0.684021 0.0591316)
(20.6152 -0.435396 0.066602)
(20.6245 -0.192001 0.0601369)
(20.512 0.0343021 0.0376826)
(20.3419 0.0730612 0.0223157)
(20.2322 0.0145109 0.0241301)
(20.2023 -0.0257818 0.0310803)
(20.1942 -0.0404022 0.0366571)
(20.1837 -0.0487812 0.0416708)
(20.1782 -0.0531982 0.0464604)
(20.1798 -0.0519856 0.0503925)
(20.1836 -0.0472138 0.0529948)
(20.1866 -0.0405993 0.0543448)
(20.1884 -0.0325029 0.0545895)
(20.1885 -0.0234479 0.0539804)
(20.1868 -0.0148521 0.0528429)
(20.1841 -0.00703698 0.0514736)
(20.1806 -0.00136994 0.0500371)
(20.1783 0.0073218 0.0475105)
(19.9997 -0.000979319 0.00026364)
(19.9972 -0.00317784 0.000880662)
(19.9913 -0.00661109 0.00169715)
(19.9806 -0.012791 0.00290637)
(19.963 -0.0243658 0.0047992)
(19.935 -0.0465166 0.00790178)
(19.892 -0.0897022 0.0131781)
(19.8315 -0.175966 0.0222277)
(19.7669 -0.342916 0.0368491)
(19.7524 -0.655196 0.0573792)
(19.9983 -1.07702 0.0696312)
(20.4964 -0.922609 0.0908436)
(20.7742 -0.637398 0.128273)
(20.7836 -0.31038 0.119262)
(20.5965 0.107572 0.0909456)
(20.314 0.108827 0.0788009)
(20.2054 -0.0313602 0.0874438)
(20.2241 -0.121174 0.100542)
(20.2492 -0.172607 0.113681)
(20.2534 -0.212526 0.128331)
(20.2508 -0.237468 0.142935)
(20.2441 -0.245183 0.155407)
(20.2307 -0.241143 0.164648)
(20.2121 -0.230686 0.170565)
(20.1912 -0.216943 0.173311)
(20.1689 -0.201888 0.173429)
(20.1476 -0.188297 0.171763)
(20.1247 -0.175076 0.169261)
(20.1097 -0.167718 0.165978)
(20.0835 -0.159219 0.162065)
(19.9997 -0.000710139 0.000273684)
(19.9967 -0.00228078 0.000919473)
(19.9897 -0.00485011 0.00178413)
(19.9766 -0.00968593 0.00310129)
(19.9543 -0.0191691 0.00524635)
(19.9165 -0.038142 0.00896895)
(19.8527 -0.0779962 0.0154872)
(19.7492 -0.165523 0.0278948)
(19.5966 -0.362763 0.0453046)
(19.4751 -0.83425 0.0817475)
(19.731 -1.18651 0.0207613)
(20.5746 -1.50084 0.00147771)
(21.102 -0.761536 0.0845427)
(21.0932 -0.535586 0.0196056)
(21.0533 -0.0105553 0.223293)
(20.379 0.0188158 0.278273)
(19.9255 -0.143136 0.340669)
(19.5852 -0.229785 0.35984)
(19.2174 -0.277223 0.351922)
(18.8342 -0.32174 0.333557)
(18.4864 -0.355464 0.309683)
(18.1915 -0.371506 0.282599)
(17.9522 -0.372657 0.255228)
(17.768 -0.364195 0.229883)
(17.636 -0.349516 0.207662)
(17.5453 -0.331972 0.188986)
(17.4928 -0.311526 0.174376)
(17.4525 -0.294686 0.162985)
(17.4562 -0.267862 0.155282)
(17.4176 -0.261498 0.147244)
(19.9997 -0.000342499 0.000280932)
(19.9964 -0.00104952 0.000946653)
(19.9885 -0.00237195 0.00184924)
(19.9736 -0.00513393 0.00324304)
(19.9476 -0.0109891 0.00556549)
(19.9012 -0.0232473 0.00982692)
(19.818 -0.0512105 0.0175902)
(19.6597 -0.116444 0.0335692)
(19.3837 -0.294565 0.0551609)
(18.9309 -0.791044 0.0958162)
(19.1252 -1.5792 -0.0235567)
(20.852 -2.26333 0.136191)
(21.1531 -1.5274 0.317908)
(21.5605 -1.87324 -0.128245)
(13.9371 -0.82961 0.440169)
(12.0734 -0.893887 0.105426)
(10.9488 -1.13966 -0.0648018)
(10.5258 -1.25524 -0.222018)
(10.3269 -1.30332 -0.347064)
(10.2956 -1.32889 -0.427104)
(10.4369 -1.32256 -0.474565)
(10.6819 -1.28698 -0.502703)
(11.0094 -1.22866 -0.51205)
(11.3728 -1.16033 -0.507915)
(11.7402 -1.08973 -0.495462)
(12.0923 -1.02173 -0.477668)
(12.4168 -0.953564 -0.457477)
(12.7207 -0.894973 -0.43267)
(12.9655 -0.822477 -0.418304)
(13.3131 -0.754581 -0.377879)
(19.9996 8.70552e-05 0.000284387)
(19.9962 0.000387729 0.000959172)
(19.9879 0.000550528 0.00187834)
(19.9721 0.000311964 0.00330777)
(19.9442 -0.000861861 0.00571529)
(19.893 -0.00411896 0.0101989)
(19.7983 -0.0129449 0.0185854)
(19.602 -0.0355372 0.0374062)
(19.2116 -0.106576 0.0616347)
(18.3186 -0.325474 0.105621)
(17.838 -1.13008 -0.234727)
(20.9993 -3.15431 -0.432419)
(22.3017 -4.51514 0.660456)
(16.2853 1.6433 -1.51886)
(-1.52613 -0.413037 -2.34876)
(1.91448 0.157012 -2.42587)
(5.08102 0.113786 -2.02934)
(7.46442 0.00905955 -1.75209)
(9.02893 -0.0894323 -1.54859)
(10.158 -0.166244 -1.37854)
(11.0814 -0.205606 -1.23944)
(11.8542 -0.212283 -1.12867)
(12.4966 -0.199623 -1.03767)
(13.0357 -0.17841 -0.960148)
(13.4939 -0.155416 -0.892903)
(13.8867 -0.134585 -0.833452)
(14.2174 -0.115493 -0.781883)
(14.5177 -0.104692 -0.732344)
(14.7304 -0.0814009 -0.701953)
(15.0944 -0.0841289 -0.642688)
(19.9996 0.000533368 0.00028369)
(19.9962 0.0018843 0.000955932)
(19.988 0.00361627 0.00186941)
(19.9724 0.00609418 0.00328852)
(19.9447 0.0100269 0.00567857)
(19.8939 0.0169516 0.0101453)
(19.7997 0.0308559 0.018517)
(19.6045 0.0609285 0.0372748)
(19.2161 0.143447 0.0613397)
(18.3263 0.383571 0.10469)
(17.5143 0.625816 -0.297299)
(20.2013 0.607933 -0.653828)
(-0.82903 4.45305 -1.15203)
(-1.3523 -1.23404 -0.637981)
(2.62208 -1.15043 -1.06004)
(5.59435 -0.806213 -1.08715)
(7.64213 -0.577507 -1.03019)
(8.91746 -0.454283 -0.941997)
(9.81402 -0.380561 -0.843546)
(10.5549 -0.32669 -0.759114)
(11.1917 -0.277213 -0.69788)
(11.7463 -0.224501 -0.654777)
(12.251 -0.168948 -0.625898)
(12.7309 -0.11246 -0.608879)
(13.1994 -0.0541675 -0.600675)
(13.6515 0.00774511 -0.599777)
(14.1058 0.0668222 -0.597799)
(14.4605 0.125464 -0.607188)
(15.0733 0.172982 -0.598845)
(19.9997 0.000946756 0.000278521)
(19.9965 0.00326549 0.000938824)
(19.9888 0.00644699 0.00182588)
(19.9744 0.0114069 0.00317914)
(19.9491 0.0200299 0.00546972)
(19.9038 0.0358527 0.00970289)
(19.8223 0.068663 0.0174153)
(19.6671 0.140871 0.0332115)
(19.3972 0.329599 0.0544342)
(18.9539 0.84453 0.0936348)
(18.6679 1.64012 -0.0612994)
(20.9209 3.31665 -0.26058)
(21.349 5.16186 0.28245)
(12.6667 3.36881 1.27486)
(18.6985 -0.0103259 0.983661)
(18.2676 0.00417184 0.801432)
(18.3211 0.179091 0.654156)
(18.3361 0.34195 0.542282)
(18.1578 0.47569 0.469098)
(17.8192 0.580324 0.417865)
(17.388 0.645937 0.368986)
(16.8984 0.679056 0.315805)
(16.3751 0.692048 0.264437)
(15.8423 0.69386 0.217299)
(15.3249 0.691322 0.171373)
(14.8456 0.691843 0.120346)
(14.4261 0.698885 0.0590055)
(14.1345 0.716129 -0.00861443)
(13.9039 0.716732 -0.0759275)
(13.9991 0.745805 -0.170721)
(19.9997 0.00128381 0.000270071)
(19.9969 0.00437949 0.000905435)
(19.9902 0.00869085 0.00175206)
(19.9779 0.0155643 0.00303264)
(19.9567 0.0275439 0.00514094)
(19.9207 0.0497261 0.00881265)
(19.8595 0.0938887 0.015228)
(19.761 0.187399 0.0273813)
(19.6172 0.393236 0.0443099)
(19.5097 0.876597 0.0793431)
(19.5234 1.36556 0.0249163)
(20.7775 1.97527 0.0767408)
(21.4657 1.56777 0.350271)
(21.8406 0.381776 0.320563)
(20.8221 -0.634269 0.257164)
(20.257 -0.65436 0.208036)
(20.084 -0.566128 0.161464)
(20.0602 -0.507317 0.121931)
(20.0285 -0.453305 0.100952)
(20.0067 -0.382694 0.10335)
(20.0068 -0.308433 0.121226)
(19.9872 -0.237273 0.144322)
(19.9025 -0.166317 0.17006)
(19.7349 -0.0959813 0.19703)
(19.4812 -0.0280483 0.223197)
(19.1472 0.035925 0.245113)
(18.7519 0.0923391 0.25929)
(18.3067 0.151315 0.261956)
(17.8942 0.179529 0.26203)
(17.2621 0.279179 0.220746)
(19.9998 0.00150724 0.000259347)
(19.9975 0.00510574 0.000862158)
(19.9921 0.0101332 0.00165899)
(19.9823 0.0181685 0.0028394)
(19.9662 0.0319932 0.00468665)
(19.9404 0.0569806 0.00771207)
(19.9009 0.103756 0.012841)
(19.8463 0.194734 0.0216135)
(19.7915 0.367184 0.0355921)
(19.7944 0.686045 0.0550456)
(20.0723 1.11183 0.0655622)
(20.6419 0.982336 0.0877421)
(21.0302 0.582022 0.125063)
(20.998 -0.0288582 0.0849261)
(20.664 -0.397036 0.0331932)
(20.3381 -0.388337 0.00432368)
(20.1943 -0.286767 -0.00997512)
(20.1558 -0.216898 -0.0186358)
(20.124 -0.153389 -0.0195569)
(20.0904 -0.0773709 -0.0116881)
(20.0744 -0.00305202 0.000230986)
(20.0781 0.0579508 0.0127499)
(20.0954 0.104007 0.02666)
(20.1178 0.139957 0.043946)
(20.1396 0.169372 0.0654627)
(20.1531 0.193445 0.0901541)
(20.1516 0.211733 0.116878)
(20.1174 0.224588 0.143113)
(20.0844 0.235143 0.17043)
(19.9175 0.237742 0.197303)
(19.9998 0.00159686 0.000246526)
(19.9981 0.00537742 0.00081489)
(19.9941 0.0106402 0.00155089)
(19.9871 0.0189758 0.00259509)
(19.9761 0.0330275 0.00417064)
(19.9598 0.0574874 0.006651)
(19.9382 0.100743 0.0106176)
(19.9144 0.177172 0.0169608)
(19.9065 0.30672 0.026552)
(19.9495 0.498947 0.0384886)
(20.1601 0.732386 0.0482104)
(20.5259 0.683505 0.0522594)
(20.7815 0.355886 0.0536213)
(20.7714 -0.0417752 0.0294029)
(20.5724 -0.29707 -0.00230939)
(20.35 -0.339546 -0.017106)
(20.2214 -0.301772 -0.0169608)
(20.1734 -0.273452 -0.0140949)
(20.1447 -0.245899 -0.0115006)
(20.1188 -0.204713 -0.00704663)
(20.106 -0.161641 -0.00119914)
(20.1057 -0.127931 0.00434852)
(20.1094 -0.102734 0.00881147)
(20.1132 -0.0810728 0.0128426)
(20.1184 -0.0600217 0.0170439)
(20.1269 -0.0388349 0.0214403)
(20.1391 -0.0175603 0.0262929)
(20.1532 0.00229835 0.031884)
(20.1693 0.024614 0.03742)
(20.1904 0.0448946 0.0483052)
(19.9999 0.00154637 0.000233405)
(19.9987 0.00517986 0.000765822)
(19.996 0.010202 0.001436)
(19.9916 0.0180546 0.00235898)
(19.9852 0.0310001 0.00370235)
(19.9769 0.0527315 0.00571276)
(19.9686 0.0891577 0.00872727)
(19.9651 0.14873 0.0132065)
(19.9813 0.24047 0.0194048)
(20.0411 0.360235 0.0267126)
(20.1948 0.484707 0.032271)
(20.4316 0.44992 0.0318515)
(20.6093 0.232056 0.027047)
(20.6213 -0.0219317 0.0118655)
(20.5019 -0.192373 -0.00646997)
(20.3516 -0.236932 -0.0165194)
(20.2506 -0.208136 -0.0179457)
(20.206 -0.170294 -0.0177487)
(20.1813 -0.134379 -0.0182894)
(20.1589 -0.0934864 -0.0177895)
(20.1434 -0.0531635 -0.01556)
(20.1373 -0.0212216 -0.0123418)
(20.1358 0.00207772 -0.00872088)
(20.135 0.0199267 -0.00471162)
(20.1343 0.0343817 -0.000381689)
(20.1342 0.0463167 0.00399734)
(20.1347 0.0558644 0.00827596)
(20.1358 0.0629139 0.0123264)
(20.137 0.068792 0.0157461)
(20.1383 0.0712072 0.0205166)
(19.9999 0.00136308 0.000221312)
(19.9993 0.00454402 0.000720249)
(19.9978 0.00890452 0.00133493)
(19.9955 0.0156342 0.00215634)
(19.9929 0.0265002 0.00330417)
(19.9908 0.04418 0.00493344)
(19.9918 0.0725377 0.00722942)
(20.001 0.116221 0.0103874)
(20.0295 0.178528 0.0144094)
(20.0923 0.252142 0.0186426)
(20.2098 0.316475 0.0216911)
(20.3714 0.29055 0.0208534)
(20.4981 0.156936 0.0167749)
(20.5194 -0.00579493 0.00693382)
(20.4468 -0.120689 -0.00446151)
(20.3438 -0.159372 -0.0118597)
(20.2644 -0.14576 -0.0138607)
(20.2207 -0.122604 -0.0135262)
(20.1937 -0.104317 -0.0128445)
(20.1702 -0.0860786 -0.0114128)
(20.1521 -0.0675405 -0.00889436)
(20.1423 -0.0523453 -0.00583381)
(20.1382 -0.0410022 -0.00285271)
(20.1367 -0.0317472 -0.000168288)
(20.1361 -0.0233287 0.00220473)
(20.1362 -0.0155063 0.00427091)
(20.1368 -0.0085115 0.00607134)
(20.1375 -0.00249683 0.00762669)
(20.138 0.00240189 0.00887956)
(20.1392 0.00807933 0.0105418)
(20 0.00106606 0.000210964)
(19.9997 0.00353659 0.000681961)
(19.9992 0.00689654 0.0012526)
(19.9986 0.0120235 0.00199381)
(19.9988 0.0201623 0.00299047)
(20.0011 0.0330879 0.00433851)
(20.0083 0.0531328 0.00613179)
(20.0251 0.0826657 0.00842375)
(20.0595 0.122351 0.0110841)
(20.1205 0.165787 0.0136011)
(20.2158 0.19853 0.0151133)
(20.3343 0.181531 0.0140521)
(20.4288 0.102158 0.0104116)
(20.4528 0.000492553 0.00360854)
(20.4083 -0.0739397 -0.00378502)
(20.3352 -0.10274 -0.00889759)
(20.2713 -0.0981739 -0.0106493)
(20.2295 -0.0848033 -0.010452)
(20.2019 -0.0732156 -0.00981737)
(20.1796 -0.0606507 -0.00891022)
(20.1623 -0.0458461 -0.00753271)
(20.1519 -0.0314752 -0.00589438)
(20.1468 -0.0193012 -0.00433069)
(20.1444 -0.00923079 -0.0029449)
(20.143 -0.000846496 -0.00169422)
(20.1422 0.00599807 -0.000525068)
(20.1418 0.0113094 0.000586303)
(20.1415 0.0152202 0.00164394)
(20.1415 0.0178265 0.00256472)
(20.1397 0.0201196 0.00387457)
(20 0.000683713 0.000203213)
(20 0.00225435 0.000654233)
(20.0001 0.00437354 0.00119333)
(20.0008 0.00757817 0.00187809)
(20.0028 0.0126034 0.00277146)
(20.0079 0.0204518 0.00393382)
(20.0188 0.0323421 0.00540952)
(20.0398 0.0493502 0.00717917)
(20.0768 0.0712875 0.00906269)
(20.1354 0.0941077 0.010662)
(20.2174 0.109488 0.011371)
(20.3122 0.0993413 0.0103257)
(20.3879 0.0569784 0.00723662)
(20.4126 0.00165272 0.00226533)
(20.384 -0.0397164 -0.00297063)
(20.3284 -0.0569291 -0.00679689)
(20.2744 -0.0558163 -0.00846903)
(20.2349 -0.0485477 -0.00862567)
(20.2074 -0.0414528 -0.00826298)
(20.1859 -0.033827 -0.00768111)
(20.1689 -0.0251345 -0.00678755)
(20.1575 -0.0170752 -0.00564973)
(20.1509 -0.010925 -0.00446475)
(20.1471 -0.00658911 -0.00334255)
(20.1446 -0.00352427 -0.00229065)
(20.143 -0.0013509 -0.00129797)
(20.142 0.000121736 -0.000370947)
(20.1412 0.000999706 0.000489951)
(20.1408 0.00151774 0.00121166)
(20.1408 0.00196258 0.0021517)
(20 0.000237661 0.00019962)
(20.0002 0.000779197 0.000641011)
(20.0006 0.00150522 0.00116502)
(20.0018 0.00259685 0.00182303)
(20.0048 0.00429694 0.00266774)
(20.0113 0.00692899 0.00374379)
(20.0239 0.0108667 0.00507174)
(20.0467 0.0164203 0.00659891)
(20.0847 0.0234336 0.00813382)
(20.1417 0.0305409 0.00933516)
(20.2176 0.0350229 0.00972539)
(20.3017 0.0316098 0.00869932)
(20.369 0.0183301 0.00592552)
(20.3937 0.00088258 0.0018135)
(20.3721 -0.0123492 -0.0024741)
(20.3244 -0.0180714 -0.00570258)
(20.2751 -0.0179537 -0.00726874)
(20.237 -0.0156526 -0.00751612)
(20.2096 -0.0132921 -0.00719475)
(20.1883 -0.0108422 -0.0066521)
(20.1713 -0.00815596 -0.00586737)
(20.1593 -0.00573329 -0.00486562)
(20.1521 -0.00393228 -0.0037988)
(20.1479 -0.00264386 -0.00278684)
(20.1453 -0.00161997 -0.00187153)
(20.1437 -0.000711113 -0.00105607)
(20.1426 0.000114548 -0.0003391)
(20.1419 0.000877769 0.000293264)
(20.1415 0.00151749 0.000807381)
(20.1409 0.00238181 0.00144691)
(20 -0.000181881 0.000626006)
(19.9998 -0.000582827 0.00197687)
(19.9994 -0.00115327 0.00356576)
(19.9992 -0.00206765 0.00557228)
(20.0001 -0.00355844 0.00818821)
(20.0037 -0.00593961 0.011606)
(20.0124 -0.00958738 0.0159587)
(20.03 -0.0148141 0.0212739)
(20.0613 -0.0215813 0.0272437)
(20.1102 -0.0287742 0.0329188)
(20.1773 -0.0339375 0.0368183)
(20.2535 -0.0325367 0.0371033)
(20.3176 -0.0229322 0.0329561)
(20.3478 -0.0101865 0.0255839)
(20.3411 -0.000204575 0.0175098)
(20.3123 0.00481973 0.0111904)
(20.2799 0.00550065 0.00781116)
(20.2544 0.0043589 0.00666066)
(20.2364 0.00326685 0.00627441)
(20.2227 0.00241313 0.0059382)
(20.2116 0.00162342 0.00568583)
(20.2033 0.0010162 0.00547568)
(20.1973 0.000627196 0.0051178)
(20.1925 0.000331146 0.00456278)
(20.188 8.19157e-05 0.00390473)
(20.1838 -8.48092e-05 0.00320244)
(20.1797 -0.00015711 0.00247028)
(20.1752 -0.000232178 0.00179337)
(20.1719 -0.00028416 0.00110071)
(20.1647 -0.000710617 0.000616488)
(20 -0.000526383 0.000636262)
(19.9997 -0.00168916 0.00201291)
(19.999 -0.00335069 0.00364212)
(19.9982 -0.00602754 0.00572003)
(19.9983 -0.0104208 0.00846663)
(20.0005 -0.0175009 0.0121186)
(20.0075 -0.0284828 0.0168794)
(20.0233 -0.044438 0.0228516)
(20.0534 -0.0655079 0.0298091)
(20.1033 -0.0884009 0.0367631)
(20.1753 -0.105662 0.0420068)
(20.2604 -0.101674 0.0429267)
(20.3313 -0.0707907 0.038434)
(20.3615 -0.0305984 0.0301453)
(20.3498 0.00040713 0.0208435)
(20.3152 0.0154364 0.013594)
(20.2788 0.016579 0.0101221)
(20.252 0.0124375 0.00930805)
(20.2341 0.00881625 0.00913801)
(20.2206 0.00597201 0.0089092)
(20.2097 0.00344515 0.00880068)
(20.2019 0.00181338 0.00875362)
(20.1964 0.00124647 0.00854265)
(20.1919 0.00133866 0.0081295)
(20.188 0.0018392 0.00756691)
(20.1843 0.00274427 0.00686904)
(20.1808 0.00402995 0.00605862)
(20.1767 0.00551138 0.00526674)
(20.1735 0.00703015 0.00449186)
(20.1675 0.0084111 0.00387582)
(20 -0.000817872 0.000656559)
(19.9994 -0.00263043 0.00208527)
(19.9981 -0.00524362 0.00379676)
(19.9962 -0.00949925 0.00602138)
(19.9945 -0.0165793 0.00903808)
(19.9941 -0.0281875 0.0131802)
(19.9975 -0.0466289 0.0188122)
(20.0092 -0.0742153 0.0262114)
(20.0363 -0.112052 0.0353347)
(20.0875 -0.155063 0.0452173)
(20.1702 -0.190459 0.0535228)
(20.2755 -0.183935 0.0557225)
(20.3615 -0.125324 0.0504891)
(20.3917 -0.0527072 0.0404229)
(20.3697 0.00280378 0.028199)
(20.3228 0.0284389 0.0186087)
(20.2786 0.0278585 0.0148599)
(20.25 0.019076 0.0146603)
(20.2327 0.0123021 0.0146863)
(20.2196 0.00678752 0.0142935)
(20.2093 0.00160832 0.0138921)
(20.2024 -0.00201454 0.0133747)
(20.1976 -0.00378833 0.0125634)
(20.1937 -0.00448958 0.011518)
(20.1901 -0.00472904 0.0102982)
(20.1868 -0.00469452 0.00884271)
(20.1836 -0.0044891 0.00716456)
(20.1796 -0.0042857 0.00541467)
(20.1768 -0.00387996 0.00372608)
(20.1684 -0.00383864 0.00203261)
(19.9999 -0.00102902 0.000684265)
(19.9989 -0.00331551 0.00218516)
(19.9968 -0.00665236 0.0040123)
(19.9934 -0.0121764 0.00644723)
(19.989 -0.0215547 0.00986102)
(19.9845 -0.0373295 0.0147443)
(19.9819 -0.0632612 0.0217424)
(19.9861 -0.103787 0.0314829)
(20.0071 -0.16266 0.0443693)
(20.0583 -0.234426 0.0596013)
(20.1594 -0.301062 0.0731418)
(20.3011 -0.289507 0.0773288)
(20.4124 -0.188111 0.0716562)
(20.4411 -0.0759601 0.059507)
(20.4015 0.00966781 0.0418405)
(20.3334 0.0467768 0.0278615)
(20.2764 0.0414387 0.0239537)
(20.2459 0.0266964 0.0247604)
(20.23 0.0170955 0.0250752)
(20.2173 0.00968254 0.024888)
(20.2076 0.00332839 0.0248383)
(20.2018 0.000185165 0.0244684)
(20.1979 0.000579964 0.0236112)
(20.1943 0.00339635 0.0225624)
(20.1907 0.0075553 0.0215189)
(20.1873 0.0122518 0.0204051)
(20.1838 0.0167581 0.0191866)
(20.1798 0.0207063 0.0179473)
(20.1763 0.0241245 0.0167032)
(20.172 0.0268786 0.0154653)
(19.9999 -0.0011335 0.000718222)
(19.9984 -0.00365876 0.00230207)
(19.9952 -0.00740438 0.00426825)
(19.9897 -0.013734 0.0069674)
(19.9819 -0.0247696 0.0108935)
(19.9716 -0.0439776 0.0167707)
(19.9602 -0.0770101 0.0256979)
(19.9522 -0.131783 0.0389257)
(19.9607 -0.217655 0.0578513)
(20.007 -0.332555 0.0815763)
(20.1382 -0.456835 0.103967)
(20.3454 -0.438156 0.112228)
(20.4933 -0.263888 0.108821)
(20.5148 -0.0992209 0.0946961)
(20.4482 0.0273341 0.065966)
(20.347 0.0707511 0.0444296)
(20.2719 0.0529909 0.0420329)
(20.2408 0.031113 0.0446659)
(20.2279 0.018687 0.0440341)
(20.2167 0.007068 0.0422432)
(20.2089 -0.00511979 0.0406164)
(20.2059 -0.0146616 0.0381257)
(20.2046 -0.020868 0.0343491)
(20.2028 -0.0242329 0.0298745)
(20.2002 -0.0251517 0.0251902)
(20.1969 -0.0242639 0.020565)
(20.1931 -0.0226315 0.016272)
(20.188 -0.0208225 0.0124975)
(20.1847 -0.0188553 0.00918308)
(20.1726 -0.0169253 0.00652408)
(19.9998 -0.00111493 0.000754467)
(19.9979 -0.00359429 0.00242878)
(19.9934 -0.00736114 0.00453325)
(19.9856 -0.0138992 0.00752083)
(19.9735 -0.0256421 0.0120472)
(19.9558 -0.046966 0.0191504)
(19.9321 -0.0857544 0.0305845)
(19.9048 -0.155382 0.0488124)
(19.8897 -0.275434 0.0765181)
(19.9169 -0.456892 0.113635)
(20.0991 -0.691653 0.152816)
(20.4208 -0.64687 0.171002)
(20.6205 -0.371384 0.179538)
(20.6215 -0.133147 0.165385)
(20.5101 0.0775783 0.113661)
(20.3562 0.113265 0.0768436)
(20.2607 0.0611085 0.076368)
(20.2337 0.0268489 0.082746)
(20.2242 0.0180953 0.0835281)
(20.2119 0.0168043 0.083389)
(20.2036 0.0195112 0.0841275)
(20.2014 0.0266815 0.0839416)
(20.2013 0.035719 0.0820363)
(20.2009 0.044648 0.078525)
(20.1998 0.0529678 0.0737326)
(20.1978 0.0603679 0.0681759)
(20.1948 0.0660107 0.0625802)
(20.1908 0.0698867 0.057353)
(20.1869 0.0717672 0.0527663)
(20.1828 0.0728255 0.0476633)
(19.9997 -0.000966136 0.000788563)
(19.9973 -0.00311191 0.00255439)
(19.9916 -0.00644905 0.00480036)
(19.9814 -0.0124679 0.0080406)
(19.9647 -0.0236821 0.013178)
(19.9382 -0.0449433 0.0216502)
(19.8979 -0.086167 0.0361356)
(19.8417 -0.168071 0.0610057)
(19.7819 -0.326848 0.101283)
(19.7661 -0.627464 0.158866)
(20.011 -1.07251 0.226013)
(20.5251 -0.85495 0.274211)
(20.7982 -0.515788 0.337217)
(20.7883 -0.213478 0.336287)
(20.6043 0.184641 0.251505)
(20.3483 0.229125 0.208306)
(20.2341 0.129583 0.209105)
(20.232 0.0524141 0.205714)
(20.2417 0.00232836 0.192595)
(20.2395 -0.0373522 0.180566)
(20.2381 -0.0623979 0.170513)
(20.239 -0.0710588 0.160943)
(20.238 -0.0686087 0.150904)
(20.2341 -0.0600462 0.140595)
(20.2284 -0.0484071 0.129801)
(20.2207 -0.0355087 0.118855)
(20.2121 -0.0239695 0.108686)
(20.2012 -0.0126647 0.0998571)
(20.1941 -0.00747742 0.0927171)
(20.1761 -0.00131121 0.0856275)
(19.9997 -0.000697216 0.00081802)
(19.9968 -0.00222209 0.00266032)
(19.99 -0.00471974 0.00504984)
(19.9776 -0.00939462 0.00852616)
(19.9564 -0.0185797 0.0141576)
(19.9207 -0.0369156 0.0237106)
(19.8607 -0.0748321 0.0413914)
(19.7629 -0.157897 0.0739335)
(19.6184 -0.343311 0.130385)
(19.48 -0.825835 0.217023)
(19.6021 -1.41327 0.238331)
(20.5056 -1.76504 0.303037)
(20.9945 -0.77128 0.575507)
(20.8835 -0.712257 0.720235)
(20.8783 0.255523 0.732039)
(20.441 0.313481 0.68962)
(20.2734 0.262847 0.739458)
(20.2479 0.267474 0.749428)
(20.2089 0.290097 0.73112)
(20.1414 0.300875 0.707492)
(20.0685 0.306293 0.679019)
(19.9978 0.312052 0.643129)
(19.9274 0.317382 0.602481)
(19.8602 0.320724 0.560229)
(19.7996 0.321721 0.518339)
(19.7447 0.320282 0.478463)
(19.6985 0.316954 0.443035)
(19.6477 0.311366 0.411181)
(19.622 0.307526 0.387263)
(19.5347 0.287052 0.362203)
(19.9997 -0.00032986 0.000839232)
(19.9965 -0.00100634 0.00273608)
(19.9888 -0.00228068 0.00522215)
(19.9746 -0.0049515 0.00892064)
(19.95 -0.0105961 0.0149733)
(19.9063 -0.0222323 0.0253538)
(19.8281 -0.0488236 0.045514)
(19.6783 -0.110942 0.0845103)
(19.4062 -0.28001 0.156435)
(18.8698 -0.79497 0.281865)
(18.7143 -2.00777 0.23498)
(20.4861 -3.31735 0.100209)
(21.1429 -1.10583 1.37865)
(21.1137 -2.64349 2.13781)
(15.5164 0.888899 1.40015)
(15.0037 0.491712 1.04309)
(14.809 0.0974694 0.95891)
(14.8988 -0.108472 0.824538)
(15.0996 -0.19765 0.674841)
(15.4048 -0.228906 0.54698)
(15.7973 -0.220681 0.440945)
(16.2305 -0.185552 0.349852)
(16.631 -0.140357 0.270317)
(16.9807 -0.0931036 0.20393)
(17.277 -0.0475362 0.15048)
(17.5191 -0.00629946 0.109417)
(17.7131 0.0320485 0.0792292)
(17.8524 0.061935 0.0603355)
(17.9718 0.0982864 0.0419374)
(17.995 0.117585 0.0453657)
(19.9996 9.88384e-05 0.000849302)
(19.9963 0.000414493 0.00277405)
(19.9883 0.00059525 0.00530669)
(19.9732 0.000390479 0.00911702)
(19.9467 -0.000690265 0.0154528)
(19.8985 -0.00372845 0.0266078)
(19.8098 -0.0118833 0.0482683)
(19.6253 -0.0318667 0.0911087)
(19.2295 -0.100253 0.171884)
(18.1123 -0.337732 0.314024)
(16.254 -1.57211 -0.0689091)
(19.6998 -11.0658 -4.20579)
(15.0231 -7.16499 12.5839)
(2.45571 -1.56106 2.445)
(7.41332 1.7965 -2.70749)
(10.1879 1.82209 -2.37419)
(12.4503 1.51925 -1.92409)
(14.0766 1.23984 -1.63205)
(15.1412 1.02015 -1.42245)
(15.8781 0.854333 -1.25068)
(16.4437 0.738845 -1.11482)
(16.8915 0.664133 -1.01082)
(17.2442 0.616987 -0.92649)
(17.5239 0.586233 -0.854774)
(17.7479 0.564541 -0.792929)
(17.9279 0.546815 -0.738685)
(18.0708 0.533097 -0.691898)
(18.1841 0.515406 -0.647105)
(18.2675 0.516014 -0.62049)
(18.3395 0.48014 -0.561245)
(19.9996 0.00054354 0.000847354)
(19.9963 0.00189225 0.0027661)
(19.9884 0.00359981 0.005296)
(19.9735 0.00601437 0.00909426)
(19.9472 0.00986063 0.0153462)
(19.8994 0.0165631 0.0263515)
(19.8112 0.0297603 0.0479304)
(19.6278 0.0570318 0.0906236)
(19.2338 0.136465 0.171101)
(18.1208 0.394386 0.311953)
(15.6767 0.883645 -0.182907)
(0.522041 -1.72964 1.86926)
(7.32815 -3.02083 -1.71166)
(10.2412 -2.84967 -1.6734)
(12.3897 -2.40055 -1.36812)
(13.7972 -2.00364 -1.13332)
(14.6404 -1.69326 -0.947501)
(15.1847 -1.44675 -0.79362)
(15.5974 -1.24191 -0.685889)
(15.9381 -1.06258 -0.624119)
(16.2374 -0.89367 -0.592926)
(16.519 -0.731894 -0.579965)
(16.7957 -0.579007 -0.576887)
(17.0669 -0.436646 -0.577152)
(17.3242 -0.306266 -0.57911)
(17.5716 -0.193695 -0.576017)
(17.7681 -0.091541 -0.58624)
(18.0635 -0.00365493 -0.56865)
(19.9997 0.000956391 0.000834102)
(19.9966 0.00324805 0.00270618)
(19.9892 0.00640444 0.00519458)
(19.9754 0.0112724 0.00885609)
(19.9515 0.0196172 0.0147949)
(19.9089 0.034732 0.0250136)
(19.8324 0.0660806 0.0450047)
(19.6856 0.134987 0.083591)
(19.4191 0.31439 0.154569)
(18.8948 0.847694 0.2772)
(17.941 2.15726 0.136193)
(19.5749 9.47751 -2.72342)
(17.5762 4.32301 11.0891)
(18.5472 -0.754859 1.65586)
(19.5525 -2.00871 0.788312)
(18.8512 -1.49215 0.612812)
(18.5262 -0.986465 0.541912)
(18.3197 -0.625223 0.486516)
(18.0296 -0.371339 0.469648)
(17.6702 -0.185075 0.485133)
(17.2762 -0.0533684 0.497722)
(16.8696 0.0333722 0.491185)
(16.4448 0.0917202 0.470231)
(16.0428 0.128982 0.441082)
(15.7159 0.147989 0.405534)
(15.5159 0.149911 0.36341)
(15.4615 0.138097 0.312119)
(15.5543 0.124091 0.255311)
(15.6903 0.0973679 0.191681)
(16.0833 0.100684 0.0985525)